
 Primary working directories    : /tmp/r2666/282332.maple
 Secondary working directories  : /tmp/r2666/282332.maple
 Wavefunction directory         : /ddn/home4/r2666/wfu/
 Main file repository           : /tmp/r2666/282332.maple/

 SHA1      : d5ffa45e93fdbca01ffc919aa182cfdae0147319
 NAME      : 2015.1.35
 ARCHNAME  : linux/x86_64
 FC        : /opt/intel/composer_xe_2015.1.133/bin/intel64/ifort
 BLASLIB   : -Wl,-_start-group /opt/intel/mkl/lib/intel64/libmkl_intel_ilp64.a /opt/intel/mkl/lib/intel64/libmkl_intel_thread.a /opt/intel/mkl/lib/intel64/libmkl_core.a -Wl,-_end-group
 id        : olemiss

 Nodes     nprocs
 cn079        1

 Using customized tuning parameters: mindgm=1; mindgv=20; mindgc=4; mindgr=1; noblas=0; minvec=7
 default implementation of scratch files=df  

 ***,hno CCSD(T)/TZ-F12 QFF
 memory, 995, m;
 gthresh,energy=1.d-12,zero=1.d-22,oneint=1.d-22,twoint=1.d-22;
 gthresh,optgrad=1.d-8,optstep=1.d-8;
 nocompress;
 geomtyp=xyz
 bohr
 geometry={
 3
        100       100
 H        0.0000000000        1.6718084168       -1.9398834701
 N        0.0000000000       -0.1597211513       -1.1426849037
 O        0.0000000000        0.0296805245        1.1319787828
 }
 
 basis={
 default=aug-cc-pvtz
 s,C,8236.0,1235.0,280.8, 79.27,25.59, 8.997,3.319
 s,C,0.9059,0.3643,0.1285000
 p,C,56.0,18.71,4.133,0.2827,0.3827,0.1209
 d,C,30.0,10.0,3.3,1.097,0.318
 f,C,7.0,2.3,0.7610
 s,N,11420.0,1712.0,389.3,110.0,35.57,12.54,4.644
 s,N,1.293,0.5118,0.1787
 p,N,79.89,26.63,5.948,1.742,0.555,0.1725
 d,N,45.0,15.0,5.0,1.654,0.469
 f,N,9.9,3.3,1.093
 s,O,15330.0,2299.0,522.4,147.3,47.55,16.76,6.207
 s,O,1.752,0.6882,0.2384
 p,O,103.5,34.46,7.749,2.28,0.7156,0.214
 d,O,63.0,21.0,7.0,2.314,0.645
 f,O,12.9,4.3,1.428
 s,mg,164900.0,24710.0,5628.0,1596.0,521.0;
 s,mg,188.0,73.01,29.90,12.54,4.306,1.826;
 s,mg,0.7417,0.0761,0.145,0.033,0.0129;
 p,mg,950.70,316.90,74.86,23.72,8.669,3.363;
 p,mg,1.310,0.4911,0.2364,0.08733,0.03237,0.00745;
 d,mg,1.601,0.686,0.126,0.294,0.0468;
 f,mg,1.372,0.588,0.094,0.252;
 }
   {hf,maxit=500;accu,20;}
 {ccsd(t),nocheck,maxit=250;orbital,IGNORE_ERROR;}

 Variables initialized (889), CPU time= 0.00 sec
 Commands  initialized (702), CPU time= 0.01 sec, 572 directives.
 Default parameters read. Elapsed time= 0.07 sec

 Checking input...
 Passed
1


                                         ***  PROGRAM SYSTEM MOLPRO  ***
                                       Copyright, TTI GmbH Stuttgart, 2015
                                    Version 2015.1 linked Jul  9 2018 13:16:40


 **********************************************************************************************************************************
 LABEL *   hno CCSD(T)/TZ-F12 QFF                                                        
  64 bit serial version                                                                  DATE: 04-Mar-20          TIME: 13:48:12  
 **********************************************************************************************************************************

 SHA1:             d5ffa45e93fdbca01ffc919aa182cfdae0147319
 **********************************************************************************************************************************

 THRESHOLDS:

 ZERO    =  1.00D-22  ONEINT  =  1.00D-22  TWOINT  =  1.00D-22  PREFAC  =  1.00D-14  LOCALI  =  1.00D-09  EORDER  =  1.00D-04
 ENERGY  =  1.00D-12  ETEST   =  0.00D+00  EDENS   =  0.00D+00  THRDEDEF=  1.00D-06  GRADIENT=  1.00D-02  STEP    =  1.00D-03
 ORBITAL =  1.00D-05  CIVEC   =  1.00D-05  COEFF   =  1.00D-04  PRINTCI =  5.00D-02  PUNCHCI =  9.90D+01  OPTGRAD =  3.00D-04
 OPTENERG=  1.00D-06  OPTSTEP =  3.00D-04  THRGRAD =  1.00D-10  COMPRESS=  1.00D-11  VARMIN  =  1.00D-07  VARMAX  =  1.00D-03
 THRDOUB =  0.00D+00  THRDIV  =  1.00D-05  THRRED  =  1.00D-07  THRPSP  =  1.00D+00  THRDC   =  1.00D-10  THRCS   =  1.00D-10
 THRNRM  =  1.00D-08  THREQ   =  0.00D+00  THRDE   =  1.00D+00  THRREF  =  1.00D-05  SPARFAC =  1.00D+00  THRDLP  =  1.00D-07
 THRDIA  =  1.00D-10  THRDLS  =  1.00D-07  THRGPS  =  0.00D+00  THRKEX  =  0.00D+00  THRDIS  =  2.00D-01  THRVAR  =  1.00D-10
 THRLOC  =  1.00D-06  THRGAP  =  1.00D-06  THRLOCT = -1.00D+00  THRGAPT = -1.00D+00  THRORB  =  1.00D-06  THRMLTP =  0.00D+00
 THRCPQCI=  1.00D-10  KEXTA   =  0.00D+00  THRCOARS=  0.00D+00  SYMTOL  =  1.00D-06  GRADTOL =  1.00D-06  THROVL  =  1.00D-08
 THRORTH =  1.00D-08  GRID    =  1.00D-06  GRIDMAX =  1.00D-03  DTMAX   =  0.00D+00  THROCCDE=  1.00D-01  THROCCDE=  1.00D-01



 THRESHOLDS:

 ZERO    =  1.00D-22  ONEINT  =  1.00D-22  TWOINT  =  1.00D-22  PREFAC  =  1.00D-14  LOCALI  =  1.00D-09  EORDER  =  1.00D-04
 ENERGY  =  1.00D-12  ETEST   =  0.00D+00  EDENS   =  0.00D+00  THRDEDEF=  1.00D-06  GRADIENT=  1.00D-02  STEP    =  1.00D-03
 ORBITAL =  1.00D-05  CIVEC   =  1.00D-05  COEFF   =  1.00D-04  PRINTCI =  5.00D-02  PUNCHCI =  9.90D+01  OPTGRAD =  1.00D-08
 OPTENERG=  1.00D-06  OPTSTEP =  1.00D-08  THRGRAD =  1.00D-10  COMPRESS=  1.00D-11  VARMIN  =  1.00D-07  VARMAX  =  1.00D-03
 THRDOUB =  0.00D+00  THRDIV  =  1.00D-05  THRRED  =  1.00D-07  THRPSP  =  1.00D+00  THRDC   =  1.00D-10  THRCS   =  1.00D-10
 THRNRM  =  1.00D-08  THREQ   =  0.00D+00  THRDE   =  1.00D+00  THRREF  =  1.00D-05  SPARFAC =  1.00D+00  THRDLP  =  1.00D-07
 THRDIA  =  1.00D-10  THRDLS  =  1.00D-07  THRGPS  =  0.00D+00  THRKEX  =  0.00D+00  THRDIS  =  2.00D-01  THRVAR  =  1.00D-10
 THRLOC  =  1.00D-06  THRGAP  =  1.00D-06  THRLOCT = -1.00D+00  THRGAPT = -1.00D+00  THRORB  =  1.00D-06  THRMLTP =  0.00D+00
 THRCPQCI=  1.00D-10  KEXTA   =  0.00D+00  THRCOARS=  0.00D+00  SYMTOL  =  1.00D-06  GRADTOL =  1.00D-06  THROVL  =  1.00D-08
 THRORTH =  1.00D-08  GRID    =  1.00D-06  GRIDMAX =  1.00D-03  DTMAX   =  0.00D+00  THROCCDE=  1.00D-01  THROCCDE=  1.00D-01



 Input parameters for SORTINT:

 COMPRESS =    0.000000
 C_FINAL  =    1.000000
 DEBUG    =   -1.000000
 C_SORT1  =    0.000000
 C_SEWARD =    0.000000
 THRESH   =    0.000000
 IO       =  molpro                                                          
 SPRI     =    0.000000
 SETTING GEOMTYP        =    XYZ
 ZUNIT=BOHR
 

 Variable memory set to  995000000 words,  buffer space   230000 words

 SETTING BASIS          =    USERDEF


 Recomputing integrals since basis changed


 Using spherical harmonics

 Library entry H      S aug-cc-pVTZ          selected for orbital group  1
 Library entry H      P aug-cc-pVTZ          selected for orbital group  1
 Library entry H      D aug-cc-pVTZ          selected for orbital group  1


 PROGRAM * SEWARD (Integral evaluation for generally contracted gaussian basis sets)     Author: Roland Lindh, 1990

 Geometry written to block  1 of record 700


 Point group  Cs  



 ATOMIC COORDINATES

 NR  ATOM    CHARGE       X              Y              Z

   1  H       1.00    0.000000000    1.671808417   -1.939883470
   2  N       7.00    0.000000000   -0.159721151   -1.142684904
   3  O       8.00    0.000000000    0.029680524    1.131978783

 Bond lengths in Bohr (Angstrom)

 1-2  1.997504972  2-3  2.282535406
     ( 1.057034110)     ( 1.207865720)

 Bond angles

  1-2-3  108.76195129

 NUCLEAR CHARGE:                   16
 NUMBER OF PRIMITIVE AOS:         203
 NUMBER OF SYMMETRY AOS:          173
 NUMBER OF CONTRACTIONS:          171   ( 114A'  +  57A"  )
 NUMBER OF CORE ORBITALS:           2   (   2A'  +   0A"  )
 NUMBER OF VALENCE ORBITALS:        9   (   7A'  +   2A"  )


 NUCLEAR REPULSION ENERGY   30.33520878


 Eigenvalues of metric

         1 0.105E-02 0.249E-02 0.336E-02 0.639E-02 0.100E-01 0.137E-01 0.145E-01 0.233E-01
         2 0.369E-01 0.532E-01 0.700E-01 0.942E-01 0.131E+00 0.134E+00 0.141E+00 0.142E+00


 Contracted 2-electron integrals neglected if value below      1.0D-22

       46150660. INTEGRALS WRITTEN OUT IN   11271 BLOCKS ON RECORD 1290 OF FILE 1


 NUMBER OF SORTED TWO-ELECTRON INTEGRALS:   55360566.     BUFFER LENGTH:  32768
 NUMBER OF SEGMENTS:   4  SEGMENT LENGTH:   15997996      RECORD LENGTH: 524288

 Memory used in sort:      16.56 MW

 SORT1 READ    46150660. AND WROTE    46588135. INTEGRALS IN    136 RECORDS. CPU TIME:     0.76 SEC, REAL TIME:     1.02 SEC
 SORT2 READ    46588135. AND WROTE    55360566. INTEGRALS IN      4 RECORDS. CPU TIME:     0.62 SEC, REAL TIME:     0.83 SEC

 FILE SIZES:   FILE 1:   759.4 MBYTE,  FILE 4:   570.5 MBYTE,   TOTAL:   1329.8 MBYTE

 OPERATOR DM      FOR CENTER  0  COORDINATES:    0.000000    0.000000    0.000000


 **********************************************************************************************************************************
 DATASETS  * FILE   NREC   LENGTH (MB)   RECORD NAMES
              1      19      421.28       500      610      700      900      950      970     1000      129      960     1100   
                                          VAR    BASINP    GEOM    SYMINP    ZMAT    AOBASIS   BASIS     P2S    ABASIS      S 
                                         1400     1410     1200     1210     1080     1600     1650     1300     1700   
                                           T        V       H0       H01     AOSYM     SMH    MOLCAS    ERIS     OPER   

 PROGRAMS   *        TOTAL       INT
 CPU TIMES  *         4.06      3.95
 REAL TIME  *         5.73 SEC
 DISK USED  *         1.33 GB      
 **********************************************************************************************************************************


 PROGRAM * RHF-SCF (CLOSED SHELL)       Authors: W. Meyer, H.-J. Werner


 NUMBER OF ELECTRONS:       8+    8-
 CONVERGENCE THRESHOLDS:    1.00E-10 (Density)    1.00E-13 (Energy)
 MAX. NUMBER OF ITERATIONS:      500
 INTERPOLATION TYPE:            DIIS
 INTERPOLATION STEPS:              2 (START)      1 (STEP)
 LEVEL SHIFTS:                  0.00 (CLOSED)  0.00 (OPEN) 



 Orbital guess generated from atomic densities. Full valence occupancy:    9   2

 Molecular orbital dump at record        2100.2

 Initial occupancy:   7   1

 ITERATION    DDIFF          GRAD             ENERGY        2-EL.EN.            DIPOLE MOMENTS         DIIS   ORB.
    1      0.000D+00      0.000D+00      -129.78891109    153.994480    0.00000    0.57124   -1.01527    0    start
    2      0.000D+00      0.880D-02      -129.81580495    155.177439    0.00000    0.59672   -0.19661    1    diag
    3      0.363D-02      0.670D-02      -129.83873642    155.296109    0.00000    0.54694   -0.58521    2    diag
    4      0.142D-02      0.104D-02      -129.83952218    155.020673    0.00000    0.55473   -0.52268    3    diag
    5      0.331D-03      0.337D-03      -129.83964331    155.109289    0.00000    0.56088   -0.52517    4    diag
    6      0.153D-03      0.992D-04      -129.83966311    155.093142    0.00000    0.56145   -0.52103    5    diag
    7      0.609D-04      0.497D-04      -129.83966893    155.095708    0.00000    0.56281   -0.51853    6    diag
    8      0.413D-04      0.171D-04      -129.83966956    155.094883    0.00000    0.56286   -0.51762    7    diag
    9      0.143D-04      0.319D-05      -129.83966959    155.094767    0.00000    0.56281   -0.51744    8    diag
   10      0.290D-05      0.731D-06      -129.83966959    155.094752    0.00000    0.56278   -0.51741    9    orth
   11      0.865D-06      0.145D-06      -129.83966959    155.094748    0.00000    0.56277   -0.51741    9    diag
   12      0.205D-06      0.301D-07      -129.83966959    155.094747    0.00000    0.56276   -0.51741    9    diag
   13      0.502D-07      0.797D-08      -129.83966959    155.094747    0.00000    0.56276   -0.51741    9    diag
   14      0.117D-07      0.141D-08      -129.83966959    155.094747    0.00000    0.56276   -0.51741    9    diag
   15      0.150D-08      0.379D-09      -129.83966959    155.094747    0.00000    0.56276   -0.51741    9    diag
   16      0.332D-09      0.111D-09      -129.83966959    155.094747    0.00000    0.56276   -0.51741    9    diag
   17      0.768D-10      0.310D-10      -129.83966959    155.094747    0.00000    0.56276   -0.51741    9    diag
   18      0.245D-10      0.104D-10      -129.83966959    155.094747    0.00000    0.56276   -0.51741    9    diag
   19      0.100D-10      0.250D-11      -129.83966959    155.094747    0.00000    0.56276   -0.51741    9    fixocc
   20      0.255D-11      0.596D-12      -129.83966959    155.094747    0.00000    0.56276   -0.51741    9    orth
   21      0.382D-12      0.362D-12      -129.83966959    155.094747    0.00000    0.56276   -0.51741    0    orth

 Final occupancy:   7   1

 !RHF STATE 1.1 Energy               -129.839669587221
 Nuclear energy                        30.33520878
 One-electron energy                 -237.72225174
 Two-electron energy                   77.54737337
 Virial quotient                       -1.00170552
 !RHF STATE 1.1 Dipole moment           0.00000000     0.56276452    -0.51740542
 Dipole moment /Debye                   0.00000000     1.43031105    -1.31502728

 Orbital energies:

         1.1          2.1          3.1          4.1          5.1          6.1          7.1          8.1          9.1
    -20.651511   -15.711156    -1.527782    -0.991987    -0.744650    -0.664373    -0.428034     0.039620     0.192307

         1.2          2.2          3.2
     -0.594260     0.078994     0.239553

 HOMO      7.1    -0.428034 =     -11.6474eV
 LUMO      8.1     0.039620 =       1.0781eV
 LUMO-HOMO         0.467654 =      12.7255eV


 **********************************************************************************************************************************
 DATASETS  * FILE   NREC   LENGTH (MB)   RECORD NAMES
              1      19      421.28       500      610      700      900      950      970     1000      129      960     1100   
                                          VAR    BASINP    GEOM    SYMINP    ZMAT    AOBASIS   BASIS     P2S    ABASIS      S 
                                         1400     1410     1200     1210     1080     1600     1650     1300     1700   
                                           T        V       H0       H01     AOSYM     SMH    MOLCAS    ERIS     OPER   

              2       4        3.13       700     1000      520     2100   
                                         GEOM     BASIS   MCVARS     RHF  

 PROGRAMS   *        TOTAL        HF       INT
 CPU TIMES  *         9.27      5.20      3.95
 REAL TIME  *        12.01 SEC
 DISK USED  *         1.33 GB      
 **********************************************************************************************************************************


 PROGRAM * CCSD (Closed-shell coupled cluster)     Authors: C. Hampel, H.-J. Werner, 1991, M. Deegan, P.J. Knowles, 1992


 Convergence thresholds:  THRVAR = 1.00D-08  THRDEN = 1.00D-12

 CCSD(T)     terms to be evaluated (factor= 1.000)


 Number of core orbitals:           2 (   2   0 )
 Number of closed-shell orbitals:   6 (   5   1 )
 Number of external orbitals:     163 ( 107  56 )

 Molecular orbitals read from record     2100.2  Type=RHF/CANONICAL (state 1.1)

 Number of N-1 electron functions:               6
 Number of N-2 electron functions:              21
 Number of singly external CSFs:               591
 Number of doubly external CSFs:            250014
 Total number of CSFs:                      250606

 Length of J-op  integral file:               0.00 MB
 Length of K-op  integral file:               1.15 MB
 Length of 3-ext integral record:             0.00 MB

 Memory could be reduced to 19.93 Mwords without degradation in triples

 Integral transformation finished. Total CPU:   0.69 sec, npass=  1  Memory used:   5.10 MW

 Reference energy:                   -129.83966959

 MP2 singlet pair energy:              -0.28697460
 MP2 triplet pair energy:              -0.16724782
 MP2 correlation energy:               -0.45422242
 MP2 total energy:                   -130.29389201

 SCS-MP2 correlation energy:           -0.44843483   (PS=  1.200000  PT=  0.333333)
 SCS-MP2 total energy:               -130.28810441

 ITER.      SQ.NORM     CORR.ENERGY   TOTAL ENERGY   ENERGY CHANGE        DEN1      VAR(S)    VAR(P)  DIIS     TIME  TIME/IT
   1      1.11897300    -0.45634914  -130.29601872    -0.00212672     0.01468507  0.32D-02  0.31D-02  1  1     1.26     0.63
   2      1.12953179    -0.45626359  -130.29593318     0.00008554    -0.01253971  0.12D-03  0.50D-03  2  2     1.84     0.64
   3      1.13613190    -0.45664071  -130.29631029    -0.00037712    -0.00337889  0.45D-04  0.58D-04  3  3     2.42     0.65
   4      1.13901714    -0.45667180  -130.29634138    -0.00003109    -0.00095080  0.45D-05  0.98D-05  4  4     2.99     0.65
   5      1.14010960    -0.45670467  -130.29637425    -0.00003287    -0.00022246  0.14D-05  0.18D-05  5  5     3.59     0.65
   6      1.14051223    -0.45668880  -130.29635839     0.00001587    -0.00006657  0.13D-06  0.43D-06  6  6     4.16     0.65
   7      1.14058716    -0.45669023  -130.29635982    -0.00000143     0.00000841  0.18D-07  0.94D-07  6  1     4.75     0.65
   8      1.14062253    -0.45668979  -130.29635938     0.00000044    -0.00000471  0.49D-08  0.15D-07  6  2     5.35     0.65
   9      1.14062836    -0.45668965  -130.29635923     0.00000015     0.00000087  0.22D-08  0.17D-08  6  3     5.95     0.66
  10      1.14062874    -0.45668998  -130.29635957    -0.00000034    -0.00000021  0.50D-09  0.26D-09  6  4     6.55     0.66
  11      1.14062720    -0.45669013  -130.29635971    -0.00000014     0.00000035  0.12D-09  0.27D-10  6  5     7.11     0.66
  12      1.14062601    -0.45669028  -130.29635986    -0.00000015     0.00000048  0.16D-10  0.78D-11  6  6     7.69     0.66
  13      1.14062534    -0.45669030  -130.29635988    -0.00000002     0.00000013  0.63D-11  0.14D-11  6  1     8.29     0.66
  14      1.14062481    -0.45669032  -130.29635991    -0.00000003     0.00000012  0.57D-12  0.46D-12  6  3     8.87     0.66
  15      1.14062465    -0.45669032  -130.29635991     0.00000000     0.00000001  0.15D-12  0.32D-13  6  2     9.49     0.66
  16      1.14062460    -0.45669033  -130.29635991    -0.00000000     0.00000001  0.34D-13  0.78D-14  6  4    10.08     0.66
  17      1.14062457    -0.45669033  -130.29635992    -0.00000000     0.00000001  0.42D-14  0.12D-14  6  5    10.67     0.66
  18      1.14062457    -0.45669033  -130.29635992     0.00000000     0.00000000  0.46D-15  0.33D-15  6  6    11.26     0.66
  19      1.14062458    -0.45669033  -130.29635991     0.00000000    -0.00000000  0.62D-16  0.41D-16  6  1    11.85     0.66
  20      1.14062458    -0.45669033  -130.29635991     0.00000000    -0.00000000  0.34D-17  0.93D-17  6  3    12.42     0.66
  21      1.14062458    -0.45669033  -130.29635991     0.00000000    -0.00000000  0.52D-18  0.19D-17  6  4    13.01     0.66
  22      1.14062458    -0.45669033  -130.29635991     0.00000000    -0.00000000  0.16D-19  0.68D-18  6  2    13.58     0.66
  23      1.14062458    -0.45669033  -130.29635991    -0.00000000     0.00000000  0.46D-19  0.15D-18  6  5    14.19     0.66
  24      1.14062458    -0.45669033  -130.29635991    -0.00000000     0.00000000  0.47D-20  0.14D-19  6  1    14.78     0.66
  25      1.14062458    -0.45669033  -130.29635991     0.00000000    -0.00000000  0.20D-20  0.93D-21  6  6    15.38     0.66

 Norm of t1 vector:      0.07761316      S-energy:     0.00000000      T1 diagnostic:  0.01584272
                                                                       D1 diagnostic:  0.04304086

 Doubles amplitudes (print threshold =  0.500E-01):

         I         J         SYM. A    SYM. B    A         B      T(IJ, AB)

         6         6         2         2         1         1     -0.13525945


 Total CPU time for triples:      7.09 sec


 RESULTS
 =======

  Reference energy                   -129.839669587221
  CCSD singlet pair energy             -0.313682097758
  CCSD triplet pair energy             -0.143008229619
  CCSD correlation energy              -0.456690327377

  Triples (T) contribution             -0.021234019135
  Total correlation energy             -0.477924346511

  CCSD total energy                  -130.296359914598
  CCSD[T] energy                     -130.318697655380
  CCSD-T energy                      -130.317177217932
 !CCSD(T) total energy               -130.317593933733

 Timing summary (sec):

 STEP                 CPU(USER)    SYS     CPU(TOT)    WALL
 Transformation          0.69      0.12      0.81      0.81
 CCSD iterations        14.70      1.78     16.48     16.49
 Triples                 7.09      0.25      7.34      7.34

 Program statistics:

 Available memory in ccsd:               994999756
 Min. memory needed in ccsd:                887758
 Max. memory used in ccsd:                 1088212
 Max. memory used in cckext:               1535578 (25 integral passes)



 **********************************************************************************************************************************
 DATASETS  * FILE   NREC   LENGTH (MB)   RECORD NAMES
              1      20      479.24       500      610      700      900      950      970     1000      129      960     1100   
                                          VAR    BASINP    GEOM    SYMINP    ZMAT    AOBASIS   BASIS     P2S    ABASIS      S 
                                         1400     1410     1200     1210     1080     1600     1650     1300     1700     1380   
                                           T        V       H0       H01     AOSYM     SMH    MOLCAS    ERIS     OPER     JKOP   

              2       4        3.13       700     1000      520     2100   
                                         GEOM     BASIS   MCVARS     RHF  

 PROGRAMS   *        TOTAL   CCSD(T)        HF       INT
 CPU TIMES  *        31.80     22.52      5.20      3.95
 REAL TIME  *        37.76 SEC
 DISK USED  *         1.33 GB      
 **********************************************************************************************************************************

 CCSD(T)/USERDEF energy=   -130.317593933733

        CCSD(T)         HF-SCF  
   -130.31759393   -129.83966959
 **********************************************************************************************************************************
 Molpro calculation terminated
 Variable memory released
