
 Primary working directories    : /tmp/r2666/282282.maple
 Secondary working directories  : /tmp/r2666/282282.maple
 Wavefunction directory         : /ddn/home4/r2666/wfu/
 Main file repository           : /tmp/r2666/282282.maple/

 SHA1      : d5ffa45e93fdbca01ffc919aa182cfdae0147319
 NAME      : 2015.1.35
 ARCHNAME  : linux/x86_64
 FC        : /opt/intel/composer_xe_2015.1.133/bin/intel64/ifort
 BLASLIB   : -Wl,-_start-group /opt/intel/mkl/lib/intel64/libmkl_intel_ilp64.a /opt/intel/mkl/lib/intel64/libmkl_intel_thread.a /opt/intel/mkl/lib/intel64/libmkl_core.a -Wl,-_end-group
 id        : olemiss

 Nodes     nprocs
 cn079        1

 Using customized tuning parameters: mindgm=1; mindgv=20; mindgc=4; mindgr=1; noblas=0; minvec=7
 default implementation of scratch files=df  

 ***,hno CCSD(T)/TZ-F12 QFF
 memory, 995, m;
 gthresh,energy=1.d-12,zero=1.d-22,oneint=1.d-22,twoint=1.d-22;
 gthresh,optgrad=1.d-8,optstep=1.d-8;
 nocompress;
 geomtyp=xyz
 bohr
 geometry={
 3
         50        50
 H        0.0000000000        1.6648039328       -1.9177632981
 N        0.0000000000       -0.1662326794       -1.1433777712
 O        0.0000000000        0.0431965366        1.1105514783
 }
 
 basis={
 default=aug-cc-pvtz
 s,C,8236.0,1235.0,280.8, 79.27,25.59, 8.997,3.319
 s,C,0.9059,0.3643,0.1285000
 p,C,56.0,18.71,4.133,0.2827,0.3827,0.1209
 d,C,30.0,10.0,3.3,1.097,0.318
 f,C,7.0,2.3,0.7610
 s,N,11420.0,1712.0,389.3,110.0,35.57,12.54,4.644
 s,N,1.293,0.5118,0.1787
 p,N,79.89,26.63,5.948,1.742,0.555,0.1725
 d,N,45.0,15.0,5.0,1.654,0.469
 f,N,9.9,3.3,1.093
 s,O,15330.0,2299.0,522.4,147.3,47.55,16.76,6.207
 s,O,1.752,0.6882,0.2384
 p,O,103.5,34.46,7.749,2.28,0.7156,0.214
 d,O,63.0,21.0,7.0,2.314,0.645
 f,O,12.9,4.3,1.428
 s,mg,164900.0,24710.0,5628.0,1596.0,521.0;
 s,mg,188.0,73.01,29.90,12.54,4.306,1.826;
 s,mg,0.7417,0.0761,0.145,0.033,0.0129;
 p,mg,950.70,316.90,74.86,23.72,8.669,3.363;
 p,mg,1.310,0.4911,0.2364,0.08733,0.03237,0.00745;
 d,mg,1.601,0.686,0.126,0.294,0.0468;
 f,mg,1.372,0.588,0.094,0.252;
 }
   {hf,maxit=500;accu,20;}
 {ccsd(t),nocheck,maxit=250;orbital,IGNORE_ERROR;}

 Variables initialized (889), CPU time= 0.01 sec
 Commands  initialized (702), CPU time= 0.02 sec, 572 directives.
 Default parameters read. Elapsed time= 0.08 sec

 Checking input...
 Passed
1


                                         ***  PROGRAM SYSTEM MOLPRO  ***
                                       Copyright, TTI GmbH Stuttgart, 2015
                                    Version 2015.1 linked Jul  9 2018 13:16:40


 **********************************************************************************************************************************
 LABEL *   hno CCSD(T)/TZ-F12 QFF                                                        
  64 bit serial version                                                                  DATE: 04-Mar-20          TIME: 13:47:32  
 **********************************************************************************************************************************

 SHA1:             d5ffa45e93fdbca01ffc919aa182cfdae0147319
 **********************************************************************************************************************************

 THRESHOLDS:

 ZERO    =  1.00D-22  ONEINT  =  1.00D-22  TWOINT  =  1.00D-22  PREFAC  =  1.00D-14  LOCALI  =  1.00D-09  EORDER  =  1.00D-04
 ENERGY  =  1.00D-12  ETEST   =  0.00D+00  EDENS   =  0.00D+00  THRDEDEF=  1.00D-06  GRADIENT=  1.00D-02  STEP    =  1.00D-03
 ORBITAL =  1.00D-05  CIVEC   =  1.00D-05  COEFF   =  1.00D-04  PRINTCI =  5.00D-02  PUNCHCI =  9.90D+01  OPTGRAD =  3.00D-04
 OPTENERG=  1.00D-06  OPTSTEP =  3.00D-04  THRGRAD =  1.00D-10  COMPRESS=  1.00D-11  VARMIN  =  1.00D-07  VARMAX  =  1.00D-03
 THRDOUB =  0.00D+00  THRDIV  =  1.00D-05  THRRED  =  1.00D-07  THRPSP  =  1.00D+00  THRDC   =  1.00D-10  THRCS   =  1.00D-10
 THRNRM  =  1.00D-08  THREQ   =  0.00D+00  THRDE   =  1.00D+00  THRREF  =  1.00D-05  SPARFAC =  1.00D+00  THRDLP  =  1.00D-07
 THRDIA  =  1.00D-10  THRDLS  =  1.00D-07  THRGPS  =  0.00D+00  THRKEX  =  0.00D+00  THRDIS  =  2.00D-01  THRVAR  =  1.00D-10
 THRLOC  =  1.00D-06  THRGAP  =  1.00D-06  THRLOCT = -1.00D+00  THRGAPT = -1.00D+00  THRORB  =  1.00D-06  THRMLTP =  0.00D+00
 THRCPQCI=  1.00D-10  KEXTA   =  0.00D+00  THRCOARS=  0.00D+00  SYMTOL  =  1.00D-06  GRADTOL =  1.00D-06  THROVL  =  1.00D-08
 THRORTH =  1.00D-08  GRID    =  1.00D-06  GRIDMAX =  1.00D-03  DTMAX   =  0.00D+00  THROCCDE=  1.00D-01  THROCCDE=  1.00D-01



 THRESHOLDS:

 ZERO    =  1.00D-22  ONEINT  =  1.00D-22  TWOINT  =  1.00D-22  PREFAC  =  1.00D-14  LOCALI  =  1.00D-09  EORDER  =  1.00D-04
 ENERGY  =  1.00D-12  ETEST   =  0.00D+00  EDENS   =  0.00D+00  THRDEDEF=  1.00D-06  GRADIENT=  1.00D-02  STEP    =  1.00D-03
 ORBITAL =  1.00D-05  CIVEC   =  1.00D-05  COEFF   =  1.00D-04  PRINTCI =  5.00D-02  PUNCHCI =  9.90D+01  OPTGRAD =  1.00D-08
 OPTENERG=  1.00D-06  OPTSTEP =  1.00D-08  THRGRAD =  1.00D-10  COMPRESS=  1.00D-11  VARMIN  =  1.00D-07  VARMAX  =  1.00D-03
 THRDOUB =  0.00D+00  THRDIV  =  1.00D-05  THRRED  =  1.00D-07  THRPSP  =  1.00D+00  THRDC   =  1.00D-10  THRCS   =  1.00D-10
 THRNRM  =  1.00D-08  THREQ   =  0.00D+00  THRDE   =  1.00D+00  THRREF  =  1.00D-05  SPARFAC =  1.00D+00  THRDLP  =  1.00D-07
 THRDIA  =  1.00D-10  THRDLS  =  1.00D-07  THRGPS  =  0.00D+00  THRKEX  =  0.00D+00  THRDIS  =  2.00D-01  THRVAR  =  1.00D-10
 THRLOC  =  1.00D-06  THRGAP  =  1.00D-06  THRLOCT = -1.00D+00  THRGAPT = -1.00D+00  THRORB  =  1.00D-06  THRMLTP =  0.00D+00
 THRCPQCI=  1.00D-10  KEXTA   =  0.00D+00  THRCOARS=  0.00D+00  SYMTOL  =  1.00D-06  GRADTOL =  1.00D-06  THROVL  =  1.00D-08
 THRORTH =  1.00D-08  GRID    =  1.00D-06  GRIDMAX =  1.00D-03  DTMAX   =  0.00D+00  THROCCDE=  1.00D-01  THROCCDE=  1.00D-01



 Input parameters for SORTINT:

 COMPRESS =    0.000000
 C_FINAL  =    1.000000
 DEBUG    =   -1.000000
 C_SORT1  =    0.000000
 C_SEWARD =    0.000000
 THRESH   =    0.000000
 IO       =  molpro                                                          
 SPRI     =    0.000000
 SETTING GEOMTYP        =    XYZ
 ZUNIT=BOHR
 

 Variable memory set to  995000000 words,  buffer space   230000 words

 SETTING BASIS          =    USERDEF


 Recomputing integrals since basis changed


 Using spherical harmonics

 Library entry H      S aug-cc-pVTZ          selected for orbital group  1
 Library entry H      P aug-cc-pVTZ          selected for orbital group  1
 Library entry H      D aug-cc-pVTZ          selected for orbital group  1


 PROGRAM * SEWARD (Integral evaluation for generally contracted gaussian basis sets)     Author: Roland Lindh, 1990

 Geometry written to block  1 of record 700


 Point group  Cs  



 ATOMIC COORDINATES

 NR  ATOM    CHARGE       X              Y              Z

   1  H       1.00    0.000000000    1.664803933   -1.917763298
   2  N       7.00    0.000000000   -0.166232679   -1.143377771
   3  O       8.00    0.000000000    0.043196537    1.110551478

 Bond lengths in Bohr (Angstrom)

 1-2  1.988056342  2-3  2.263638146
     ( 1.052034110)     ( 1.197865721)

 Bond angles

  1-2-3  107.61603569

 NUCLEAR CHARGE:                   16
 NUMBER OF PRIMITIVE AOS:         203
 NUMBER OF SYMMETRY AOS:          173
 NUMBER OF CONTRACTIONS:          171   ( 114A'  +  57A"  )
 NUMBER OF CORE ORBITALS:           2   (   2A'  +   0A"  )
 NUMBER OF VALENCE ORBITALS:        9   (   7A'  +   2A"  )


 NUCLEAR REPULSION ENERGY   30.58882365


 Eigenvalues of metric

         1 0.103E-02 0.241E-02 0.328E-02 0.631E-02 0.985E-02 0.136E-01 0.144E-01 0.228E-01
         2 0.363E-01 0.516E-01 0.695E-01 0.939E-01 0.131E+00 0.134E+00 0.140E+00 0.142E+00


 Contracted 2-electron integrals neglected if value below      1.0D-22

       46229836. INTEGRALS WRITTEN OUT IN   11290 BLOCKS ON RECORD 1290 OF FILE 1


 NUMBER OF SORTED TWO-ELECTRON INTEGRALS:   55360566.     BUFFER LENGTH:  32768
 NUMBER OF SEGMENTS:   4  SEGMENT LENGTH:   15997996      RECORD LENGTH: 524288

 Memory used in sort:      16.56 MW

 SORT1 READ    46229836. AND WROTE    46668117. INTEGRALS IN    136 RECORDS. CPU TIME:     0.74 SEC, REAL TIME:     1.02 SEC
 SORT2 READ    46668117. AND WROTE    55360566. INTEGRALS IN      4 RECORDS. CPU TIME:     0.66 SEC, REAL TIME:     0.86 SEC

 FILE SIZES:   FILE 1:   760.6 MBYTE,  FILE 4:   570.5 MBYTE,   TOTAL:   1331.1 MBYTE

 OPERATOR DM      FOR CENTER  0  COORDINATES:    0.000000    0.000000    0.000000


 **********************************************************************************************************************************
 DATASETS  * FILE   NREC   LENGTH (MB)   RECORD NAMES
              1      19      421.81       500      610      700      900      950      970     1000      129      960     1100   
                                          VAR    BASINP    GEOM    SYMINP    ZMAT    AOBASIS   BASIS     P2S    ABASIS      S 
                                         1400     1410     1200     1210     1080     1600     1650     1300     1700   
                                           T        V       H0       H01     AOSYM     SMH    MOLCAS    ERIS     OPER   

 PROGRAMS   *        TOTAL       INT
 CPU TIMES  *         4.17      4.03
 REAL TIME  *         5.69 SEC
 DISK USED  *         1.33 GB      
 **********************************************************************************************************************************


 PROGRAM * RHF-SCF (CLOSED SHELL)       Authors: W. Meyer, H.-J. Werner


 NUMBER OF ELECTRONS:       8+    8-
 CONVERGENCE THRESHOLDS:    1.00E-10 (Density)    1.00E-13 (Energy)
 MAX. NUMBER OF ITERATIONS:      500
 INTERPOLATION TYPE:            DIIS
 INTERPOLATION STEPS:              2 (START)      1 (STEP)
 LEVEL SHIFTS:                  0.00 (CLOSED)  0.00 (OPEN) 



 Orbital guess generated from atomic densities. Full valence occupancy:    9   2

 Molecular orbital dump at record        2100.2

 Initial occupancy:   7   1

 ITERATION    DDIFF          GRAD             ENERGY        2-EL.EN.            DIPOLE MOMENTS         DIIS   ORB.
    1      0.000D+00      0.000D+00      -129.79188803    154.456575    0.00000    0.55996   -0.97997    0    start
    2      0.000D+00      0.869D-02      -129.81908989    155.647059    0.00000    0.59121   -0.19860    1    diag
    3      0.359D-02      0.646D-02      -129.84028960    155.746816    0.00000    0.53921   -0.56651    2    diag
    4      0.138D-02      0.102D-02      -129.84105000    155.479985    0.00000    0.54783   -0.50610    3    diag
    5      0.326D-03      0.332D-03      -129.84116682    155.566998    0.00000    0.55380   -0.50866    4    diag
    6      0.152D-03      0.975D-04      -129.84118582    155.551033    0.00000    0.55441   -0.50472    5    diag
    7      0.603D-04      0.484D-04      -129.84119127    155.553677    0.00000    0.55577   -0.50234    6    diag
    8      0.406D-04      0.161D-04      -129.84119181    155.552892    0.00000    0.55583   -0.50150    7    diag
    9      0.133D-04      0.296D-05      -129.84119183    155.552788    0.00000    0.55578   -0.50133    8    diag
   10      0.265D-05      0.687D-06      -129.84119183    155.552775    0.00000    0.55574   -0.50131    9    orth
   11      0.826D-06      0.139D-06      -129.84119183    155.552771    0.00000    0.55574   -0.50130    9    diag
   12      0.200D-06      0.284D-07      -129.84119183    155.552770    0.00000    0.55573   -0.50130    9    diag
   13      0.488D-07      0.740D-08      -129.84119183    155.552770    0.00000    0.55573   -0.50130    9    diag
   14      0.111D-07      0.134D-08      -129.84119183    155.552770    0.00000    0.55573   -0.50130    9    diag
   15      0.153D-08      0.375D-09      -129.84119183    155.552770    0.00000    0.55573   -0.50130    9    diag
   16      0.336D-09      0.117D-09      -129.84119183    155.552770    0.00000    0.55573   -0.50130    9    diag
   17      0.913D-10      0.344D-10      -129.84119183    155.552770    0.00000    0.55573   -0.50130    9    diag
   18      0.303D-10      0.110D-10      -129.84119183    155.552770    0.00000    0.55573   -0.50130    9    diag
   19      0.109D-10      0.270D-11      -129.84119183    155.552770    0.00000    0.55573   -0.50130    9    fixocc
   20      0.256D-11      0.764D-12      -129.84119183    155.552770    0.00000    0.55573   -0.50130    0    orth

 Final occupancy:   7   1

 !RHF STATE 1.1 Energy               -129.841191831472
 Nuclear energy                        30.58882365
 One-electron energy                 -238.20640044
 Two-electron energy                   77.77638495
 Virial quotient                       -1.00130670
 !RHF STATE 1.1 Dipole moment           0.00000000     0.55573392    -0.50130264
 Dipole moment /Debye                   0.00000000     1.41244222    -1.27410075

 Orbital energies:

         1.1          2.1          3.1          4.1          5.1          6.1          7.1          8.1          9.1
    -20.650202   -15.709020    -1.536727    -0.990232    -0.748384    -0.667056    -0.426037     0.039926     0.193362

         1.2          2.2          3.2
     -0.599158     0.082778     0.239817

 HOMO      7.1    -0.426037 =     -11.5930eV
 LUMO      8.1     0.039926 =       1.0864eV
 LUMO-HOMO         0.465963 =      12.6795eV


 **********************************************************************************************************************************
 DATASETS  * FILE   NREC   LENGTH (MB)   RECORD NAMES
              1      19      421.81       500      610      700      900      950      970     1000      129      960     1100   
                                          VAR    BASINP    GEOM    SYMINP    ZMAT    AOBASIS   BASIS     P2S    ABASIS      S 
                                         1400     1410     1200     1210     1080     1600     1650     1300     1700   
                                           T        V       H0       H01     AOSYM     SMH    MOLCAS    ERIS     OPER   

              2       4        3.13       700     1000      520     2100   
                                         GEOM     BASIS   MCVARS     RHF  

 PROGRAMS   *        TOTAL        HF       INT
 CPU TIMES  *         9.08      4.91      4.03
 REAL TIME  *        11.71 SEC
 DISK USED  *         1.33 GB      
 **********************************************************************************************************************************


 PROGRAM * CCSD (Closed-shell coupled cluster)     Authors: C. Hampel, H.-J. Werner, 1991, M. Deegan, P.J. Knowles, 1992


 Convergence thresholds:  THRVAR = 1.00D-08  THRDEN = 1.00D-12

 CCSD(T)     terms to be evaluated (factor= 1.000)


 Number of core orbitals:           2 (   2   0 )
 Number of closed-shell orbitals:   6 (   5   1 )
 Number of external orbitals:     163 ( 107  56 )

 Molecular orbitals read from record     2100.2  Type=RHF/CANONICAL (state 1.1)

 Number of N-1 electron functions:               6
 Number of N-2 electron functions:              21
 Number of singly external CSFs:               591
 Number of doubly external CSFs:            250014
 Total number of CSFs:                      250606

 Length of J-op  integral file:               0.00 MB
 Length of K-op  integral file:               1.15 MB
 Length of 3-ext integral record:             0.00 MB

 Memory could be reduced to 19.93 Mwords without degradation in triples

 Integral transformation finished. Total CPU:   0.64 sec, npass=  1  Memory used:   5.10 MW

 Reference energy:                   -129.84119183

 MP2 singlet pair energy:              -0.28586074
 MP2 triplet pair energy:              -0.16651670
 MP2 correlation energy:               -0.45237744
 MP2 total energy:                   -130.29356927

 SCS-MP2 correlation energy:           -0.44664328   (PS=  1.200000  PT=  0.333333)
 SCS-MP2 total energy:               -130.28783511

 ITER.      SQ.NORM     CORR.ENERGY   TOTAL ENERGY   ENERGY CHANGE        DEN1      VAR(S)    VAR(P)  DIIS     TIME  TIME/IT
   1      1.11771026    -0.45488508  -130.29607691    -0.00250764     0.01380931  0.31D-02  0.30D-02  1  1     1.25     0.64
   2      1.12797077    -0.45488809  -130.29607992    -0.00000301    -0.01224874  0.11D-03  0.48D-03  2  2     1.86     0.67
   3      1.13432119    -0.45524560  -130.29643743    -0.00035751    -0.00330180  0.41D-04  0.55D-04  3  3     2.45     0.67
   4      1.13706360    -0.45527684  -130.29646867    -0.00003123    -0.00091185  0.41D-05  0.91D-05  4  4     3.04     0.67
   5      1.13807086    -0.45530698  -130.29649881    -0.00003014    -0.00020644  0.13D-05  0.17D-05  5  5     3.64     0.67
   6      1.13844608    -0.45529242  -130.29648425     0.00001456    -0.00006218  0.12D-06  0.41D-06  6  6     4.25     0.68
   7      1.13851795    -0.45529381  -130.29648564    -0.00000139     0.00000784  0.17D-07  0.88D-07  6  1     4.85     0.68
   8      1.13855155    -0.45529349  -130.29648532     0.00000033    -0.00000433  0.48D-08  0.13D-07  6  2     5.43     0.68
   9      1.13855674    -0.45529339  -130.29648522     0.00000010     0.00000077  0.20D-08  0.14D-08  6  3     6.04     0.68
  10      1.13855705    -0.45529370  -130.29648553    -0.00000031    -0.00000017  0.45D-09  0.22D-09  6  4     6.64     0.68
  11      1.13855560    -0.45529383  -130.29648566    -0.00000013     0.00000033  0.11D-09  0.22D-10  6  5     7.25     0.68
  12      1.13855451    -0.45529396  -130.29648579    -0.00000014     0.00000044  0.14D-10  0.66D-11  6  6     7.87     0.68
  13      1.13855391    -0.45529398  -130.29648581    -0.00000002     0.00000012  0.54D-11  0.12D-11  6  1     8.47     0.68
  14      1.13855343    -0.45529401  -130.29648584    -0.00000003     0.00000011  0.52D-12  0.38D-12  6  3     9.09     0.68
  15      1.13855329    -0.45529401  -130.29648584     0.00000000     0.00000001  0.13D-12  0.27D-13  6  2     9.69     0.68
  16      1.13855325    -0.45529401  -130.29648584    -0.00000000     0.00000001  0.29D-13  0.67D-14  6  4    10.33     0.68
  17      1.13855323    -0.45529401  -130.29648584    -0.00000000     0.00000001  0.35D-14  0.11D-14  6  5    10.92     0.68
  18      1.13855323    -0.45529401  -130.29648584     0.00000000     0.00000000  0.38D-15  0.28D-15  6  6    11.49     0.68
  19      1.13855323    -0.45529401  -130.29648584     0.00000000    -0.00000000  0.49D-16  0.32D-16  6  1    12.10     0.68
  20      1.13855323    -0.45529401  -130.29648584     0.00000000    -0.00000000  0.26D-17  0.72D-17  6  3    12.70     0.68
  21      1.13855323    -0.45529401  -130.29648584     0.00000000    -0.00000000  0.43D-18  0.15D-17  6  4    13.31     0.68
  22      1.13855323    -0.45529401  -130.29648584     0.00000000    -0.00000000  0.14D-19  0.51D-18  6  2    13.94     0.68
  23      1.13855323    -0.45529401  -130.29648584    -0.00000000     0.00000000  0.31D-19  0.11D-18  6  5    14.55     0.68
  24      1.13855323    -0.45529401  -130.29648584    -0.00000000     0.00000000  0.40D-20  0.10D-19  6  1    15.19     0.68
  25      1.13855323    -0.45529401  -130.29648584     0.00000000    -0.00000000  0.16D-20  0.68D-21  6  6    15.80     0.68

 Norm of t1 vector:      0.07547924      S-energy:     0.00000000      T1 diagnostic:  0.01540713
                                                                       D1 diagnostic:  0.04165329

 Doubles amplitudes (print threshold =  0.500E-01):

         I         J         SYM. A    SYM. B    A         B      T(IJ, AB)

         6         6         2         2         1         1     -0.13245469


 Total CPU time for triples:      7.27 sec


 RESULTS
 =======

  Reference energy                   -129.841191831471
  CCSD singlet pair energy             -0.312458363742
  CCSD triplet pair energy             -0.142835643631
  CCSD correlation energy              -0.455294007373

  Triples (T) contribution             -0.020886204415
  Total correlation energy             -0.476180211788

  CCSD total energy                  -130.296485838844
  CCSD[T] energy                     -130.318421260763
  CCSD-T energy                      -130.316970210222
 !CCSD(T) total energy               -130.317372043259

 Timing summary (sec):

 STEP                 CPU(USER)    SYS     CPU(TOT)    WALL
 Transformation          0.65      0.15      0.80      0.82
 CCSD iterations        15.15      1.97     17.12     17.12
 Triples                 7.27      0.22      7.49      7.48

 Program statistics:

 Available memory in ccsd:               994999756
 Min. memory needed in ccsd:                887758
 Max. memory used in ccsd:                 1088212
 Max. memory used in cckext:               1535578 (25 integral passes)



 **********************************************************************************************************************************
 DATASETS  * FILE   NREC   LENGTH (MB)   RECORD NAMES
              1      20      479.76       500      610      700      900      950      970     1000      129      960     1100   
                                          VAR    BASINP    GEOM    SYMINP    ZMAT    AOBASIS   BASIS     P2S    ABASIS      S 
                                         1400     1410     1200     1210     1080     1600     1650     1300     1700     1380   
                                           T        V       H0       H01     AOSYM     SMH    MOLCAS    ERIS     OPER     JKOP   

              2       4        3.13       700     1000      520     2100   
                                         GEOM     BASIS   MCVARS     RHF  

 PROGRAMS   *        TOTAL   CCSD(T)        HF       INT
 CPU TIMES  *        32.19     23.10      4.91      4.03
 REAL TIME  *        37.23 SEC
 DISK USED  *         1.33 GB      
 **********************************************************************************************************************************

 CCSD(T)/USERDEF energy=   -130.317372043259

        CCSD(T)         HF-SCF  
   -130.31737204   -129.84119183
 **********************************************************************************************************************************
 Molpro calculation terminated
 Variable memory released
