
 Primary working directories    : /tmp/r2666/282273.maple
 Secondary working directories  : /tmp/r2666/282273.maple
 Wavefunction directory         : /ddn/home4/r2666/wfu/
 Main file repository           : /tmp/r2666/282273.maple/

 SHA1      : d5ffa45e93fdbca01ffc919aa182cfdae0147319
 NAME      : 2015.1.35
 ARCHNAME  : linux/x86_64
 FC        : /opt/intel/composer_xe_2015.1.133/bin/intel64/ifort
 BLASLIB   : -Wl,-_start-group /opt/intel/mkl/lib/intel64/libmkl_intel_ilp64.a /opt/intel/mkl/lib/intel64/libmkl_intel_thread.a /opt/intel/mkl/lib/intel64/libmkl_core.a -Wl,-_end-group
 id        : olemiss

 Nodes     nprocs
 cn053        1

 Using customized tuning parameters: mindgm=1; mindgv=20; mindgc=4; mindgr=1; noblas=0; minvec=7
 default implementation of scratch files=df  

 ***,hno CCSD(T)/TZ-F12 QFF
 memory, 995, m;
 gthresh,energy=1.d-12,zero=1.d-22,oneint=1.d-22,twoint=1.d-22;
 gthresh,optgrad=1.d-8,optstep=1.d-8;
 nocompress;
 geomtyp=xyz
 bohr
 geometry={
 3
         41        41
 H        0.0000000000        1.6635181624       -1.9348507922
 N        0.0000000000       -0.1528400951       -1.1501654037
 O        0.0000000000        0.0310897227        1.1344266048
 }
 
 basis={
 default=aug-cc-pvtz
 s,C,8236.0,1235.0,280.8, 79.27,25.59, 8.997,3.319
 s,C,0.9059,0.3643,0.1285000
 p,C,56.0,18.71,4.133,0.2827,0.3827,0.1209
 d,C,30.0,10.0,3.3,1.097,0.318
 f,C,7.0,2.3,0.7610
 s,N,11420.0,1712.0,389.3,110.0,35.57,12.54,4.644
 s,N,1.293,0.5118,0.1787
 p,N,79.89,26.63,5.948,1.742,0.555,0.1725
 d,N,45.0,15.0,5.0,1.654,0.469
 f,N,9.9,3.3,1.093
 s,O,15330.0,2299.0,522.4,147.3,47.55,16.76,6.207
 s,O,1.752,0.6882,0.2384
 p,O,103.5,34.46,7.749,2.28,0.7156,0.214
 d,O,63.0,21.0,7.0,2.314,0.645
 f,O,12.9,4.3,1.428
 s,mg,164900.0,24710.0,5628.0,1596.0,521.0;
 s,mg,188.0,73.01,29.90,12.54,4.306,1.826;
 s,mg,0.7417,0.0761,0.145,0.033,0.0129;
 p,mg,950.70,316.90,74.86,23.72,8.669,3.363;
 p,mg,1.310,0.4911,0.2364,0.08733,0.03237,0.00745;
 d,mg,1.601,0.686,0.126,0.294,0.0468;
 f,mg,1.372,0.588,0.094,0.252;
 }
   {hf,maxit=500;accu,20;}
 {ccsd(t),nocheck,maxit=250;orbital,IGNORE_ERROR;}

 Variables initialized (889), CPU time= 0.00 sec
 Commands  initialized (702), CPU time= 0.01 sec, 572 directives.
 Default parameters read. Elapsed time= 0.06 sec

 Checking input...
 Passed
1


                                         ***  PROGRAM SYSTEM MOLPRO  ***
                                       Copyright, TTI GmbH Stuttgart, 2015
                                    Version 2015.1 linked Jul  9 2018 13:16:40


 **********************************************************************************************************************************
 LABEL *   hno CCSD(T)/TZ-F12 QFF                                                        
  64 bit serial version                                                                  DATE: 04-Mar-20          TIME: 13:47:07  
 **********************************************************************************************************************************

 SHA1:             d5ffa45e93fdbca01ffc919aa182cfdae0147319
 **********************************************************************************************************************************

 THRESHOLDS:

 ZERO    =  1.00D-22  ONEINT  =  1.00D-22  TWOINT  =  1.00D-22  PREFAC  =  1.00D-14  LOCALI  =  1.00D-09  EORDER  =  1.00D-04
 ENERGY  =  1.00D-12  ETEST   =  0.00D+00  EDENS   =  0.00D+00  THRDEDEF=  1.00D-06  GRADIENT=  1.00D-02  STEP    =  1.00D-03
 ORBITAL =  1.00D-05  CIVEC   =  1.00D-05  COEFF   =  1.00D-04  PRINTCI =  5.00D-02  PUNCHCI =  9.90D+01  OPTGRAD =  3.00D-04
 OPTENERG=  1.00D-06  OPTSTEP =  3.00D-04  THRGRAD =  1.00D-10  COMPRESS=  1.00D-11  VARMIN  =  1.00D-07  VARMAX  =  1.00D-03
 THRDOUB =  0.00D+00  THRDIV  =  1.00D-05  THRRED  =  1.00D-07  THRPSP  =  1.00D+00  THRDC   =  1.00D-10  THRCS   =  1.00D-10
 THRNRM  =  1.00D-08  THREQ   =  0.00D+00  THRDE   =  1.00D+00  THRREF  =  1.00D-05  SPARFAC =  1.00D+00  THRDLP  =  1.00D-07
 THRDIA  =  1.00D-10  THRDLS  =  1.00D-07  THRGPS  =  0.00D+00  THRKEX  =  0.00D+00  THRDIS  =  2.00D-01  THRVAR  =  1.00D-10
 THRLOC  =  1.00D-06  THRGAP  =  1.00D-06  THRLOCT = -1.00D+00  THRGAPT = -1.00D+00  THRORB  =  1.00D-06  THRMLTP =  0.00D+00
 THRCPQCI=  1.00D-10  KEXTA   =  0.00D+00  THRCOARS=  0.00D+00  SYMTOL  =  1.00D-06  GRADTOL =  1.00D-06  THROVL  =  1.00D-08
 THRORTH =  1.00D-08  GRID    =  1.00D-06  GRIDMAX =  1.00D-03  DTMAX   =  0.00D+00  THROCCDE=  1.00D-01  THROCCDE=  1.00D-01



 THRESHOLDS:

 ZERO    =  1.00D-22  ONEINT  =  1.00D-22  TWOINT  =  1.00D-22  PREFAC  =  1.00D-14  LOCALI  =  1.00D-09  EORDER  =  1.00D-04
 ENERGY  =  1.00D-12  ETEST   =  0.00D+00  EDENS   =  0.00D+00  THRDEDEF=  1.00D-06  GRADIENT=  1.00D-02  STEP    =  1.00D-03
 ORBITAL =  1.00D-05  CIVEC   =  1.00D-05  COEFF   =  1.00D-04  PRINTCI =  5.00D-02  PUNCHCI =  9.90D+01  OPTGRAD =  1.00D-08
 OPTENERG=  1.00D-06  OPTSTEP =  1.00D-08  THRGRAD =  1.00D-10  COMPRESS=  1.00D-11  VARMIN  =  1.00D-07  VARMAX  =  1.00D-03
 THRDOUB =  0.00D+00  THRDIV  =  1.00D-05  THRRED  =  1.00D-07  THRPSP  =  1.00D+00  THRDC   =  1.00D-10  THRCS   =  1.00D-10
 THRNRM  =  1.00D-08  THREQ   =  0.00D+00  THRDE   =  1.00D+00  THRREF  =  1.00D-05  SPARFAC =  1.00D+00  THRDLP  =  1.00D-07
 THRDIA  =  1.00D-10  THRDLS  =  1.00D-07  THRGPS  =  0.00D+00  THRKEX  =  0.00D+00  THRDIS  =  2.00D-01  THRVAR  =  1.00D-10
 THRLOC  =  1.00D-06  THRGAP  =  1.00D-06  THRLOCT = -1.00D+00  THRGAPT = -1.00D+00  THRORB  =  1.00D-06  THRMLTP =  0.00D+00
 THRCPQCI=  1.00D-10  KEXTA   =  0.00D+00  THRCOARS=  0.00D+00  SYMTOL  =  1.00D-06  GRADTOL =  1.00D-06  THROVL  =  1.00D-08
 THRORTH =  1.00D-08  GRID    =  1.00D-06  GRIDMAX =  1.00D-03  DTMAX   =  0.00D+00  THROCCDE=  1.00D-01  THROCCDE=  1.00D-01



 Input parameters for SORTINT:

 COMPRESS =    0.000000
 C_FINAL  =    1.000000
 DEBUG    =   -1.000000
 C_SORT1  =    0.000000
 C_SEWARD =    0.000000
 THRESH   =    0.000000
 IO       =  molpro                                                          
 SPRI     =    0.000000
 SETTING GEOMTYP        =    XYZ
 ZUNIT=BOHR
 

 Variable memory set to  995000000 words,  buffer space   230000 words

 SETTING BASIS          =    USERDEF


 Recomputing integrals since basis changed


 Using spherical harmonics

 Library entry H      S aug-cc-pVTZ          selected for orbital group  1
 Library entry H      P aug-cc-pVTZ          selected for orbital group  1
 Library entry H      D aug-cc-pVTZ          selected for orbital group  1


 PROGRAM * SEWARD (Integral evaluation for generally contracted gaussian basis sets)     Author: Roland Lindh, 1990

 Geometry written to block  1 of record 700


 Point group  Cs  



 ATOMIC COORDINATES

 NR  ATOM    CHARGE       X              Y              Z

   1  H       1.00    0.000000000    1.663518162   -1.934850792
   2  N       7.00    0.000000000   -0.152840095   -1.150165404
   3  O       8.00    0.000000000    0.031089723    1.134426605

 Bond lengths in Bohr (Angstrom)

 1-2  1.978607712  2-3  2.291984036
     ( 1.047034111)     ( 1.212865720)

 Bond angles

  1-2-3  108.76195128

 NUCLEAR CHARGE:                   16
 NUMBER OF PRIMITIVE AOS:         203
 NUMBER OF SYMMETRY AOS:          173
 NUMBER OF CONTRACTIONS:          171   ( 114A'  +  57A"  )
 NUMBER OF CORE ORBITALS:           2   (   2A'  +   0A"  )
 NUMBER OF VALENCE ORBITALS:        9   (   7A'  +   2A"  )


 NUCLEAR REPULSION ENERGY   30.27205909


 Eigenvalues of metric

         1 0.104E-02 0.253E-02 0.334E-02 0.635E-02 0.968E-02 0.137E-01 0.145E-01 0.229E-01
         2 0.357E-01 0.538E-01 0.696E-01 0.942E-01 0.131E+00 0.134E+00 0.140E+00 0.142E+00


 Contracted 2-electron integrals neglected if value below      1.0D-22

       46127515. INTEGRALS WRITTEN OUT IN   11265 BLOCKS ON RECORD 1290 OF FILE 1


 NUMBER OF SORTED TWO-ELECTRON INTEGRALS:   55360566.     BUFFER LENGTH:  32768
 NUMBER OF SEGMENTS:   4  SEGMENT LENGTH:   15997996      RECORD LENGTH: 524288

 Memory used in sort:      16.56 MW

 SORT1 READ    46127515. AND WROTE    46564803. INTEGRALS IN    136 RECORDS. CPU TIME:     1.53 SEC, REAL TIME:     1.98 SEC
 SORT2 READ    46564803. AND WROTE    55360566. INTEGRALS IN      4 RECORDS. CPU TIME:     0.99 SEC, REAL TIME:     1.25 SEC

 FILE SIZES:   FILE 1:   759.0 MBYTE,  FILE 4:   570.5 MBYTE,   TOTAL:   1329.5 MBYTE

 OPERATOR DM      FOR CENTER  0  COORDINATES:    0.000000    0.000000    0.000000


 **********************************************************************************************************************************
 DATASETS  * FILE   NREC   LENGTH (MB)   RECORD NAMES
              1      19      421.12       500      610      700      900      950      970     1000      129      960     1100   
                                          VAR    BASINP    GEOM    SYMINP    ZMAT    AOBASIS   BASIS     P2S    ABASIS      S 
                                         1400     1410     1200     1210     1080     1600     1650     1300     1700   
                                           T        V       H0       H01     AOSYM     SMH    MOLCAS    ERIS     OPER   

 PROGRAMS   *        TOTAL       INT
 CPU TIMES  *         6.95      6.83
 REAL TIME  *         9.08 SEC
 DISK USED  *         1.33 GB      
 **********************************************************************************************************************************


 PROGRAM * RHF-SCF (CLOSED SHELL)       Authors: W. Meyer, H.-J. Werner


 NUMBER OF ELECTRONS:       8+    8-
 CONVERGENCE THRESHOLDS:    1.00E-10 (Density)    1.00E-13 (Energy)
 MAX. NUMBER OF ITERATIONS:      500
 INTERPOLATION TYPE:            DIIS
 INTERPOLATION STEPS:              2 (START)      1 (STEP)
 LEVEL SHIFTS:                  0.00 (CLOSED)  0.00 (OPEN) 



 Orbital guess generated from atomic densities. Full valence occupancy:    9   2

 Molecular orbital dump at record        2100.2

 Initial occupancy:   7   1

 ITERATION    DDIFF          GRAD             ENERGY        2-EL.EN.            DIPOLE MOMENTS         DIIS   ORB.
    1      0.000D+00      0.000D+00      -129.78826098    153.889157    0.00000    0.58012   -1.03006    0    start
    2      0.000D+00      0.881D-02      -129.81500358    155.050602    0.00000    0.60090   -0.19794    1    diag
    3      0.368D-02      0.675D-02      -129.83832752    155.182918    0.00000    0.55292   -0.59350    2    diag
    4      0.143D-02      0.105D-02      -129.83912180    154.905225    0.00000    0.56065   -0.53008    3    diag
    5      0.334D-03      0.338D-03      -129.83924284    154.993468    0.00000    0.56665   -0.53242    4    diag
    6      0.153D-03      0.989D-04      -129.83926253    154.977393    0.00000    0.56721   -0.52823    5    diag
    7      0.608D-04      0.499D-04      -129.83926842    154.979852    0.00000    0.56851   -0.52566    6    diag
    8      0.414D-04      0.174D-04      -129.83926908    154.979011    0.00000    0.56856   -0.52471    7    diag
    9      0.147D-04      0.325D-05      -129.83926911    154.978895    0.00000    0.56851   -0.52452    8    diag
   10      0.302D-05      0.736D-06      -129.83926911    154.978881    0.00000    0.56848   -0.52449    9    orth
   11      0.885D-06      0.145D-06      -129.83926911    154.978877    0.00000    0.56847   -0.52449    9    diag
   12      0.207D-06      0.303D-07      -129.83926911    154.978876    0.00000    0.56847   -0.52449    9    diag
   13      0.501D-07      0.810D-08      -129.83926911    154.978876    0.00000    0.56847   -0.52449    9    diag
   14      0.116D-07      0.142D-08      -129.83926911    154.978876    0.00000    0.56847   -0.52449    9    diag
   15      0.142D-08      0.376D-09      -129.83926911    154.978876    0.00000    0.56847   -0.52449    9    diag
   16      0.326D-09      0.108D-09      -129.83926911    154.978876    0.00000    0.56847   -0.52449    9    diag
   17      0.659D-10      0.280D-10      -129.83926911    154.978876    0.00000    0.56847   -0.52449    9    diag
   18      0.192D-10      0.901D-11      -129.83926911    154.978876    0.00000    0.56847   -0.52449    9    diag
   19      0.732D-11      0.196D-11      -129.83926911    154.978876    0.00000    0.56847   -0.52449    9    fixocc
   20      0.169D-11      0.652D-12      -129.83926911    154.978876    0.00000    0.56847   -0.52449    9    orth
   21      0.227D-12      0.412D-12      -129.83926911    154.978876    0.00000    0.56847   -0.52449    0    orth

 Final occupancy:   7   1

 !RHF STATE 1.1 Energy               -129.839269111363
 Nuclear energy                        30.27205909
 One-electron energy                 -237.60076610
 Two-electron energy                   77.48943790
 Virial quotient                       -1.00173445
 !RHF STATE 1.1 Dipole moment           0.00000000     0.56846562    -0.52448986
 Dipole moment /Debye                   0.00000000     1.44480085    -1.33303293

 Orbital energies:

         1.1          2.1          3.1          4.1          5.1          6.1          7.1          8.1          9.1
    -20.651780   -15.710650    -1.523810    -0.995672    -0.744232    -0.662923    -0.430134     0.039600     0.192951

         1.2          2.2          3.2
     -0.591744     0.077230     0.239472

 HOMO      7.1    -0.430134 =     -11.7045eV
 LUMO      8.1     0.039600 =       1.0776eV
 LUMO-HOMO         0.469734 =      12.7821eV


 **********************************************************************************************************************************
 DATASETS  * FILE   NREC   LENGTH (MB)   RECORD NAMES
              1      19      421.12       500      610      700      900      950      970     1000      129      960     1100   
                                          VAR    BASINP    GEOM    SYMINP    ZMAT    AOBASIS   BASIS     P2S    ABASIS      S 
                                         1400     1410     1200     1210     1080     1600     1650     1300     1700   
                                           T        V       H0       H01     AOSYM     SMH    MOLCAS    ERIS     OPER   

              2       4        3.13       700     1000      520     2100   
                                         GEOM     BASIS   MCVARS     RHF  

 PROGRAMS   *        TOTAL        HF       INT
 CPU TIMES  *        13.96      7.01      6.83
 REAL TIME  *        17.78 SEC
 DISK USED  *         1.33 GB      
 **********************************************************************************************************************************


 PROGRAM * CCSD (Closed-shell coupled cluster)     Authors: C. Hampel, H.-J. Werner, 1991, M. Deegan, P.J. Knowles, 1992


 Convergence thresholds:  THRVAR = 1.00D-08  THRDEN = 1.00D-12

 CCSD(T)     terms to be evaluated (factor= 1.000)


 Number of core orbitals:           2 (   2   0 )
 Number of closed-shell orbitals:   6 (   5   1 )
 Number of external orbitals:     163 ( 107  56 )

 Molecular orbitals read from record     2100.2  Type=RHF/CANONICAL (state 1.1)

 Number of N-1 electron functions:               6
 Number of N-2 electron functions:              21
 Number of singly external CSFs:               591
 Number of doubly external CSFs:            250014
 Total number of CSFs:                      250606

 Length of J-op  integral file:               0.00 MB
 Length of K-op  integral file:               1.15 MB
 Length of 3-ext integral record:             0.00 MB

 Memory could be reduced to 19.93 Mwords without degradation in triples

 Integral transformation finished. Total CPU:   1.11 sec, npass=  1  Memory used:   5.10 MW

 Reference energy:                   -129.83926911

 MP2 singlet pair energy:              -0.28725564
 MP2 triplet pair energy:              -0.16745267
 MP2 correlation energy:               -0.45470831
 MP2 total energy:                   -130.29397742

 SCS-MP2 correlation energy:           -0.44889954   (PS=  1.200000  PT=  0.333333)
 SCS-MP2 total energy:               -130.28816865

 ITER.      SQ.NORM     CORR.ENERGY   TOTAL ENERGY   ENERGY CHANGE        DEN1      VAR(S)    VAR(P)  DIIS     TIME  TIME/IT
   1      1.11917380    -0.45667027  -130.29593938    -0.00196196     0.01497745  0.33D-02  0.31D-02  1  1     2.06     1.04
   2      1.12979314    -0.45654862  -130.29581773     0.00012166    -0.01261202  0.12D-03  0.50D-03  2  2     3.04     1.05
   3      1.13643139    -0.45692578  -130.29619489    -0.00037716    -0.00338851  0.45D-04  0.59D-04  3  3     4.01     1.06
   4      1.13935412    -0.45695867  -130.29622778    -0.00003289    -0.00095821  0.45D-05  0.10D-04  4  4     4.98     1.06
   5      1.14046326    -0.45699173  -130.29626085    -0.00003307    -0.00022631  0.13D-05  0.18D-05  5  5     5.93     1.06
   6      1.14086911    -0.45697552  -130.29624463     0.00001622    -0.00006728  0.12D-06  0.44D-06  6  6     6.92     1.06
   7      1.14094221    -0.45697715  -130.29624626    -0.00000164     0.00000885  0.16D-07  0.97D-07  6  1     7.85     1.06
   8      1.14097730    -0.45697670  -130.29624581     0.00000045    -0.00000477  0.50D-08  0.15D-07  6  2     8.84     1.06
   9      1.14098265    -0.45697658  -130.29624569     0.00000012     0.00000103  0.23D-08  0.17D-08  6  3     9.82     1.06
  10      1.14098307    -0.45697691  -130.29624603    -0.00000033    -0.00000027  0.52D-09  0.27D-09  6  4    10.82     1.06
  11      1.14098153    -0.45697706  -130.29624617    -0.00000014     0.00000035  0.13D-09  0.27D-10  6  5    11.78     1.07
  12      1.14098035    -0.45697721  -130.29624632    -0.00000015     0.00000048  0.16D-10  0.78D-11  6  6    12.73     1.07
  13      1.14097968    -0.45697723  -130.29624634    -0.00000002     0.00000013  0.60D-11  0.14D-11  6  1    13.68     1.07
  14      1.14097916    -0.45697726  -130.29624637    -0.00000003     0.00000012  0.55D-12  0.46D-12  6  3    14.64     1.07
  15      1.14097900    -0.45697726  -130.29624637     0.00000000     0.00000001  0.14D-12  0.33D-13  6  2    15.63     1.07
  16      1.14097894    -0.45697726  -130.29624637    -0.00000000     0.00000001  0.33D-13  0.77D-14  6  4    16.60     1.07
  17      1.14097892    -0.45697726  -130.29624637    -0.00000000     0.00000001  0.43D-14  0.12D-14  6  5    17.59     1.07
  18      1.14097892    -0.45697726  -130.29624637     0.00000000     0.00000000  0.49D-15  0.33D-15  6  6    18.57     1.07
  19      1.14097892    -0.45697726  -130.29624637     0.00000000    -0.00000000  0.66D-16  0.43D-16  6  1    19.55     1.07
  20      1.14097892    -0.45697726  -130.29624637     0.00000000    -0.00000000  0.34D-17  0.10D-16  6  3    20.48     1.07
  21      1.14097892    -0.45697726  -130.29624637     0.00000000    -0.00000000  0.54D-18  0.22D-17  6  4    21.44     1.07
  22      1.14097892    -0.45697726  -130.29624637     0.00000000    -0.00000000  0.25D-19  0.78D-18  6  2    22.40     1.07
  23      1.14097892    -0.45697726  -130.29624637    -0.00000000     0.00000000  0.34D-19  0.14D-18  6  4    23.36     1.07
  24      1.14097892    -0.45697726  -130.29624637     0.00000000    -0.00000000  0.36D-20  0.68D-20  6  5    24.29     1.07
  25      1.14097892    -0.45697726  -130.29624637    -0.00000000     0.00000000  0.68D-21  0.11D-20  6  4    25.24     1.07
  26      1.14097892    -0.45697726  -130.29624637     0.00000000     0.00000000  0.78D-22  0.80D-22  6  6    26.21     1.07
  27      1.14097892    -0.45697726  -130.29624637     0.00000000    -0.00000000  0.36D-22  0.15D-22  6  1    27.18     1.07

 Norm of t1 vector:      0.07790659      S-energy:    -0.00000000      T1 diagnostic:  0.01590262
                                                                       D1 diagnostic:  0.04366411

 Doubles amplitudes (print threshold =  0.500E-01):

         I         J         SYM. A    SYM. B    A         B      T(IJ, AB)

         6         6         2         2         1         1     -0.13687040


 Total CPU time for triples:     10.56 sec


 RESULTS
 =======

  Reference energy                   -129.839269111364
  CCSD singlet pair energy             -0.313939075940
  CCSD triplet pair energy             -0.143038184641
  CCSD correlation energy              -0.456977260581

  Triples (T) contribution             -0.021321414414
  Total correlation energy             -0.478298674995

  CCSD total energy                  -130.296246371944
  CCSD[T] energy                     -130.318682756047
  CCSD-T energy                      -130.317149569750
 !CCSD(T) total energy               -130.317567786358

 Timing summary (sec):

 STEP                 CPU(USER)    SYS     CPU(TOT)    WALL
 Transformation          1.12      0.18      1.30      1.32
 CCSD iterations        26.06      2.81     28.87     28.89
 Triples                10.56      0.29     10.85     10.85

 Program statistics:

 Available memory in ccsd:               994999756
 Min. memory needed in ccsd:                887758
 Max. memory used in ccsd:                 1088212
 Max. memory used in cckext:               1535578 (27 integral passes)



 **********************************************************************************************************************************
 DATASETS  * FILE   NREC   LENGTH (MB)   RECORD NAMES
              1      20      479.07       500      610      700      900      950      970     1000      129      960     1100   
                                          VAR    BASINP    GEOM    SYMINP    ZMAT    AOBASIS   BASIS     P2S    ABASIS      S 
                                         1400     1410     1200     1210     1080     1600     1650     1300     1700     1380   
                                           T        V       H0       H01     AOSYM     SMH    MOLCAS    ERIS     OPER     JKOP   

              2       4        3.13       700     1000      520     2100   
                                         GEOM     BASIS   MCVARS     RHF  

 PROGRAMS   *        TOTAL   CCSD(T)        HF       INT
 CPU TIMES  *        51.74     37.77      7.01      6.83
 REAL TIME  *        58.87 SEC
 DISK USED  *         1.33 GB      
 **********************************************************************************************************************************

 CCSD(T)/USERDEF energy=   -130.317567786358

        CCSD(T)         HF-SCF  
   -130.31756779   -129.83926911
 **********************************************************************************************************************************
 Molpro calculation terminated
 Variable memory released
