
 Primary working directories    : /tmp/r2666/282236.maple
 Secondary working directories  : /tmp/r2666/282236.maple
 Wavefunction directory         : /ddn/home4/r2666/wfu/
 Main file repository           : /tmp/r2666/282236.maple/

 SHA1      : d5ffa45e93fdbca01ffc919aa182cfdae0147319
 NAME      : 2015.1.35
 ARCHNAME  : linux/x86_64
 FC        : /opt/intel/composer_xe_2015.1.133/bin/intel64/ifort
 BLASLIB   : -Wl,-_start-group /opt/intel/mkl/lib/intel64/libmkl_intel_ilp64.a /opt/intel/mkl/lib/intel64/libmkl_intel_thread.a /opt/intel/mkl/lib/intel64/libmkl_core.a -Wl,-_end-group
 id        : olemiss

 Nodes     nprocs
 cn075        1

 Using customized tuning parameters: mindgm=1; mindgv=20; mindgc=4; mindgr=1; noblas=0; minvec=7
 default implementation of scratch files=df  

 ***,hno CCSD(T)/TZ-F12 QFF
 memory, 995, m;
 gthresh,energy=1.d-12,zero=1.d-22,oneint=1.d-22,twoint=1.d-22;
 gthresh,optgrad=1.d-8,optstep=1.d-8;
 nocompress;
 geomtyp=xyz
 bohr
 geometry={
 3
          4         4
 H        0.0000000000        1.6529654272       -1.9148952743
 N        0.0000000000       -0.1533843471       -1.1549179393
 O        0.0000000000        0.0421867099        1.1192236226
 }
 
 basis={
 default=aug-cc-pvtz
 s,C,8236.0,1235.0,280.8, 79.27,25.59, 8.997,3.319
 s,C,0.9059,0.3643,0.1285000
 p,C,56.0,18.71,4.133,0.2827,0.3827,0.1209
 d,C,30.0,10.0,3.3,1.097,0.318
 f,C,7.0,2.3,0.7610
 s,N,11420.0,1712.0,389.3,110.0,35.57,12.54,4.644
 s,N,1.293,0.5118,0.1787
 p,N,79.89,26.63,5.948,1.742,0.555,0.1725
 d,N,45.0,15.0,5.0,1.654,0.469
 f,N,9.9,3.3,1.093
 s,O,15330.0,2299.0,522.4,147.3,47.55,16.76,6.207
 s,O,1.752,0.6882,0.2384
 p,O,103.5,34.46,7.749,2.28,0.7156,0.214
 d,O,63.0,21.0,7.0,2.314,0.645
 f,O,12.9,4.3,1.428
 s,mg,164900.0,24710.0,5628.0,1596.0,521.0;
 s,mg,188.0,73.01,29.90,12.54,4.306,1.826;
 s,mg,0.7417,0.0761,0.145,0.033,0.0129;
 p,mg,950.70,316.90,74.86,23.72,8.669,3.363;
 p,mg,1.310,0.4911,0.2364,0.08733,0.03237,0.00745;
 d,mg,1.601,0.686,0.126,0.294,0.0468;
 f,mg,1.372,0.588,0.094,0.252;
 }
   {hf,maxit=500;accu,20;}
 {ccsd(t),nocheck,maxit=250;orbital,IGNORE_ERROR;}

 Variables initialized (889), CPU time= 0.01 sec
 Commands  initialized (702), CPU time= 0.01 sec, 572 directives.
 Default parameters read. Elapsed time= 0.05 sec

 Checking input...
 Passed
1


                                         ***  PROGRAM SYSTEM MOLPRO  ***
                                       Copyright, TTI GmbH Stuttgart, 2015
                                    Version 2015.1 linked Jul  9 2018 13:16:40


 **********************************************************************************************************************************
 LABEL *   hno CCSD(T)/TZ-F12 QFF                                                        
  64 bit serial version                                                                  DATE: 04-Mar-20          TIME: 13:46:50  
 **********************************************************************************************************************************

 SHA1:             d5ffa45e93fdbca01ffc919aa182cfdae0147319
 **********************************************************************************************************************************

 THRESHOLDS:

 ZERO    =  1.00D-22  ONEINT  =  1.00D-22  TWOINT  =  1.00D-22  PREFAC  =  1.00D-14  LOCALI  =  1.00D-09  EORDER  =  1.00D-04
 ENERGY  =  1.00D-12  ETEST   =  0.00D+00  EDENS   =  0.00D+00  THRDEDEF=  1.00D-06  GRADIENT=  1.00D-02  STEP    =  1.00D-03
 ORBITAL =  1.00D-05  CIVEC   =  1.00D-05  COEFF   =  1.00D-04  PRINTCI =  5.00D-02  PUNCHCI =  9.90D+01  OPTGRAD =  3.00D-04
 OPTENERG=  1.00D-06  OPTSTEP =  3.00D-04  THRGRAD =  1.00D-10  COMPRESS=  1.00D-11  VARMIN  =  1.00D-07  VARMAX  =  1.00D-03
 THRDOUB =  0.00D+00  THRDIV  =  1.00D-05  THRRED  =  1.00D-07  THRPSP  =  1.00D+00  THRDC   =  1.00D-10  THRCS   =  1.00D-10
 THRNRM  =  1.00D-08  THREQ   =  0.00D+00  THRDE   =  1.00D+00  THRREF  =  1.00D-05  SPARFAC =  1.00D+00  THRDLP  =  1.00D-07
 THRDIA  =  1.00D-10  THRDLS  =  1.00D-07  THRGPS  =  0.00D+00  THRKEX  =  0.00D+00  THRDIS  =  2.00D-01  THRVAR  =  1.00D-10
 THRLOC  =  1.00D-06  THRGAP  =  1.00D-06  THRLOCT = -1.00D+00  THRGAPT = -1.00D+00  THRORB  =  1.00D-06  THRMLTP =  0.00D+00
 THRCPQCI=  1.00D-10  KEXTA   =  0.00D+00  THRCOARS=  0.00D+00  SYMTOL  =  1.00D-06  GRADTOL =  1.00D-06  THROVL  =  1.00D-08
 THRORTH =  1.00D-08  GRID    =  1.00D-06  GRIDMAX =  1.00D-03  DTMAX   =  0.00D+00  THROCCDE=  1.00D-01  THROCCDE=  1.00D-01



 THRESHOLDS:

 ZERO    =  1.00D-22  ONEINT  =  1.00D-22  TWOINT  =  1.00D-22  PREFAC  =  1.00D-14  LOCALI  =  1.00D-09  EORDER  =  1.00D-04
 ENERGY  =  1.00D-12  ETEST   =  0.00D+00  EDENS   =  0.00D+00  THRDEDEF=  1.00D-06  GRADIENT=  1.00D-02  STEP    =  1.00D-03
 ORBITAL =  1.00D-05  CIVEC   =  1.00D-05  COEFF   =  1.00D-04  PRINTCI =  5.00D-02  PUNCHCI =  9.90D+01  OPTGRAD =  1.00D-08
 OPTENERG=  1.00D-06  OPTSTEP =  1.00D-08  THRGRAD =  1.00D-10  COMPRESS=  1.00D-11  VARMIN  =  1.00D-07  VARMAX  =  1.00D-03
 THRDOUB =  0.00D+00  THRDIV  =  1.00D-05  THRRED  =  1.00D-07  THRPSP  =  1.00D+00  THRDC   =  1.00D-10  THRCS   =  1.00D-10
 THRNRM  =  1.00D-08  THREQ   =  0.00D+00  THRDE   =  1.00D+00  THRREF  =  1.00D-05  SPARFAC =  1.00D+00  THRDLP  =  1.00D-07
 THRDIA  =  1.00D-10  THRDLS  =  1.00D-07  THRGPS  =  0.00D+00  THRKEX  =  0.00D+00  THRDIS  =  2.00D-01  THRVAR  =  1.00D-10
 THRLOC  =  1.00D-06  THRGAP  =  1.00D-06  THRLOCT = -1.00D+00  THRGAPT = -1.00D+00  THRORB  =  1.00D-06  THRMLTP =  0.00D+00
 THRCPQCI=  1.00D-10  KEXTA   =  0.00D+00  THRCOARS=  0.00D+00  SYMTOL  =  1.00D-06  GRADTOL =  1.00D-06  THROVL  =  1.00D-08
 THRORTH =  1.00D-08  GRID    =  1.00D-06  GRIDMAX =  1.00D-03  DTMAX   =  0.00D+00  THROCCDE=  1.00D-01  THROCCDE=  1.00D-01



 Input parameters for SORTINT:

 COMPRESS =    0.000000
 C_FINAL  =    1.000000
 DEBUG    =   -1.000000
 C_SORT1  =    0.000000
 C_SEWARD =    0.000000
 THRESH   =    0.000000
 IO       =  molpro                                                          
 SPRI     =    0.000000
 SETTING GEOMTYP        =    XYZ
 ZUNIT=BOHR
 

 Variable memory set to  995000000 words,  buffer space   230000 words

 SETTING BASIS          =    USERDEF


 Recomputing integrals since basis changed


 Using spherical harmonics

 Library entry H      S aug-cc-pVTZ          selected for orbital group  1
 Library entry H      P aug-cc-pVTZ          selected for orbital group  1
 Library entry H      D aug-cc-pVTZ          selected for orbital group  1


 PROGRAM * SEWARD (Integral evaluation for generally contracted gaussian basis sets)     Author: Roland Lindh, 1990

 Geometry written to block  1 of record 700


 Point group  Cs  



 ATOMIC COORDINATES

 NR  ATOM    CHARGE       X              Y              Z

   1  H       1.00    0.000000000    1.652965427   -1.914895274
   2  N       7.00    0.000000000   -0.153384347   -1.154917939
   3  O       8.00    0.000000000    0.042186710    1.119223623

 Bond lengths in Bohr (Angstrom)

 1-2  1.959710452  2-3  2.282535406
     ( 1.037034111)     ( 1.207865720)

 Bond angles

  1-2-3  107.90251459

 NUCLEAR CHARGE:                   16
 NUMBER OF PRIMITIVE AOS:         203
 NUMBER OF SYMMETRY AOS:          173
 NUMBER OF CONTRACTIONS:          171   ( 114A'  +  57A"  )
 NUMBER OF CORE ORBITALS:           2   (   2A'  +   0A"  )
 NUMBER OF VALENCE ORBITALS:        9   (   7A'  +   2A"  )


 NUCLEAR REPULSION ENERGY   30.43491944


 Eigenvalues of metric

         1 0.101E-02 0.248E-02 0.327E-02 0.625E-02 0.936E-02 0.136E-01 0.144E-01 0.224E-01
         2 0.346E-01 0.530E-01 0.689E-01 0.940E-01 0.131E+00 0.134E+00 0.139E+00 0.142E+00


 Contracted 2-electron integrals neglected if value below      1.0D-22

       46152391. INTEGRALS WRITTEN OUT IN   11271 BLOCKS ON RECORD 1290 OF FILE 1


 NUMBER OF SORTED TWO-ELECTRON INTEGRALS:   55360566.     BUFFER LENGTH:  32768
 NUMBER OF SEGMENTS:   4  SEGMENT LENGTH:   15997996      RECORD LENGTH: 524288

 Memory used in sort:      16.56 MW

 SORT1 READ    46152391. AND WROTE    46589888. INTEGRALS IN    136 RECORDS. CPU TIME:     0.74 SEC, REAL TIME:     1.02 SEC
 SORT2 READ    46589888. AND WROTE    55360566. INTEGRALS IN      4 RECORDS. CPU TIME:     0.63 SEC, REAL TIME:     0.86 SEC

 FILE SIZES:   FILE 1:   759.4 MBYTE,  FILE 4:   570.5 MBYTE,   TOTAL:   1329.8 MBYTE

 OPERATOR DM      FOR CENTER  0  COORDINATES:    0.000000    0.000000    0.000000


 **********************************************************************************************************************************
 DATASETS  * FILE   NREC   LENGTH (MB)   RECORD NAMES
              1      19      421.29       500      610      700      900      950      970     1000      129      960     1100   
                                          VAR    BASINP    GEOM    SYMINP    ZMAT    AOBASIS   BASIS     P2S    ABASIS      S 
                                         1400     1410     1200     1210     1080     1600     1650     1300     1700   
                                           T        V       H0       H01     AOSYM     SMH    MOLCAS    ERIS     OPER   

 PROGRAMS   *        TOTAL       INT
 CPU TIMES  *         3.89      3.80
 REAL TIME  *         5.40 SEC
 DISK USED  *         1.33 GB      
 **********************************************************************************************************************************


 PROGRAM * RHF-SCF (CLOSED SHELL)       Authors: W. Meyer, H.-J. Werner


 NUMBER OF ELECTRONS:       8+    8-
 CONVERGENCE THRESHOLDS:    1.00E-10 (Density)    1.00E-13 (Energy)
 MAX. NUMBER OF ITERATIONS:      500
 INTERPOLATION TYPE:            DIIS
 INTERPOLATION STEPS:              2 (START)      1 (STEP)
 LEVEL SHIFTS:                  0.00 (CLOSED)  0.00 (OPEN) 



 Orbital guess generated from atomic densities. Full valence occupancy:    9   2

 Molecular orbital dump at record        2100.2

 Initial occupancy:   7   1

 ITERATION    DDIFF          GRAD             ENERGY        2-EL.EN.            DIPOLE MOMENTS         DIIS   ORB.
    1      0.000D+00      0.000D+00      -129.79036745    154.190514    0.00000    0.57671   -1.01040    0    start
    2      0.000D+00      0.873D-02      -129.81729934    155.347198    0.00000    0.59903   -0.20133    1    diag
    3      0.367D-02      0.658D-02      -129.83939686    155.471841    0.00000    0.55049   -0.58390    2    diag
    4      0.140D-02      0.104D-02      -129.84017690    155.199473    0.00000    0.55882   -0.52157    3    diag
    5      0.333D-03      0.335D-03      -129.84029458    155.286245    0.00000    0.56461   -0.52389    4    diag
    6      0.153D-03      0.975D-04      -129.84031360    155.270356    0.00000    0.56517   -0.51981    5    diag
    7      0.603D-04      0.490D-04      -129.84031923    155.272814    0.00000    0.56645   -0.51729    6    diag
    8      0.410D-04      0.167D-04      -129.84031984    155.271997    0.00000    0.56650   -0.51638    7    diag
    9      0.141D-04      0.309D-05      -129.84031986    155.271890    0.00000    0.56645   -0.51620    8    diag
   10      0.287D-05      0.704D-06      -129.84031987    155.271879    0.00000    0.56642   -0.51618    9    orth
   11      0.866D-06      0.140D-06      -129.84031987    155.271875    0.00000    0.56641   -0.51618    9    diag
   12      0.203D-06      0.289D-07      -129.84031987    155.271874    0.00000    0.56641   -0.51617    9    diag
   13      0.487D-07      0.759D-08      -129.84031987    155.271874    0.00000    0.56641   -0.51617    9    diag
   14      0.110D-07      0.133D-08      -129.84031987    155.271874    0.00000    0.56641   -0.51617    9    diag
   15      0.139D-08      0.356D-09      -129.84031987    155.271874    0.00000    0.56641   -0.51617    9    diag
   16      0.313D-09      0.104D-09      -129.84031987    155.271874    0.00000    0.56641   -0.51617    9    diag
   17      0.688D-10      0.276D-10      -129.84031987    155.271874    0.00000    0.56641   -0.51617    9    diag
   18      0.206D-10      0.914D-11      -129.84031987    155.271874    0.00000    0.56641   -0.51617    9    diag
   19      0.825D-11      0.213D-11      -129.84031987    155.271874    0.00000    0.56641   -0.51617    9    fixocc
   20      0.202D-11      0.509D-12      -129.84031987    155.271874    0.00000    0.56641   -0.51617    9    orth
   21      0.351D-12      0.365D-12      -129.84031987    155.271874    0.00000    0.56641   -0.51617    9    diag
   22      0.105D-12      0.501D-12      -129.84031987    155.271874    0.00000    0.56641   -0.51617    9    diag
   23      0.480D-13      0.278D-12      -129.84031987    155.271874    0.00000    0.56641   -0.51617    0    orth

 Final occupancy:   7   1

 !RHF STATE 1.1 Energy               -129.840319865762
 Nuclear energy                        30.43491944
 One-electron energy                 -237.91117636
 Two-electron energy                   77.63593705
 Virial quotient                       -1.00143898
 !RHF STATE 1.1 Dipole moment           0.00000000     0.56640768    -0.51617363
 Dipole moment /Debye                   0.00000000     1.43957042    -1.31189658

 Orbital energies:

         1.1          2.1          3.1          4.1          5.1          6.1          7.1          8.1          9.1
    -20.650933   -15.708618    -1.528489    -0.996587    -0.746892    -0.664223    -0.429816     0.039826     0.194163

         1.2          2.2          3.2
     -0.594092     0.079151     0.239632

 HOMO      7.1    -0.429816 =     -11.6959eV
 LUMO      8.1     0.039826 =       1.0837eV
 LUMO-HOMO         0.469642 =      12.7796eV


 **********************************************************************************************************************************
 DATASETS  * FILE   NREC   LENGTH (MB)   RECORD NAMES
              1      19      421.29       500      610      700      900      950      970     1000      129      960     1100   
                                          VAR    BASINP    GEOM    SYMINP    ZMAT    AOBASIS   BASIS     P2S    ABASIS      S 
                                         1400     1410     1200     1210     1080     1600     1650     1300     1700   
                                           T        V       H0       H01     AOSYM     SMH    MOLCAS    ERIS     OPER   

              2       4        3.13       700     1000      520     2100   
                                         GEOM     BASIS   MCVARS     RHF  

 PROGRAMS   *        TOTAL        HF       INT
 CPU TIMES  *         9.42      5.53      3.80
 REAL TIME  *        12.29 SEC
 DISK USED  *         1.33 GB      
 **********************************************************************************************************************************


 PROGRAM * CCSD (Closed-shell coupled cluster)     Authors: C. Hampel, H.-J. Werner, 1991, M. Deegan, P.J. Knowles, 1992


 Convergence thresholds:  THRVAR = 1.00D-08  THRDEN = 1.00D-12

 CCSD(T)     terms to be evaluated (factor= 1.000)


 Number of core orbitals:           2 (   2   0 )
 Number of closed-shell orbitals:   6 (   5   1 )
 Number of external orbitals:     163 ( 107  56 )

 Molecular orbitals read from record     2100.2  Type=RHF/CANONICAL (state 1.1)

 Number of N-1 electron functions:               6
 Number of N-2 electron functions:              21
 Number of singly external CSFs:               591
 Number of doubly external CSFs:            250014
 Total number of CSFs:                      250606

 Length of J-op  integral file:               0.00 MB
 Length of K-op  integral file:               1.15 MB
 Length of 3-ext integral record:             0.00 MB

 Memory could be reduced to 19.93 Mwords without degradation in triples

 Integral transformation finished. Total CPU:   0.68 sec, npass=  1  Memory used:   5.10 MW

 Reference energy:                   -129.84031987

 MP2 singlet pair energy:              -0.28652838
 MP2 triplet pair energy:              -0.16698715
 MP2 correlation energy:               -0.45351553
 MP2 total energy:                   -130.29383540

 SCS-MP2 correlation energy:           -0.44773718   (PS=  1.200000  PT=  0.333333)
 SCS-MP2 total energy:               -130.28805704

 ITER.      SQ.NORM     CORR.ENERGY   TOTAL ENERGY   ENERGY CHANGE        DEN1      VAR(S)    VAR(P)  DIIS     TIME  TIME/IT
   1      1.11828427    -0.45568822  -130.29600809    -0.00217269     0.01444262  0.31D-02  0.30D-02  1  1     1.29     0.64
   2      1.12869937    -0.45561789  -130.29593776     0.00007033    -0.01242020  0.12D-03  0.49D-03  2  2     1.88     0.66
   3      1.13516012    -0.45597949  -130.29629935    -0.00036160    -0.00333268  0.42D-04  0.57D-04  3  3     2.47     0.66
   4      1.13798949    -0.45601340  -130.29633327    -0.00003392    -0.00093146  0.41D-05  0.95D-05  4  4     3.08     0.66
   5      1.13903870    -0.45604431  -130.29636418    -0.00003091    -0.00021548  0.12D-05  0.17D-05  5  5     3.69     0.67
   6      1.13942401    -0.45602897  -130.29634883     0.00001535    -0.00006409  0.11D-06  0.43D-06  6  6     4.29     0.67
   7      1.13949371    -0.45603068  -130.29635055    -0.00000172     0.00000864  0.14D-07  0.94D-07  6  1     4.89     0.67
   8      1.13952728    -0.45603031  -130.29635018     0.00000037    -0.00000449  0.50D-08  0.14D-07  6  2     5.50     0.67
   9      1.13953190    -0.45603025  -130.29635011     0.00000007     0.00000103  0.21D-08  0.16D-08  6  3     6.10     0.67
  10      1.13953229    -0.45603056  -130.29635042    -0.00000031    -0.00000028  0.48D-09  0.24D-09  6  4     6.71     0.67
  11      1.13953082    -0.45603069  -130.29635056    -0.00000013     0.00000034  0.11D-09  0.24D-10  6  5     7.31     0.67
  12      1.13952973    -0.45603083  -130.29635070    -0.00000014     0.00000045  0.14D-10  0.69D-11  6  6     7.91     0.67
  13      1.13952912    -0.45603085  -130.29635072    -0.00000002     0.00000012  0.52D-11  0.13D-11  6  1     8.51     0.67
  14      1.13952865    -0.45603088  -130.29635074    -0.00000003     0.00000011  0.50D-12  0.40D-12  6  3     9.11     0.67
  15      1.13952850    -0.45603088  -130.29635074     0.00000000     0.00000001  0.12D-12  0.29D-13  6  2     9.71     0.67
  16      1.13952845    -0.45603088  -130.29635074    -0.00000000     0.00000001  0.28D-13  0.68D-14  6  4    10.28     0.67
  17      1.13952843    -0.45603088  -130.29635075    -0.00000000     0.00000001  0.38D-14  0.11D-14  6  5    10.91     0.67
  18      1.13952843    -0.45603088  -130.29635075     0.00000000     0.00000000  0.43D-15  0.29D-15  6  6    11.51     0.67
  19      1.13952843    -0.45603088  -130.29635075     0.00000000    -0.00000000  0.56D-16  0.38D-16  6  1    12.07     0.67
  20      1.13952843    -0.45603088  -130.29635075     0.00000000    -0.00000000  0.27D-17  0.90D-17  6  3    12.65     0.67
  21      1.13952843    -0.45603088  -130.29635075     0.00000000    -0.00000000  0.47D-18  0.19D-17  6  4    13.22     0.67
  22      1.13952843    -0.45603088  -130.29635075     0.00000000    -0.00000000  0.25D-19  0.68D-18  6  2    13.84     0.67
  23      1.13952843    -0.45603088  -130.29635075    -0.00000000     0.00000000  0.31D-19  0.12D-18  6  4    14.43     0.67
  24      1.13952843    -0.45603088  -130.29635075     0.00000000    -0.00000000  0.29D-20  0.58D-20  6  5    15.01     0.67
  25      1.13952843    -0.45603088  -130.29635075    -0.00000000     0.00000000  0.40D-21  0.48D-21  6  6    15.62     0.67
  26      1.13952843    -0.45603088  -130.29635075     0.00000000    -0.00000000  0.16D-21  0.60D-22  6  1    16.22     0.67
  27      1.13952843    -0.45603088  -130.29635075     0.00000000    -0.00000000  0.64D-22  0.18D-22  6  3    16.82     0.67

 Norm of t1 vector:      0.07637489      S-energy:    -0.00000000      T1 diagnostic:  0.01558996
                                                                       D1 diagnostic:  0.04290442

 Doubles amplitudes (print threshold =  0.500E-01):

         I         J         SYM. A    SYM. B    A         B      T(IJ, AB)

         6         6         2         2         1         1     -0.13557555


 Total CPU time for triples:      7.43 sec


 RESULTS
 =======

  Reference energy                   -129.840319865762
  CCSD singlet pair energy             -0.313111231085
  CCSD triplet pair energy             -0.142919648363
  CCSD correlation energy              -0.456030879448

  Triples (T) contribution             -0.021094221585
  Total correlation energy             -0.477125101033

  CCSD total energy                  -130.296350745209
  CCSD[T] energy                     -130.318522642574
  CCSD-T energy                      -130.317037498121
 !CCSD(T) total energy               -130.317444966794

 Timing summary (sec):

 STEP                 CPU(USER)    SYS     CPU(TOT)    WALL
 Transformation          0.69      0.11      0.80      0.83
 CCSD iterations        16.13      2.09     18.22     18.21
 Triples                 7.43      0.20      7.63      7.64

 Program statistics:

 Available memory in ccsd:               994999756
 Min. memory needed in ccsd:                887758
 Max. memory used in ccsd:                 1088212
 Max. memory used in cckext:               1535578 (27 integral passes)



 **********************************************************************************************************************************
 DATASETS  * FILE   NREC   LENGTH (MB)   RECORD NAMES
              1      20      479.25       500      610      700      900      950      970     1000      129      960     1100   
                                          VAR    BASINP    GEOM    SYMINP    ZMAT    AOBASIS   BASIS     P2S    ABASIS      S 
                                         1400     1410     1200     1210     1080     1600     1650     1300     1700     1380   
                                           T        V       H0       H01     AOSYM     SMH    MOLCAS    ERIS     OPER     JKOP   

              2       4        3.13       700     1000      520     2100   
                                         GEOM     BASIS   MCVARS     RHF  

 PROGRAMS   *        TOTAL   CCSD(T)        HF       INT
 CPU TIMES  *        33.72     24.29      5.53      3.80
 REAL TIME  *        39.61 SEC
 DISK USED  *         1.33 GB      
 **********************************************************************************************************************************

 CCSD(T)/USERDEF energy=   -130.317444966794

        CCSD(T)         HF-SCF  
   -130.31744497   -129.84031987
 **********************************************************************************************************************************
 Molpro calculation terminated
 Variable memory released
