
 Primary working directories    : /tmp/r2666/282253.maple
 Secondary working directories  : /tmp/r2666/282253.maple
 Wavefunction directory         : /ddn/home4/r2666/wfu/
 Main file repository           : /tmp/r2666/282253.maple/

 SHA1      : d5ffa45e93fdbca01ffc919aa182cfdae0147319
 NAME      : 2015.1.35
 ARCHNAME  : linux/x86_64
 FC        : /opt/intel/composer_xe_2015.1.133/bin/intel64/ifort
 BLASLIB   : -Wl,-_start-group /opt/intel/mkl/lib/intel64/libmkl_intel_ilp64.a /opt/intel/mkl/lib/intel64/libmkl_intel_thread.a /opt/intel/mkl/lib/intel64/libmkl_core.a -Wl,-_end-group
 id        : olemiss

 Nodes     nprocs
 cn080        1

 Using customized tuning parameters: mindgm=1; mindgv=20; mindgc=4; mindgr=1; noblas=0; minvec=7
 default implementation of scratch files=df  

 ***,hno CCSD(T)/TZ-F12 QFF
 memory, 995, m;
 gthresh,energy=1.d-12,zero=1.d-22,oneint=1.d-22,twoint=1.d-22;
 gthresh,optgrad=1.d-8,optstep=1.d-8;
 nocompress;
 geomtyp=xyz
 bohr
 geometry={
 3
         21        21
 H        0.0000000000        1.6598764139       -1.9190992889
 N        0.0000000000       -0.1582280031       -1.1384682572
 O        0.0000000000        0.0401193792        1.1069779552
 }
 
 basis={
 default=aug-cc-pvtz
 s,C,8236.0,1235.0,280.8, 79.27,25.59, 8.997,3.319
 s,C,0.9059,0.3643,0.1285000
 p,C,56.0,18.71,4.133,0.2827,0.3827,0.1209
 d,C,30.0,10.0,3.3,1.097,0.318
 f,C,7.0,2.3,0.7610
 s,N,11420.0,1712.0,389.3,110.0,35.57,12.54,4.644
 s,N,1.293,0.5118,0.1787
 p,N,79.89,26.63,5.948,1.742,0.555,0.1725
 d,N,45.0,15.0,5.0,1.654,0.469
 f,N,9.9,3.3,1.093
 s,O,15330.0,2299.0,522.4,147.3,47.55,16.76,6.207
 s,O,1.752,0.6882,0.2384
 p,O,103.5,34.46,7.749,2.28,0.7156,0.214
 d,O,63.0,21.0,7.0,2.314,0.645
 f,O,12.9,4.3,1.428
 s,mg,164900.0,24710.0,5628.0,1596.0,521.0;
 s,mg,188.0,73.01,29.90,12.54,4.306,1.826;
 s,mg,0.7417,0.0761,0.145,0.033,0.0129;
 p,mg,950.70,316.90,74.86,23.72,8.669,3.363;
 p,mg,1.310,0.4911,0.2364,0.08733,0.03237,0.00745;
 d,mg,1.601,0.686,0.126,0.294,0.0468;
 f,mg,1.372,0.588,0.094,0.252;
 }
   {hf,maxit=500;accu,20;}
 {ccsd(t),nocheck,maxit=250;orbital,IGNORE_ERROR;}

 Variables initialized (889), CPU time= 0.00 sec
 Commands  initialized (702), CPU time= 0.01 sec, 572 directives.
 Default parameters read. Elapsed time= 0.05 sec

 Checking input...
 Passed
1


                                         ***  PROGRAM SYSTEM MOLPRO  ***
                                       Copyright, TTI GmbH Stuttgart, 2015
                                    Version 2015.1 linked Jul  9 2018 13:16:40


 **********************************************************************************************************************************
 LABEL *   hno CCSD(T)/TZ-F12 QFF                                                        
  64 bit serial version                                                                  DATE: 04-Mar-20          TIME: 13:46:56  
 **********************************************************************************************************************************

 SHA1:             d5ffa45e93fdbca01ffc919aa182cfdae0147319
 **********************************************************************************************************************************

 THRESHOLDS:

 ZERO    =  1.00D-22  ONEINT  =  1.00D-22  TWOINT  =  1.00D-22  PREFAC  =  1.00D-14  LOCALI  =  1.00D-09  EORDER  =  1.00D-04
 ENERGY  =  1.00D-12  ETEST   =  0.00D+00  EDENS   =  0.00D+00  THRDEDEF=  1.00D-06  GRADIENT=  1.00D-02  STEP    =  1.00D-03
 ORBITAL =  1.00D-05  CIVEC   =  1.00D-05  COEFF   =  1.00D-04  PRINTCI =  5.00D-02  PUNCHCI =  9.90D+01  OPTGRAD =  3.00D-04
 OPTENERG=  1.00D-06  OPTSTEP =  3.00D-04  THRGRAD =  1.00D-10  COMPRESS=  1.00D-11  VARMIN  =  1.00D-07  VARMAX  =  1.00D-03
 THRDOUB =  0.00D+00  THRDIV  =  1.00D-05  THRRED  =  1.00D-07  THRPSP  =  1.00D+00  THRDC   =  1.00D-10  THRCS   =  1.00D-10
 THRNRM  =  1.00D-08  THREQ   =  0.00D+00  THRDE   =  1.00D+00  THRREF  =  1.00D-05  SPARFAC =  1.00D+00  THRDLP  =  1.00D-07
 THRDIA  =  1.00D-10  THRDLS  =  1.00D-07  THRGPS  =  0.00D+00  THRKEX  =  0.00D+00  THRDIS  =  2.00D-01  THRVAR  =  1.00D-10
 THRLOC  =  1.00D-06  THRGAP  =  1.00D-06  THRLOCT = -1.00D+00  THRGAPT = -1.00D+00  THRORB  =  1.00D-06  THRMLTP =  0.00D+00
 THRCPQCI=  1.00D-10  KEXTA   =  0.00D+00  THRCOARS=  0.00D+00  SYMTOL  =  1.00D-06  GRADTOL =  1.00D-06  THROVL  =  1.00D-08
 THRORTH =  1.00D-08  GRID    =  1.00D-06  GRIDMAX =  1.00D-03  DTMAX   =  0.00D+00  THROCCDE=  1.00D-01  THROCCDE=  1.00D-01



 THRESHOLDS:

 ZERO    =  1.00D-22  ONEINT  =  1.00D-22  TWOINT  =  1.00D-22  PREFAC  =  1.00D-14  LOCALI  =  1.00D-09  EORDER  =  1.00D-04
 ENERGY  =  1.00D-12  ETEST   =  0.00D+00  EDENS   =  0.00D+00  THRDEDEF=  1.00D-06  GRADIENT=  1.00D-02  STEP    =  1.00D-03
 ORBITAL =  1.00D-05  CIVEC   =  1.00D-05  COEFF   =  1.00D-04  PRINTCI =  5.00D-02  PUNCHCI =  9.90D+01  OPTGRAD =  1.00D-08
 OPTENERG=  1.00D-06  OPTSTEP =  1.00D-08  THRGRAD =  1.00D-10  COMPRESS=  1.00D-11  VARMIN  =  1.00D-07  VARMAX  =  1.00D-03
 THRDOUB =  0.00D+00  THRDIV  =  1.00D-05  THRRED  =  1.00D-07  THRPSP  =  1.00D+00  THRDC   =  1.00D-10  THRCS   =  1.00D-10
 THRNRM  =  1.00D-08  THREQ   =  0.00D+00  THRDE   =  1.00D+00  THRREF  =  1.00D-05  SPARFAC =  1.00D+00  THRDLP  =  1.00D-07
 THRDIA  =  1.00D-10  THRDLS  =  1.00D-07  THRGPS  =  0.00D+00  THRKEX  =  0.00D+00  THRDIS  =  2.00D-01  THRVAR  =  1.00D-10
 THRLOC  =  1.00D-06  THRGAP  =  1.00D-06  THRLOCT = -1.00D+00  THRGAPT = -1.00D+00  THRORB  =  1.00D-06  THRMLTP =  0.00D+00
 THRCPQCI=  1.00D-10  KEXTA   =  0.00D+00  THRCOARS=  0.00D+00  SYMTOL  =  1.00D-06  GRADTOL =  1.00D-06  THROVL  =  1.00D-08
 THRORTH =  1.00D-08  GRID    =  1.00D-06  GRIDMAX =  1.00D-03  DTMAX   =  0.00D+00  THROCCDE=  1.00D-01  THROCCDE=  1.00D-01



 Input parameters for SORTINT:

 COMPRESS =    0.000000
 C_FINAL  =    1.000000
 DEBUG    =   -1.000000
 C_SORT1  =    0.000000
 C_SEWARD =    0.000000
 THRESH   =    0.000000
 IO       =  molpro                                                          
 SPRI     =    0.000000
 SETTING GEOMTYP        =    XYZ
 ZUNIT=BOHR
 

 Variable memory set to  995000000 words,  buffer space   230000 words

 SETTING BASIS          =    USERDEF


 Recomputing integrals since basis changed


 Using spherical harmonics

 Library entry H      S aug-cc-pVTZ          selected for orbital group  1
 Library entry H      P aug-cc-pVTZ          selected for orbital group  1
 Library entry H      D aug-cc-pVTZ          selected for orbital group  1


 PROGRAM * SEWARD (Integral evaluation for generally contracted gaussian basis sets)     Author: Roland Lindh, 1990

 Geometry written to block  1 of record 700


 Point group  Cs  



 ATOMIC COORDINATES

 NR  ATOM    CHARGE       X              Y              Z

   1  H       1.00    0.000000000    1.659876414   -1.919099289
   2  N       7.00    0.000000000   -0.158228003   -1.138468257
   3  O       8.00    0.000000000    0.040119379    1.106977955

 Bond lengths in Bohr (Angstrom)

 1-2  1.978607712  2-3  2.254189517
     ( 1.047034111)     ( 1.192865721)

 Bond angles

  1-2-3  108.18899349

 NUCLEAR CHARGE:                   16
 NUMBER OF PRIMITIVE AOS:         203
 NUMBER OF SYMMETRY AOS:          173
 NUMBER OF CONTRACTIONS:          171   ( 114A'  +  57A"  )
 NUMBER OF CORE ORBITALS:           2   (   2A'  +   0A"  )
 NUMBER OF VALENCE ORBITALS:        9   (   7A'  +   2A"  )


 NUCLEAR REPULSION ENERGY   30.71126435


 Eigenvalues of metric

         1 0.101E-02 0.236E-02 0.324E-02 0.625E-02 0.968E-02 0.136E-01 0.143E-01 0.225E-01
         2 0.356E-01 0.508E-01 0.687E-01 0.939E-01 0.130E+00 0.134E+00 0.140E+00 0.142E+00


 Contracted 2-electron integrals neglected if value below      1.0D-22

       46279749. INTEGRALS WRITTEN OUT IN   11302 BLOCKS ON RECORD 1290 OF FILE 1


 NUMBER OF SORTED TWO-ELECTRON INTEGRALS:   55360566.     BUFFER LENGTH:  32768
 NUMBER OF SEGMENTS:   4  SEGMENT LENGTH:   15997996      RECORD LENGTH: 524288

 Memory used in sort:      16.56 MW

 SORT1 READ    46279749. AND WROTE    46718515. INTEGRALS IN    136 RECORDS. CPU TIME:     0.74 SEC, REAL TIME:     1.04 SEC
 SORT2 READ    46718515. AND WROTE    55360566. INTEGRALS IN      4 RECORDS. CPU TIME:     0.63 SEC, REAL TIME:     0.86 SEC

 FILE SIZES:   FILE 1:   761.4 MBYTE,  FILE 4:   570.5 MBYTE,   TOTAL:   1331.9 MBYTE

 OPERATOR DM      FOR CENTER  0  COORDINATES:    0.000000    0.000000    0.000000


 **********************************************************************************************************************************
 DATASETS  * FILE   NREC   LENGTH (MB)   RECORD NAMES
              1      19      422.12       500      610      700      900      950      970     1000      129      960     1100   
                                          VAR    BASINP    GEOM    SYMINP    ZMAT    AOBASIS   BASIS     P2S    ABASIS      S 
                                         1400     1410     1200     1210     1080     1600     1650     1300     1700   
                                           T        V       H0       H01     AOSYM     SMH    MOLCAS    ERIS     OPER   

 PROGRAMS   *        TOTAL       INT
 CPU TIMES  *         4.05      3.97
 REAL TIME  *         5.51 SEC
 DISK USED  *         1.33 GB      
 **********************************************************************************************************************************


 PROGRAM * RHF-SCF (CLOSED SHELL)       Authors: W. Meyer, H.-J. Werner


 NUMBER OF ELECTRONS:       8+    8-
 CONVERGENCE THRESHOLDS:    1.00E-10 (Density)    1.00E-13 (Energy)
 MAX. NUMBER OF ITERATIONS:      500
 INTERPOLATION TYPE:            DIIS
 INTERPOLATION STEPS:              2 (START)      1 (STEP)
 LEVEL SHIFTS:                  0.00 (CLOSED)  0.00 (OPEN) 



 Orbital guess generated from atomic densities. Full valence occupancy:    9   2

 Molecular orbital dump at record        2100.2

 Initial occupancy:   7   1

 ITERATION    DDIFF          GRAD             ENERGY        2-EL.EN.            DIPOLE MOMENTS         DIIS   ORB.
    1      0.000D+00      0.000D+00      -129.79355018    154.677404    0.00000    0.56583   -0.96502    0    start
    2      0.000D+00      0.862D-02      -129.82083827    155.872684    0.00000    0.58841   -0.20490    1    diag
    3      0.358D-02      0.631D-02      -129.84102987    155.962877    0.00000    0.54087   -0.56190    2    diag
    4      0.135D-02      0.102D-02      -129.84177975    155.700268    0.00000    0.54936   -0.50223    3    diag
    5      0.326D-03      0.329D-03      -129.84189360    155.786602    0.00000    0.55530   -0.50490    4    diag
    6      0.151D-03      0.961D-04      -129.84191200    155.770785    0.00000    0.55595   -0.50107    5    diag
    7      0.600D-04      0.475D-04      -129.84191721    155.773448    0.00000    0.55731   -0.49877    6    diag
    8      0.402D-04      0.155D-04      -129.84191770    155.772692    0.00000    0.55737   -0.49797    7    diag
    9      0.129D-04      0.284D-05      -129.84191772    155.772593    0.00000    0.55732   -0.49781    8    diag
   10      0.253D-05      0.670D-06      -129.84191773    155.772580    0.00000    0.55729   -0.49778    9    orth
   11      0.813D-06      0.136D-06      -129.84191773    155.772576    0.00000    0.55728   -0.49778    9    diag
   12      0.197D-06      0.275D-07      -129.84191773    155.772575    0.00000    0.55728   -0.49777    9    diag
   13      0.476D-07      0.710D-08      -129.84191773    155.772575    0.00000    0.55728   -0.49777    9    diag
   14      0.107D-07      0.130D-08      -129.84191773    155.772575    0.00000    0.55728   -0.49777    9    diag
   15      0.152D-08      0.367D-09      -129.84191773    155.772575    0.00000    0.55728   -0.49777    9    diag
   16      0.333D-09      0.116D-09      -129.84191773    155.772575    0.00000    0.55728   -0.49777    9    diag
   17      0.929D-10      0.339D-10      -129.84191773    155.772575    0.00000    0.55728   -0.49777    0    orth

 Final occupancy:   7   1

 !RHF STATE 1.1 Energy               -129.841917726059
 Nuclear energy                        30.71126435
 One-electron energy                 -238.43946962
 Two-electron energy                   77.88628755
 Virial quotient                       -1.00110426
 !RHF STATE 1.1 Dipole moment           0.00000000     0.55727573    -0.49777345
 Dipole moment /Debye                   0.00000000     1.41636084    -1.26513106

 Orbital energies:

         1.1          2.1          3.1          4.1          5.1          6.1          7.1          8.1          9.1
    -20.649760   -15.707385    -1.540683    -0.990703    -0.750443    -0.668638    -0.424389     0.039974     0.194033

         1.2          2.2          3.2
     -0.601446     0.084401     0.240096

 HOMO      7.1    -0.424389 =     -11.5482eV
 LUMO      8.1     0.039974 =       1.0877eV
 LUMO-HOMO         0.464363 =      12.6360eV


 **********************************************************************************************************************************
 DATASETS  * FILE   NREC   LENGTH (MB)   RECORD NAMES
              1      19      422.12       500      610      700      900      950      970     1000      129      960     1100   
                                          VAR    BASINP    GEOM    SYMINP    ZMAT    AOBASIS   BASIS     P2S    ABASIS      S 
                                         1400     1410     1200     1210     1080     1600     1650     1300     1700   
                                           T        V       H0       H01     AOSYM     SMH    MOLCAS    ERIS     OPER   

              2       4        3.13       700     1000      520     2100   
                                         GEOM     BASIS   MCVARS     RHF  

 PROGRAMS   *        TOTAL        HF       INT
 CPU TIMES  *         8.43      4.38      3.97
 REAL TIME  *        10.87 SEC
 DISK USED  *         1.33 GB      
 **********************************************************************************************************************************


 PROGRAM * CCSD (Closed-shell coupled cluster)     Authors: C. Hampel, H.-J. Werner, 1991, M. Deegan, P.J. Knowles, 1992


 Convergence thresholds:  THRVAR = 1.00D-08  THRDEN = 1.00D-12

 CCSD(T)     terms to be evaluated (factor= 1.000)


 Number of core orbitals:           2 (   2   0 )
 Number of closed-shell orbitals:   6 (   5   1 )
 Number of external orbitals:     163 ( 107  56 )

 Molecular orbitals read from record     2100.2  Type=RHF/CANONICAL (state 1.1)

 Number of N-1 electron functions:               6
 Number of N-2 electron functions:              21
 Number of singly external CSFs:               591
 Number of doubly external CSFs:            250014
 Total number of CSFs:                      250606

 Length of J-op  integral file:               0.00 MB
 Length of K-op  integral file:               1.15 MB
 Length of 3-ext integral record:             0.00 MB

 Memory could be reduced to 19.93 Mwords without degradation in triples

 Integral transformation finished. Total CPU:   0.69 sec, npass=  1  Memory used:   5.10 MW

 Reference energy:                   -129.84191773

 MP2 singlet pair energy:              -0.28525229
 MP2 triplet pair energy:              -0.16612448
 MP2 correlation energy:               -0.45137677
 MP2 total energy:                   -130.29329449

 SCS-MP2 correlation energy:           -0.44566909   (PS=  1.200000  PT=  0.333333)
 SCS-MP2 total energy:               -130.28758681

 ITER.      SQ.NORM     CORR.ENERGY   TOTAL ENERGY   ENERGY CHANGE        DEN1      VAR(S)    VAR(P)  DIIS     TIME  TIME/IT
   1      1.11702684    -0.45407681  -130.29599454    -0.00270005     0.01337825  0.30D-02  0.29D-02  1  1     1.31     0.67
   2      1.12714454    -0.45411892  -130.29603665    -0.00004211    -0.01210592  0.11D-03  0.47D-03  2  2     1.94     0.68
   3      1.13338006    -0.45446809  -130.29638581    -0.00034917    -0.00326025  0.40D-04  0.53D-04  3  3     2.55     0.69
   4      1.13606435    -0.45449908  -130.29641681    -0.00003099    -0.00089498  0.39D-05  0.90D-05  4  4     3.15     0.69
   5      1.13704237    -0.45452813  -130.29644585    -0.00002905    -0.00020023  0.12D-05  0.17D-05  5  5     3.79     0.69
   6      1.13741071    -0.45451409  -130.29643181     0.00001404    -0.00006082  0.11D-06  0.42D-06  6  6     4.39     0.70
   7      1.13748295    -0.45451550  -130.29643323    -0.00000142     0.00000755  0.17D-07  0.87D-07  6  1     5.02     0.70
   8      1.13751616    -0.45451526  -130.29643299     0.00000024    -0.00000418  0.49D-08  0.13D-07  6  2     5.64     0.70
   9      1.13752127    -0.45451517  -130.29643290     0.00000009     0.00000069  0.20D-08  0.14D-08  6  3     6.29     0.70
  10      1.13752149    -0.45451548  -130.29643321    -0.00000031    -0.00000014  0.44D-09  0.21D-09  6  4     6.90     0.70
  11      1.13752004    -0.45451561  -130.29643334    -0.00000013     0.00000033  0.10D-09  0.21D-10  6  5     7.52     0.70
  12      1.13751896    -0.45451574  -130.29643347    -0.00000013     0.00000043  0.14D-10  0.65D-11  6  6     8.15     0.70
  13      1.13751837    -0.45451576  -130.29643349    -0.00000002     0.00000012  0.54D-11  0.12D-11  6  1     8.78     0.70
  14      1.13751791    -0.45451579  -130.29643351    -0.00000002     0.00000010  0.52D-12  0.37D-12  6  3     9.40     0.70
  15      1.13751777    -0.45451579  -130.29643351    -0.00000000     0.00000001  0.12D-12  0.26D-13  6  2    10.02     0.70
  16      1.13751772    -0.45451579  -130.29643351    -0.00000000     0.00000001  0.29D-13  0.65D-14  6  4    10.66     0.70
  17      1.13751771    -0.45451579  -130.29643351    -0.00000000     0.00000001  0.33D-14  0.10D-14  6  5    11.28     0.70
  18      1.13751771    -0.45451579  -130.29643351     0.00000000    -0.00000000  0.36D-15  0.27D-15  6  6    11.92     0.70
  19      1.13751771    -0.45451579  -130.29643351     0.00000000    -0.00000000  0.46D-16  0.29D-16  6  1    12.57     0.70
  20      1.13751771    -0.45451579  -130.29643351     0.00000000    -0.00000000  0.24D-17  0.63D-17  6  3    13.20     0.70
  21      1.13751771    -0.45451579  -130.29643351     0.00000000    -0.00000000  0.41D-18  0.12D-17  6  4    13.83     0.70
  22      1.13751771    -0.45451579  -130.29643351     0.00000000    -0.00000000  0.14D-19  0.42D-18  6  2    14.46     0.70
  23      1.13751771    -0.45451579  -130.29643351    -0.00000000     0.00000000  0.27D-19  0.97D-19  6  5    15.09     0.70
  24      1.13751771    -0.45451579  -130.29643351    -0.00000000     0.00000000  0.40D-20  0.90D-20  6  1    15.73     0.70
  25      1.13751771    -0.45451579  -130.29643351     0.00000000    -0.00000000  0.15D-20  0.60D-21  6  6    16.35     0.71

 Norm of t1 vector:      0.07465448      S-energy:     0.00000000      T1 diagnostic:  0.01523878
                                                                       D1 diagnostic:  0.04107130

 Doubles amplitudes (print threshold =  0.500E-01):

         I         J         SYM. A    SYM. B    A         B      T(IJ, AB)

         6         6         2         2         1         1     -0.13089731


 Total CPU time for triples:      7.42 sec


 RESULTS
 =======

  Reference energy                   -129.841917726059
  CCSD singlet pair energy             -0.311781356391
  CCSD triplet pair energy             -0.142734431217
  CCSD correlation energy              -0.454515787603

  Triples (T) contribution             -0.020709170627
  Total correlation energy             -0.475224958230

  CCSD total energy                  -130.296433513662
  CCSD[T] energy                     -130.318169127817
  CCSD-T energy                      -130.316747635079
 !CCSD(T) total energy               -130.317142684289

 Timing summary (sec):

 STEP                 CPU(USER)    SYS     CPU(TOT)    WALL
 Transformation          0.70      0.13      0.83      0.85
 CCSD iterations        15.66      2.00     17.66     17.64
 Triples                 7.42      0.25      7.67      7.67

 Program statistics:

 Available memory in ccsd:               994999756
 Min. memory needed in ccsd:                887758
 Max. memory used in ccsd:                 1088212
 Max. memory used in cckext:               1535578 (25 integral passes)



 **********************************************************************************************************************************
 DATASETS  * FILE   NREC   LENGTH (MB)   RECORD NAMES
              1      20      480.07       500      610      700      900      950      970     1000      129      960     1100   
                                          VAR    BASINP    GEOM    SYMINP    ZMAT    AOBASIS   BASIS     P2S    ABASIS      S 
                                         1400     1410     1200     1210     1080     1600     1650     1300     1700     1380   
                                           T        V       H0       H01     AOSYM     SMH    MOLCAS    ERIS     OPER     JKOP   

              2       4        3.13       700     1000      520     2100   
                                         GEOM     BASIS   MCVARS     RHF  

 PROGRAMS   *        TOTAL   CCSD(T)        HF       INT
 CPU TIMES  *        32.25     23.82      4.38      3.97
 REAL TIME  *        37.15 SEC
 DISK USED  *         1.33 GB      
 **********************************************************************************************************************************

 CCSD(T)/USERDEF energy=   -130.317142684289

        CCSD(T)         HF-SCF  
   -130.31714268   -129.84191773
 **********************************************************************************************************************************
 Molpro calculation terminated
 Variable memory released
