
 Primary working directories    : /tmp/r2666/282308.maple
 Secondary working directories  : /tmp/r2666/282308.maple
 Wavefunction directory         : /ddn/home4/r2666/wfu/
 Main file repository           : /tmp/r2666/282308.maple/

 SHA1      : d5ffa45e93fdbca01ffc919aa182cfdae0147319
 NAME      : 2015.1.35
 ARCHNAME  : linux/x86_64
 FC        : /opt/intel/composer_xe_2015.1.133/bin/intel64/ifort
 BLASLIB   : -Wl,-_start-group /opt/intel/mkl/lib/intel64/libmkl_intel_ilp64.a /opt/intel/mkl/lib/intel64/libmkl_intel_thread.a /opt/intel/mkl/lib/intel64/libmkl_core.a -Wl,-_end-group
 id        : olemiss

 Nodes     nprocs
 cn076        1

 Using customized tuning parameters: mindgm=1; mindgv=20; mindgc=4; mindgr=1; noblas=0; minvec=7
 default implementation of scratch files=df  

 ***,hno CCSD(T)/TZ-F12 QFF
 memory, 995, m;
 gthresh,energy=1.d-12,zero=1.d-22,oneint=1.d-22,twoint=1.d-22;
 gthresh,optgrad=1.d-8,optstep=1.d-8;
 nocompress;
 geomtyp=xyz
 bohr
 geometry={
 3
         76        76
 H        0.0000000000        1.6682628629       -1.9419929251
 N        0.0000000000       -0.1537935056       -1.1467076875
 O        0.0000000000        0.0272984327        1.1381110215
 }
 
 basis={
 default=aug-cc-pvtz
 s,C,8236.0,1235.0,280.8, 79.27,25.59, 8.997,3.319
 s,C,0.9059,0.3643,0.1285000
 p,C,56.0,18.71,4.133,0.2827,0.3827,0.1209
 d,C,30.0,10.0,3.3,1.097,0.318
 f,C,7.0,2.3,0.7610
 s,N,11420.0,1712.0,389.3,110.0,35.57,12.54,4.644
 s,N,1.293,0.5118,0.1787
 p,N,79.89,26.63,5.948,1.742,0.555,0.1725
 d,N,45.0,15.0,5.0,1.654,0.469
 f,N,9.9,3.3,1.093
 s,O,15330.0,2299.0,522.4,147.3,47.55,16.76,6.207
 s,O,1.752,0.6882,0.2384
 p,O,103.5,34.46,7.749,2.28,0.7156,0.214
 d,O,63.0,21.0,7.0,2.314,0.645
 f,O,12.9,4.3,1.428
 s,mg,164900.0,24710.0,5628.0,1596.0,521.0;
 s,mg,188.0,73.01,29.90,12.54,4.306,1.826;
 s,mg,0.7417,0.0761,0.145,0.033,0.0129;
 p,mg,950.70,316.90,74.86,23.72,8.669,3.363;
 p,mg,1.310,0.4911,0.2364,0.08733,0.03237,0.00745;
 d,mg,1.601,0.686,0.126,0.294,0.0468;
 f,mg,1.372,0.588,0.094,0.252;
 }
   {hf,maxit=500;accu,20;}
 {ccsd(t),nocheck,maxit=250;orbital,IGNORE_ERROR;}

 Variables initialized (889), CPU time= 0.01 sec
 Commands  initialized (702), CPU time= 0.01 sec, 572 directives.
 Default parameters read. Elapsed time= 0.04 sec

 Checking input...
 Passed
1


                                         ***  PROGRAM SYSTEM MOLPRO  ***
                                       Copyright, TTI GmbH Stuttgart, 2015
                                    Version 2015.1 linked Jul  9 2018 13:16:40


 **********************************************************************************************************************************
 LABEL *   hno CCSD(T)/TZ-F12 QFF                                                        
  64 bit serial version                                                                  DATE: 04-Mar-20          TIME: 13:47:42  
 **********************************************************************************************************************************

 SHA1:             d5ffa45e93fdbca01ffc919aa182cfdae0147319
 **********************************************************************************************************************************

 THRESHOLDS:

 ZERO    =  1.00D-22  ONEINT  =  1.00D-22  TWOINT  =  1.00D-22  PREFAC  =  1.00D-14  LOCALI  =  1.00D-09  EORDER  =  1.00D-04
 ENERGY  =  1.00D-12  ETEST   =  0.00D+00  EDENS   =  0.00D+00  THRDEDEF=  1.00D-06  GRADIENT=  1.00D-02  STEP    =  1.00D-03
 ORBITAL =  1.00D-05  CIVEC   =  1.00D-05  COEFF   =  1.00D-04  PRINTCI =  5.00D-02  PUNCHCI =  9.90D+01  OPTGRAD =  3.00D-04
 OPTENERG=  1.00D-06  OPTSTEP =  3.00D-04  THRGRAD =  1.00D-10  COMPRESS=  1.00D-11  VARMIN  =  1.00D-07  VARMAX  =  1.00D-03
 THRDOUB =  0.00D+00  THRDIV  =  1.00D-05  THRRED  =  1.00D-07  THRPSP  =  1.00D+00  THRDC   =  1.00D-10  THRCS   =  1.00D-10
 THRNRM  =  1.00D-08  THREQ   =  0.00D+00  THRDE   =  1.00D+00  THRREF  =  1.00D-05  SPARFAC =  1.00D+00  THRDLP  =  1.00D-07
 THRDIA  =  1.00D-10  THRDLS  =  1.00D-07  THRGPS  =  0.00D+00  THRKEX  =  0.00D+00  THRDIS  =  2.00D-01  THRVAR  =  1.00D-10
 THRLOC  =  1.00D-06  THRGAP  =  1.00D-06  THRLOCT = -1.00D+00  THRGAPT = -1.00D+00  THRORB  =  1.00D-06  THRMLTP =  0.00D+00
 THRCPQCI=  1.00D-10  KEXTA   =  0.00D+00  THRCOARS=  0.00D+00  SYMTOL  =  1.00D-06  GRADTOL =  1.00D-06  THROVL  =  1.00D-08
 THRORTH =  1.00D-08  GRID    =  1.00D-06  GRIDMAX =  1.00D-03  DTMAX   =  0.00D+00  THROCCDE=  1.00D-01  THROCCDE=  1.00D-01



 THRESHOLDS:

 ZERO    =  1.00D-22  ONEINT  =  1.00D-22  TWOINT  =  1.00D-22  PREFAC  =  1.00D-14  LOCALI  =  1.00D-09  EORDER  =  1.00D-04
 ENERGY  =  1.00D-12  ETEST   =  0.00D+00  EDENS   =  0.00D+00  THRDEDEF=  1.00D-06  GRADIENT=  1.00D-02  STEP    =  1.00D-03
 ORBITAL =  1.00D-05  CIVEC   =  1.00D-05  COEFF   =  1.00D-04  PRINTCI =  5.00D-02  PUNCHCI =  9.90D+01  OPTGRAD =  1.00D-08
 OPTENERG=  1.00D-06  OPTSTEP =  1.00D-08  THRGRAD =  1.00D-10  COMPRESS=  1.00D-11  VARMIN  =  1.00D-07  VARMAX  =  1.00D-03
 THRDOUB =  0.00D+00  THRDIV  =  1.00D-05  THRRED  =  1.00D-07  THRPSP  =  1.00D+00  THRDC   =  1.00D-10  THRCS   =  1.00D-10
 THRNRM  =  1.00D-08  THREQ   =  0.00D+00  THRDE   =  1.00D+00  THRREF  =  1.00D-05  SPARFAC =  1.00D+00  THRDLP  =  1.00D-07
 THRDIA  =  1.00D-10  THRDLS  =  1.00D-07  THRGPS  =  0.00D+00  THRKEX  =  0.00D+00  THRDIS  =  2.00D-01  THRVAR  =  1.00D-10
 THRLOC  =  1.00D-06  THRGAP  =  1.00D-06  THRLOCT = -1.00D+00  THRGAPT = -1.00D+00  THRORB  =  1.00D-06  THRMLTP =  0.00D+00
 THRCPQCI=  1.00D-10  KEXTA   =  0.00D+00  THRCOARS=  0.00D+00  SYMTOL  =  1.00D-06  GRADTOL =  1.00D-06  THROVL  =  1.00D-08
 THRORTH =  1.00D-08  GRID    =  1.00D-06  GRIDMAX =  1.00D-03  DTMAX   =  0.00D+00  THROCCDE=  1.00D-01  THROCCDE=  1.00D-01



 Input parameters for SORTINT:

 COMPRESS =    0.000000
 C_FINAL  =    1.000000
 DEBUG    =   -1.000000
 C_SORT1  =    0.000000
 C_SEWARD =    0.000000
 THRESH   =    0.000000
 IO       =  molpro                                                          
 SPRI     =    0.000000
 SETTING GEOMTYP        =    XYZ
 ZUNIT=BOHR
 

 Variable memory set to  995000000 words,  buffer space   230000 words

 SETTING BASIS          =    USERDEF


 Recomputing integrals since basis changed


 Using spherical harmonics

 Library entry H      S aug-cc-pVTZ          selected for orbital group  1
 Library entry H      P aug-cc-pVTZ          selected for orbital group  1
 Library entry H      D aug-cc-pVTZ          selected for orbital group  1


 PROGRAM * SEWARD (Integral evaluation for generally contracted gaussian basis sets)     Author: Roland Lindh, 1990

 Geometry written to block  1 of record 700


 Point group  Cs  



 ATOMIC COORDINATES

 NR  ATOM    CHARGE       X              Y              Z

   1  H       1.00    0.000000000    1.668262863   -1.941992925
   2  N       7.00    0.000000000   -0.153793506   -1.146707687
   3  O       8.00    0.000000000    0.027298433    1.138111022

 Bond lengths in Bohr (Angstrom)

 1-2  1.988056342  2-3  2.291984036
     ( 1.052034110)     ( 1.212865720)

 Bond angles

  1-2-3  109.04843018

 NUCLEAR CHARGE:                   16
 NUMBER OF PRIMITIVE AOS:         203
 NUMBER OF SYMMETRY AOS:          173
 NUMBER OF CONTRACTIONS:          171   ( 114A'  +  57A"  )
 NUMBER OF CORE ORBITALS:           2   (   2A'  +   0A"  )
 NUMBER OF VALENCE ORBITALS:        9   (   7A'  +   2A"  )


 NUCLEAR REPULSION ENERGY   30.24629833


 Eigenvalues of metric

         1 0.105E-02 0.253E-02 0.336E-02 0.639E-02 0.984E-02 0.137E-01 0.145E-01 0.232E-01
         2 0.363E-01 0.538E-01 0.699E-01 0.943E-01 0.131E+00 0.134E+00 0.140E+00 0.142E+00


 Contracted 2-electron integrals neglected if value below      1.0D-22

       46126796. INTEGRALS WRITTEN OUT IN   11265 BLOCKS ON RECORD 1290 OF FILE 1


 NUMBER OF SORTED TWO-ELECTRON INTEGRALS:   55360566.     BUFFER LENGTH:  32768
 NUMBER OF SEGMENTS:   4  SEGMENT LENGTH:   15997996      RECORD LENGTH: 524288

 Memory used in sort:      16.56 MW

 SORT1 READ    46126796. AND WROTE    46564080. INTEGRALS IN    136 RECORDS. CPU TIME:     0.70 SEC, REAL TIME:     1.00 SEC
 SORT2 READ    46564080. AND WROTE    55360566. INTEGRALS IN      4 RECORDS. CPU TIME:     0.61 SEC, REAL TIME:     0.84 SEC

 FILE SIZES:   FILE 1:   759.0 MBYTE,  FILE 4:   570.5 MBYTE,   TOTAL:   1329.5 MBYTE

 OPERATOR DM      FOR CENTER  0  COORDINATES:    0.000000    0.000000    0.000000


 **********************************************************************************************************************************
 DATASETS  * FILE   NREC   LENGTH (MB)   RECORD NAMES
              1      19      421.11       500      610      700      900      950      970     1000      129      960     1100   
                                          VAR    BASINP    GEOM    SYMINP    ZMAT    AOBASIS   BASIS     P2S    ABASIS      S 
                                         1400     1410     1200     1210     1080     1600     1650     1300     1700   
                                           T        V       H0       H01     AOSYM     SMH    MOLCAS    ERIS     OPER   

 PROGRAMS   *        TOTAL       INT
 CPU TIMES  *         3.94      3.85
 REAL TIME  *         5.42 SEC
 DISK USED  *         1.33 GB      
 **********************************************************************************************************************************


 PROGRAM * RHF-SCF (CLOSED SHELL)       Authors: W. Meyer, H.-J. Werner


 NUMBER OF ELECTRONS:       8+    8-
 CONVERGENCE THRESHOLDS:    1.00E-10 (Density)    1.00E-13 (Energy)
 MAX. NUMBER OF ITERATIONS:      500
 INTERPOLATION TYPE:            DIIS
 INTERPOLATION STEPS:              2 (START)      1 (STEP)
 LEVEL SHIFTS:                  0.00 (CLOSED)  0.00 (OPEN) 



 Orbital guess generated from atomic densities. Full valence occupancy:    9   2

 Molecular orbital dump at record        2100.2

 Initial occupancy:   7   1

 ITERATION    DDIFF          GRAD             ENERGY        2-EL.EN.            DIPOLE MOMENTS         DIIS   ORB.
    1      0.000D+00      0.000D+00      -129.78785964    153.838531    0.00000    0.57945   -1.03150    0    start
    2      0.000D+00      0.883D-02      -129.81458649    155.006731    0.00000    0.60030   -0.19710    1    diag
    3      0.367D-02      0.677D-02      -129.83811802    155.137507    0.00000    0.55236   -0.59417    2    diag
    4      0.144D-02      0.105D-02      -129.83891394    154.859008    0.00000    0.55991   -0.53068    3    diag
    5      0.334D-03      0.339D-03      -129.83903583    154.947737    0.00000    0.56601   -0.53307    4    diag
    6      0.153D-03      0.993D-04      -129.83905570    154.931599    0.00000    0.56657   -0.52886    5    diag
    7      0.609D-04      0.501D-04      -129.83906163    154.934084    0.00000    0.56789   -0.52629    6    diag
    8      0.415D-04      0.174D-04      -129.83906230    154.933241    0.00000    0.56795   -0.52535    7    diag
    9      0.148D-04      0.328D-05      -129.83906233    154.933123    0.00000    0.56790   -0.52515    8    diag
   10      0.303D-05      0.744D-06      -129.83906233    154.933108    0.00000    0.56786   -0.52513    9    orth
   11      0.886D-06      0.147D-06      -129.83906233    154.933104    0.00000    0.56785   -0.52513    9    diag
   12      0.207D-06      0.307D-07      -129.83906233    154.933103    0.00000    0.56785   -0.52512    9    diag
   13      0.505D-07      0.820D-08      -129.83906233    154.933103    0.00000    0.56785   -0.52512    9    diag
   14      0.118D-07      0.144D-08      -129.83906233    154.933103    0.00000    0.56785   -0.52512    9    diag
   15      0.145D-08      0.381D-09      -129.83906233    154.933103    0.00000    0.56785   -0.52512    9    diag
   16      0.330D-09      0.109D-09      -129.83906233    154.933103    0.00000    0.56785   -0.52512    9    diag
   17      0.675D-10      0.286D-10      -129.83906233    154.933103    0.00000    0.56785   -0.52512    9    diag
   18      0.200D-10      0.928D-11      -129.83906233    154.933103    0.00000    0.56785   -0.52512    9    diag
   19      0.776D-11      0.212D-11      -129.83906233    154.933103    0.00000    0.56785   -0.52512    9    fixocc
   20      0.171D-11      0.472D-12      -129.83906233    154.933103    0.00000    0.56785   -0.52512    9    orth
   21      0.360D-12      0.597D-12      -129.83906233    154.933103    0.00000    0.56785   -0.52512    0    orth

 Final occupancy:   7   1

 !RHF STATE 1.1 Energy               -129.839062330938
 Nuclear energy                        30.24629833
 One-electron energy                 -237.55191202
 Two-electron energy                   77.46655136
 Virial quotient                       -1.00180199
 !RHF STATE 1.1 Dipole moment           0.00000000     0.56784754    -0.52512312
 Dipole moment /Debye                   0.00000000     1.44322995    -1.33464241

 Orbital energies:

         1.1          2.1          3.1          4.1          5.1          6.1          7.1          8.1          9.1
    -20.651936   -15.711263    -1.523600    -0.994566    -0.743666    -0.662965    -0.429634     0.039540     0.192467

         1.2          2.2          3.2
     -0.591775     0.077177     0.239456

 HOMO      7.1    -0.429634 =     -11.6909eV
 LUMO      8.1     0.039540 =       1.0759eV
 LUMO-HOMO         0.469174 =      12.7669eV


 **********************************************************************************************************************************
 DATASETS  * FILE   NREC   LENGTH (MB)   RECORD NAMES
              1      19      421.11       500      610      700      900      950      970     1000      129      960     1100   
                                          VAR    BASINP    GEOM    SYMINP    ZMAT    AOBASIS   BASIS     P2S    ABASIS      S 
                                         1400     1410     1200     1210     1080     1600     1650     1300     1700   
                                           T        V       H0       H01     AOSYM     SMH    MOLCAS    ERIS     OPER   

              2       4        3.13       700     1000      520     2100   
                                         GEOM     BASIS   MCVARS     RHF  

 PROGRAMS   *        TOTAL        HF       INT
 CPU TIMES  *         8.98      5.04      3.85
 REAL TIME  *        11.63 SEC
 DISK USED  *         1.33 GB      
 **********************************************************************************************************************************


 PROGRAM * CCSD (Closed-shell coupled cluster)     Authors: C. Hampel, H.-J. Werner, 1991, M. Deegan, P.J. Knowles, 1992


 Convergence thresholds:  THRVAR = 1.00D-08  THRDEN = 1.00D-12

 CCSD(T)     terms to be evaluated (factor= 1.000)


 Number of core orbitals:           2 (   2   0 )
 Number of closed-shell orbitals:   6 (   5   1 )
 Number of external orbitals:     163 ( 107  56 )

 Molecular orbitals read from record     2100.2  Type=RHF/CANONICAL (state 1.1)

 Number of N-1 electron functions:               6
 Number of N-2 electron functions:              21
 Number of singly external CSFs:               591
 Number of doubly external CSFs:            250014
 Total number of CSFs:                      250606

 Length of J-op  integral file:               0.00 MB
 Length of K-op  integral file:               1.15 MB
 Length of 3-ext integral record:             0.00 MB

 Memory could be reduced to 19.93 Mwords without degradation in triples

 Integral transformation finished. Total CPU:   0.66 sec, npass=  1  Memory used:   5.10 MW

 Reference energy:                   -129.83906233

 MP2 singlet pair energy:              -0.28736791
 MP2 triplet pair energy:              -0.16751881
 MP2 correlation energy:               -0.45488672
 MP2 total energy:                   -130.29394905

 SCS-MP2 correlation energy:           -0.44907542   (PS=  1.200000  PT=  0.333333)
 SCS-MP2 total energy:               -130.28813775

 ITER.      SQ.NORM     CORR.ENERGY   TOTAL ENERGY   ENERGY CHANGE        DEN1      VAR(S)    VAR(P)  DIIS     TIME  TIME/IT
   1      1.11934848    -0.45683719  -130.29589952    -0.00195046     0.01504038  0.33D-02  0.31D-02  1  1     1.26     0.63
   2      1.13000532    -0.45671122  -130.29577355     0.00012596    -0.01264307  0.12D-03  0.50D-03  2  2     1.84     0.65
   3      1.13668044    -0.45709257  -130.29615490    -0.00038134    -0.00340029  0.46D-04  0.59D-04  3  3     2.42     0.65
   4      1.13961856    -0.45712469  -130.29618702    -0.00003212    -0.00096343  0.46D-05  0.10D-04  4  4     3.01     0.66
   5      1.14074000    -0.45715829  -130.29622062    -0.00003360    -0.00022828  0.14D-05  0.18D-05  5  5     3.62     0.66
   6      1.14115081    -0.45714193  -130.29620426     0.00001636    -0.00006798  0.12D-06  0.44D-06  6  6     4.23     0.66
   7      1.14122539    -0.45714349  -130.29620582    -0.00000156     0.00000879  0.17D-07  0.97D-07  6  1     4.84     0.66
   8      1.14126099    -0.45714302  -130.29620535     0.00000047    -0.00000483  0.50D-08  0.15D-07  6  2     5.48     0.67
   9      1.14126668    -0.45714288  -130.29620521     0.00000014     0.00000098  0.23D-08  0.18D-08  6  3     6.09     0.67
  10      1.14126710    -0.45714322  -130.29620556    -0.00000034    -0.00000025  0.53D-09  0.28D-09  6  4     6.67     0.67
  11      1.14126553    -0.45714337  -130.29620570    -0.00000014     0.00000035  0.13D-09  0.28D-10  6  5     7.27     0.67
  12      1.14126432    -0.45714352  -130.29620586    -0.00000016     0.00000049  0.17D-10  0.81D-11  6  6     7.87     0.67
  13      1.14126364    -0.45714355  -130.29620588    -0.00000002     0.00000013  0.63D-11  0.15D-11  6  1     8.46     0.67
  14      1.14126310    -0.45714357  -130.29620591    -0.00000003     0.00000012  0.57D-12  0.48D-12  6  3     9.08     0.67
  15      1.14126293    -0.45714357  -130.29620591     0.00000000     0.00000001  0.15D-12  0.34D-13  6  2     9.68     0.67
  16      1.14126288    -0.45714358  -130.29620591    -0.00000000     0.00000001  0.34D-13  0.80D-14  6  4    10.28     0.67
  17      1.14126286    -0.45714358  -130.29620591    -0.00000000     0.00000001  0.44D-14  0.13D-14  6  5    10.87     0.67
  18      1.14126286    -0.45714358  -130.29620591     0.00000000     0.00000000  0.50D-15  0.34D-15  6  6    11.43     0.67
  19      1.14126286    -0.45714358  -130.29620591     0.00000000    -0.00000000  0.68D-16  0.44D-16  6  1    12.02     0.67
  20      1.14126286    -0.45714358  -130.29620591     0.00000000    -0.00000000  0.36D-17  0.10D-16  6  3    12.63     0.67
  21      1.14126286    -0.45714358  -130.29620591     0.00000000    -0.00000000  0.56D-18  0.22D-17  6  4    13.23     0.67
  22      1.14126286    -0.45714358  -130.29620591     0.00000000    -0.00000000  0.21D-19  0.78D-18  6  2    13.82     0.67
  23      1.14126286    -0.45714358  -130.29620591    -0.00000000     0.00000000  0.34D-19  0.14D-18  6  4    14.44     0.67
  24      1.14126286    -0.45714358  -130.29620591     0.00000000    -0.00000000  0.36D-20  0.70D-20  6  5    15.04     0.67
  25      1.14126286    -0.45714358  -130.29620591    -0.00000000     0.00000000  0.45D-21  0.58D-21  6  6    15.67     0.67
  26      1.14126286    -0.45714358  -130.29620591     0.00000000    -0.00000000  0.17D-21  0.66D-22  6  1    16.29     0.67
  27      1.14126286    -0.45714358  -130.29620591     0.00000000    -0.00000000  0.64D-22  0.19D-22  6  3    16.93     0.67

 Norm of t1 vector:      0.07824255      S-energy:    -0.00000000      T1 diagnostic:  0.01597119
                                                                       D1 diagnostic:  0.04370766

 Doubles amplitudes (print threshold =  0.500E-01):

         I         J         SYM. A    SYM. B    A         B      T(IJ, AB)

         6         6         2         2         1         1     -0.13677888


 Total CPU time for triples:      6.65 sec


 RESULTS
 =======

  Reference energy                   -129.839062330937
  CCSD singlet pair energy             -0.314082884476
  CCSD triplet pair energy             -0.143060692738
  CCSD correlation energy              -0.457143577215

  Triples (T) contribution             -0.021357390858
  Total correlation energy             -0.478500968073

  CCSD total energy                  -130.296205908152
  CCSD[T] energy                     -130.318685352273
  CCSD-T energy                      -130.317142644404
 !CCSD(T) total energy               -130.317563299010

 Timing summary (sec):

 STEP                 CPU(USER)    SYS     CPU(TOT)    WALL
 Transformation          0.67      0.14      0.81      0.82
 CCSD iterations        16.27      1.94     18.21     18.21
 Triples                 6.65      0.21      6.86      6.87

 Program statistics:

 Available memory in ccsd:               994999756
 Min. memory needed in ccsd:                887758
 Max. memory used in ccsd:                 1088212
 Max. memory used in cckext:               1535578 (27 integral passes)



 **********************************************************************************************************************************
 DATASETS  * FILE   NREC   LENGTH (MB)   RECORD NAMES
              1      20      479.07       500      610      700      900      950      970     1000      129      960     1100   
                                          VAR    BASINP    GEOM    SYMINP    ZMAT    AOBASIS   BASIS     P2S    ABASIS      S 
                                         1400     1410     1200     1210     1080     1600     1650     1300     1700     1380   
                                           T        V       H0       H01     AOSYM     SMH    MOLCAS    ERIS     OPER     JKOP   

              2       4        3.13       700     1000      520     2100   
                                         GEOM     BASIS   MCVARS     RHF  

 PROGRAMS   *        TOTAL   CCSD(T)        HF       INT
 CPU TIMES  *        32.60     23.61      5.04      3.85
 REAL TIME  *        37.62 SEC
 DISK USED  *         1.33 GB      
 **********************************************************************************************************************************

 CCSD(T)/USERDEF energy=   -130.317563299010

        CCSD(T)         HF-SCF  
   -130.31756330   -129.83906233
 **********************************************************************************************************************************
 Molpro calculation terminated
 Variable memory released
