
 Primary working directories    : /tmp/r2666/282354.maple
 Secondary working directories  : /tmp/r2666/282354.maple
 Wavefunction directory         : /ddn/home4/r2666/wfu/
 Main file repository           : /tmp/r2666/282354.maple/

 SHA1      : d5ffa45e93fdbca01ffc919aa182cfdae0147319
 NAME      : 2015.1.35
 ARCHNAME  : linux/x86_64
 FC        : /opt/intel/composer_xe_2015.1.133/bin/intel64/ifort
 BLASLIB   : -Wl,-_start-group /opt/intel/mkl/lib/intel64/libmkl_intel_ilp64.a /opt/intel/mkl/lib/intel64/libmkl_intel_thread.a /opt/intel/mkl/lib/intel64/libmkl_core.a -Wl,-_end-group
 id        : olemiss

 Nodes     nprocs
 cn076        1

 Using customized tuning parameters: mindgm=1; mindgv=20; mindgc=4; mindgr=1; noblas=0; minvec=7
 default implementation of scratch files=df  

 ***,hno CCSD(T)/TZ-F12 QFF
 memory, 995, m;
 gthresh,energy=1.d-12,zero=1.d-22,oneint=1.d-22,twoint=1.d-22;
 gthresh,optgrad=1.d-8,optstep=1.d-8;
 nocompress;
 geomtyp=xyz
 bohr
 geometry={
 3
        122       122
 H        0.0000000000        1.6769708700       -1.9421083792
 N        0.0000000000       -0.1653545971       -1.1460558474
 O        0.0000000000        0.0301515171        1.1375746355
 }
 
 basis={
 default=aug-cc-pvtz
 s,C,8236.0,1235.0,280.8, 79.27,25.59, 8.997,3.319
 s,C,0.9059,0.3643,0.1285000
 p,C,56.0,18.71,4.133,0.2827,0.3827,0.1209
 d,C,30.0,10.0,3.3,1.097,0.318
 f,C,7.0,2.3,0.7610
 s,N,11420.0,1712.0,389.3,110.0,35.57,12.54,4.644
 s,N,1.293,0.5118,0.1787
 p,N,79.89,26.63,5.948,1.742,0.555,0.1725
 d,N,45.0,15.0,5.0,1.654,0.469
 f,N,9.9,3.3,1.093
 s,O,15330.0,2299.0,522.4,147.3,47.55,16.76,6.207
 s,O,1.752,0.6882,0.2384
 p,O,103.5,34.46,7.749,2.28,0.7156,0.214
 d,O,63.0,21.0,7.0,2.314,0.645
 f,O,12.9,4.3,1.428
 s,mg,164900.0,24710.0,5628.0,1596.0,521.0;
 s,mg,188.0,73.01,29.90,12.54,4.306,1.826;
 s,mg,0.7417,0.0761,0.145,0.033,0.0129;
 p,mg,950.70,316.90,74.86,23.72,8.669,3.363;
 p,mg,1.310,0.4911,0.2364,0.08733,0.03237,0.00745;
 d,mg,1.601,0.686,0.126,0.294,0.0468;
 f,mg,1.372,0.588,0.094,0.252;
 }
   {hf,maxit=500;accu,20;}
 {ccsd(t),nocheck,maxit=250;orbital,IGNORE_ERROR;}

 Variables initialized (889), CPU time= 0.01 sec
 Commands  initialized (702), CPU time= 0.01 sec, 572 directives.
 Default parameters read. Elapsed time= 0.05 sec

 Checking input...
 Passed
1


                                         ***  PROGRAM SYSTEM MOLPRO  ***
                                       Copyright, TTI GmbH Stuttgart, 2015
                                    Version 2015.1 linked Jul  9 2018 13:16:40


 **********************************************************************************************************************************
 LABEL *   hno CCSD(T)/TZ-F12 QFF                                                        
  64 bit serial version                                                                  DATE: 04-Mar-20          TIME: 13:48:22  
 **********************************************************************************************************************************

 SHA1:             d5ffa45e93fdbca01ffc919aa182cfdae0147319
 **********************************************************************************************************************************

 THRESHOLDS:

 ZERO    =  1.00D-22  ONEINT  =  1.00D-22  TWOINT  =  1.00D-22  PREFAC  =  1.00D-14  LOCALI  =  1.00D-09  EORDER  =  1.00D-04
 ENERGY  =  1.00D-12  ETEST   =  0.00D+00  EDENS   =  0.00D+00  THRDEDEF=  1.00D-06  GRADIENT=  1.00D-02  STEP    =  1.00D-03
 ORBITAL =  1.00D-05  CIVEC   =  1.00D-05  COEFF   =  1.00D-04  PRINTCI =  5.00D-02  PUNCHCI =  9.90D+01  OPTGRAD =  3.00D-04
 OPTENERG=  1.00D-06  OPTSTEP =  3.00D-04  THRGRAD =  1.00D-10  COMPRESS=  1.00D-11  VARMIN  =  1.00D-07  VARMAX  =  1.00D-03
 THRDOUB =  0.00D+00  THRDIV  =  1.00D-05  THRRED  =  1.00D-07  THRPSP  =  1.00D+00  THRDC   =  1.00D-10  THRCS   =  1.00D-10
 THRNRM  =  1.00D-08  THREQ   =  0.00D+00  THRDE   =  1.00D+00  THRREF  =  1.00D-05  SPARFAC =  1.00D+00  THRDLP  =  1.00D-07
 THRDIA  =  1.00D-10  THRDLS  =  1.00D-07  THRGPS  =  0.00D+00  THRKEX  =  0.00D+00  THRDIS  =  2.00D-01  THRVAR  =  1.00D-10
 THRLOC  =  1.00D-06  THRGAP  =  1.00D-06  THRLOCT = -1.00D+00  THRGAPT = -1.00D+00  THRORB  =  1.00D-06  THRMLTP =  0.00D+00
 THRCPQCI=  1.00D-10  KEXTA   =  0.00D+00  THRCOARS=  0.00D+00  SYMTOL  =  1.00D-06  GRADTOL =  1.00D-06  THROVL  =  1.00D-08
 THRORTH =  1.00D-08  GRID    =  1.00D-06  GRIDMAX =  1.00D-03  DTMAX   =  0.00D+00  THROCCDE=  1.00D-01  THROCCDE=  1.00D-01



 THRESHOLDS:

 ZERO    =  1.00D-22  ONEINT  =  1.00D-22  TWOINT  =  1.00D-22  PREFAC  =  1.00D-14  LOCALI  =  1.00D-09  EORDER  =  1.00D-04
 ENERGY  =  1.00D-12  ETEST   =  0.00D+00  EDENS   =  0.00D+00  THRDEDEF=  1.00D-06  GRADIENT=  1.00D-02  STEP    =  1.00D-03
 ORBITAL =  1.00D-05  CIVEC   =  1.00D-05  COEFF   =  1.00D-04  PRINTCI =  5.00D-02  PUNCHCI =  9.90D+01  OPTGRAD =  1.00D-08
 OPTENERG=  1.00D-06  OPTSTEP =  1.00D-08  THRGRAD =  1.00D-10  COMPRESS=  1.00D-11  VARMIN  =  1.00D-07  VARMAX  =  1.00D-03
 THRDOUB =  0.00D+00  THRDIV  =  1.00D-05  THRRED  =  1.00D-07  THRPSP  =  1.00D+00  THRDC   =  1.00D-10  THRCS   =  1.00D-10
 THRNRM  =  1.00D-08  THREQ   =  0.00D+00  THRDE   =  1.00D+00  THRREF  =  1.00D-05  SPARFAC =  1.00D+00  THRDLP  =  1.00D-07
 THRDIA  =  1.00D-10  THRDLS  =  1.00D-07  THRGPS  =  0.00D+00  THRKEX  =  0.00D+00  THRDIS  =  2.00D-01  THRVAR  =  1.00D-10
 THRLOC  =  1.00D-06  THRGAP  =  1.00D-06  THRLOCT = -1.00D+00  THRGAPT = -1.00D+00  THRORB  =  1.00D-06  THRMLTP =  0.00D+00
 THRCPQCI=  1.00D-10  KEXTA   =  0.00D+00  THRCOARS=  0.00D+00  SYMTOL  =  1.00D-06  GRADTOL =  1.00D-06  THROVL  =  1.00D-08
 THRORTH =  1.00D-08  GRID    =  1.00D-06  GRIDMAX =  1.00D-03  DTMAX   =  0.00D+00  THROCCDE=  1.00D-01  THROCCDE=  1.00D-01



 Input parameters for SORTINT:

 COMPRESS =    0.000000
 C_FINAL  =    1.000000
 DEBUG    =   -1.000000
 C_SORT1  =    0.000000
 C_SEWARD =    0.000000
 THRESH   =    0.000000
 IO       =  molpro                                                          
 SPRI     =    0.000000
 SETTING GEOMTYP        =    XYZ
 ZUNIT=BOHR
 

 Variable memory set to  995000000 words,  buffer space   230000 words

 SETTING BASIS          =    USERDEF


 Recomputing integrals since basis changed


 Using spherical harmonics

 Library entry H      S aug-cc-pVTZ          selected for orbital group  1
 Library entry H      P aug-cc-pVTZ          selected for orbital group  1
 Library entry H      D aug-cc-pVTZ          selected for orbital group  1


 PROGRAM * SEWARD (Integral evaluation for generally contracted gaussian basis sets)     Author: Roland Lindh, 1990

 Geometry written to block  1 of record 700


 Point group  Cs  



 ATOMIC COORDINATES

 NR  ATOM    CHARGE       X              Y              Z

   1  H       1.00    0.000000000    1.676970870   -1.942108379
   2  N       7.00    0.000000000   -0.165354597   -1.146055847
   3  O       8.00    0.000000000    0.030151517    1.137574636

 Bond lengths in Bohr (Angstrom)

 1-2  2.006953602  2-3  2.291984036
     ( 1.062034109)     ( 1.212865720)

 Bond angles

  1-2-3  108.47547239

 NUCLEAR CHARGE:                   16
 NUMBER OF PRIMITIVE AOS:         203
 NUMBER OF SYMMETRY AOS:          173
 NUMBER OF CONTRACTIONS:          171   ( 114A'  +  57A"  )
 NUMBER OF CORE ORBITALS:           2   (   2A'  +   0A"  )
 NUMBER OF VALENCE ORBITALS:        9   (   7A'  +   2A"  )


 NUCLEAR REPULSION ENERGY   30.21157887


 Eigenvalues of metric

         1 0.107E-02 0.254E-02 0.340E-02 0.645E-02 0.102E-01 0.138E-01 0.145E-01 0.236E-01
         2 0.376E-01 0.540E-01 0.708E-01 0.943E-01 0.131E+00 0.135E+00 0.141E+00 0.142E+00


 Contracted 2-electron integrals neglected if value below      1.0D-22

       46128550. INTEGRALS WRITTEN OUT IN   11265 BLOCKS ON RECORD 1290 OF FILE 1


 NUMBER OF SORTED TWO-ELECTRON INTEGRALS:   55360566.     BUFFER LENGTH:  32768
 NUMBER OF SEGMENTS:   4  SEGMENT LENGTH:   15997996      RECORD LENGTH: 524288

 Memory used in sort:      16.56 MW

 SORT1 READ    46128550. AND WROTE    46565851. INTEGRALS IN    136 RECORDS. CPU TIME:     0.72 SEC, REAL TIME:     1.02 SEC
 SORT2 READ    46565851. AND WROTE    55360566. INTEGRALS IN      4 RECORDS. CPU TIME:     0.65 SEC, REAL TIME:     0.85 SEC

 FILE SIZES:   FILE 1:   759.0 MBYTE,  FILE 4:   570.5 MBYTE,   TOTAL:   1329.5 MBYTE

 OPERATOR DM      FOR CENTER  0  COORDINATES:    0.000000    0.000000    0.000000


 **********************************************************************************************************************************
 DATASETS  * FILE   NREC   LENGTH (MB)   RECORD NAMES
              1      19      421.13       500      610      700      900      950      970     1000      129      960     1100   
                                          VAR    BASINP    GEOM    SYMINP    ZMAT    AOBASIS   BASIS     P2S    ABASIS      S 
                                         1400     1410     1200     1210     1080     1600     1650     1300     1700   
                                           T        V       H0       H01     AOSYM     SMH    MOLCAS    ERIS     OPER   

 PROGRAMS   *        TOTAL       INT
 CPU TIMES  *         4.06      3.95
 REAL TIME  *         5.41 SEC
 DISK USED  *         1.33 GB      
 **********************************************************************************************************************************


 PROGRAM * RHF-SCF (CLOSED SHELL)       Authors: W. Meyer, H.-J. Werner


 NUMBER OF ELECTRONS:       8+    8-
 CONVERGENCE THRESHOLDS:    1.00E-10 (Density)    1.00E-13 (Energy)
 MAX. NUMBER OF ITERATIONS:      500
 INTERPOLATION TYPE:            DIIS
 INTERPOLATION STEPS:              2 (START)      1 (STEP)
 LEVEL SHIFTS:                  0.00 (CLOSED)  0.00 (OPEN) 



 Orbital guess generated from atomic densities. Full valence occupancy:    9   2

 Molecular orbital dump at record        2100.2

 Initial occupancy:   7   1

 ITERATION    DDIFF          GRAD             ENERGY        2-EL.EN.            DIPOLE MOMENTS         DIIS   ORB.
    1      0.000D+00      0.000D+00      -129.78696031    153.771238    0.00000    0.56772   -1.03140    0    start
    2      0.000D+00      0.887D-02      -129.81367473    154.948342    0.00000    0.59958   -0.19052    1    diag
    3      0.365D-02      0.684D-02      -129.83772363    155.076914    0.00000    0.54645   -0.59087    2    diag
    4      0.145D-02      0.104D-02      -129.83852001    154.797279    0.00000    0.55423   -0.52756    3    diag
    5      0.332D-03      0.341D-03      -129.83864406    154.886665    0.00000    0.56042   -0.52996    4    diag
    6      0.154D-03      0.100D-03      -129.83866446    154.870370    0.00000    0.56097   -0.52572    5    diag
    7      0.612D-04      0.506D-04      -129.83867052    154.872912    0.00000    0.56232   -0.52314    6    diag
    8      0.416D-04      0.176D-04      -129.83867121    154.872057    0.00000    0.56238   -0.52219    7    diag
    9      0.149D-04      0.333D-05      -129.83867124    154.871935    0.00000    0.56233   -0.52200    8    diag
   10      0.305D-05      0.751D-06      -129.83867124    154.871920    0.00000    0.56229   -0.52197    9    orth
   11      0.880D-06      0.149D-06      -129.83867124    154.871915    0.00000    0.56228   -0.52197    9    diag
   12      0.208D-06      0.312D-07      -129.83867124    154.871914    0.00000    0.56228   -0.52197    9    diag
   13      0.515D-07      0.838D-08      -129.83867124    154.871914    0.00000    0.56228   -0.52197    9    diag
   14      0.121D-07      0.147D-08      -129.83867124    154.871914    0.00000    0.56228   -0.52197    9    diag
   15      0.150D-08      0.391D-09      -129.83867124    154.871914    0.00000    0.56228   -0.52197    9    diag
   16      0.338D-09      0.113D-09      -129.83867124    154.871914    0.00000    0.56228   -0.52197    9    diag
   17      0.733D-10      0.306D-10      -129.83867124    154.871914    0.00000    0.56228   -0.52197    9    diag
   18      0.225D-10      0.101D-10      -129.83867124    154.871914    0.00000    0.56228   -0.52197    9    diag
   19      0.913D-11      0.235D-11      -129.83867124    154.871914    0.00000    0.56228   -0.52197    9    fixocc
   20      0.227D-11      0.814D-12      -129.83867124    154.871914    0.00000    0.56228   -0.52197    0    orth

 Final occupancy:   7   1

 !RHF STATE 1.1 Energy               -129.838671238841
 Nuclear energy                        30.21157887
 One-electron energy                 -237.48620717
 Two-electron energy                   77.43595706
 Virial quotient                       -1.00190280
 !RHF STATE 1.1 Dipole moment           0.00000000     0.56227849    -0.52196719
 Dipole moment /Debye                   0.00000000     1.42907577    -1.32662138

 Orbital energies:

         1.1          2.1          3.1          4.1          5.1          6.1          7.1          8.1          9.1
    -20.651999   -15.712720    -1.523787    -0.991742    -0.742574    -0.662873    -0.429447     0.039538     0.191601

         1.2          2.2          3.2
     -0.592004     0.077328     0.239309

 HOMO      7.1    -0.429447 =     -11.6859eV
 LUMO      8.1     0.039538 =       1.0759eV
 LUMO-HOMO         0.468985 =      12.7617eV


 **********************************************************************************************************************************
 DATASETS  * FILE   NREC   LENGTH (MB)   RECORD NAMES
              1      19      421.13       500      610      700      900      950      970     1000      129      960     1100   
                                          VAR    BASINP    GEOM    SYMINP    ZMAT    AOBASIS   BASIS     P2S    ABASIS      S 
                                         1400     1410     1200     1210     1080     1600     1650     1300     1700   
                                           T        V       H0       H01     AOSYM     SMH    MOLCAS    ERIS     OPER   

              2       4        3.13       700     1000      520     2100   
                                         GEOM     BASIS   MCVARS     RHF  

 PROGRAMS   *        TOTAL        HF       INT
 CPU TIMES  *         8.91      4.85      3.95
 REAL TIME  *        11.34 SEC
 DISK USED  *         1.33 GB      
 **********************************************************************************************************************************


 PROGRAM * CCSD (Closed-shell coupled cluster)     Authors: C. Hampel, H.-J. Werner, 1991, M. Deegan, P.J. Knowles, 1992


 Convergence thresholds:  THRVAR = 1.00D-08  THRDEN = 1.00D-12

 CCSD(T)     terms to be evaluated (factor= 1.000)


 Number of core orbitals:           2 (   2   0 )
 Number of closed-shell orbitals:   6 (   5   1 )
 Number of external orbitals:     163 ( 107  56 )

 Molecular orbitals read from record     2100.2  Type=RHF/CANONICAL (state 1.1)

 Number of N-1 electron functions:               6
 Number of N-2 electron functions:              21
 Number of singly external CSFs:               591
 Number of doubly external CSFs:            250014
 Total number of CSFs:                      250606

 Length of J-op  integral file:               0.00 MB
 Length of K-op  integral file:               1.15 MB
 Length of 3-ext integral record:             0.00 MB

 Memory could be reduced to 19.93 Mwords without degradation in triples

 Integral transformation finished. Total CPU:   0.68 sec, npass=  1  Memory used:   5.10 MW

 Reference energy:                   -129.83867124

 MP2 singlet pair energy:              -0.28759684
 MP2 triplet pair energy:              -0.16765223
 MP2 correlation energy:               -0.45524906
 MP2 total energy:                   -130.29392030

 SCS-MP2 correlation energy:           -0.44943314   (PS=  1.200000  PT=  0.333333)
 SCS-MP2 total energy:               -130.28810438

 ITER.      SQ.NORM     CORR.ENERGY   TOTAL ENERGY   ENERGY CHANGE        DEN1      VAR(S)    VAR(P)  DIIS     TIME  TIME/IT
   1      1.11967484    -0.45717486  -130.29584610    -0.00192580     0.01514535  0.33D-02  0.32D-02  1  1     1.24     0.64
   2      1.13038860    -0.45704433  -130.29571557     0.00013053    -0.01269326  0.12D-03  0.51D-03  2  2     1.82     0.65
   3      1.13711579    -0.45743121  -130.29610245    -0.00038688    -0.00342189  0.47D-04  0.59D-04  3  3     2.42     0.66
   4      1.14006846    -0.45746240  -130.29613364    -0.00003119    -0.00096984  0.48D-05  0.10D-04  4  4     3.01     0.66
   5      1.14119911    -0.45749667  -130.29616791    -0.00003427    -0.00023013  0.14D-05  0.18D-05  5  5     3.59     0.66
   6      1.14161218    -0.45748019  -130.29615143     0.00001648    -0.00006841  0.13D-06  0.43D-06  6  6     4.18     0.66
   7      1.14168748    -0.45748159  -130.29615283    -0.00000140     0.00000870  0.19D-07  0.94D-07  6  1     4.77     0.67
   8      1.14172341    -0.45748107  -130.29615231     0.00000053    -0.00000489  0.48D-08  0.15D-07  6  2     5.35     0.67
   9      1.14172941    -0.45748090  -130.29615214     0.00000017     0.00000095  0.22D-08  0.18D-08  6  3     5.97     0.67
  10      1.14172988    -0.45748124  -130.29615248    -0.00000034    -0.00000024  0.51D-09  0.28D-09  6  4     6.57     0.67
  11      1.14172833    -0.45748139  -130.29615262    -0.00000014     0.00000035  0.13D-09  0.28D-10  6  5     7.16     0.67
  12      1.14172711    -0.45748154  -130.29615278    -0.00000016     0.00000049  0.17D-10  0.81D-11  6  6     7.78     0.67
  13      1.14172642    -0.45748156  -130.29615280    -0.00000002     0.00000013  0.64D-11  0.15D-11  6  1     8.39     0.67
  14      1.14172588    -0.45748159  -130.29615283    -0.00000003     0.00000012  0.58D-12  0.48D-12  6  3     9.00     0.67
  15      1.14172571    -0.45748159  -130.29615283     0.00000000     0.00000001  0.15D-12  0.33D-13  6  2     9.62     0.67
  16      1.14172566    -0.45748159  -130.29615283    -0.00000000     0.00000001  0.35D-13  0.82D-14  6  4    10.23     0.67
  17      1.14172563    -0.45748160  -130.29615283    -0.00000000     0.00000001  0.45D-14  0.13D-14  6  5    10.85     0.67
  18      1.14172563    -0.45748160  -130.29615283     0.00000000     0.00000000  0.49D-15  0.35D-15  6  6    11.41     0.67
  19      1.14172564    -0.45748159  -130.29615283     0.00000000    -0.00000000  0.68D-16  0.45D-16  6  1    11.97     0.67
  20      1.14172564    -0.45748159  -130.29615283     0.00000000    -0.00000000  0.37D-17  0.11D-16  6  3    12.56     0.67
  21      1.14172564    -0.45748159  -130.29615283     0.00000000    -0.00000000  0.55D-18  0.23D-17  6  4    13.14     0.67
  22      1.14172564    -0.45748159  -130.29615283     0.00000000    -0.00000000  0.17D-19  0.79D-18  6  2    13.73     0.67
  23      1.14172564    -0.45748159  -130.29615283    -0.00000000     0.00000000  0.31D-19  0.14D-18  6  4    14.33     0.67
  24      1.14172564    -0.45748159  -130.29615283     0.00000000    -0.00000000  0.37D-20  0.70D-20  6  5    14.93     0.67
  25      1.14172564    -0.45748159  -130.29615283    -0.00000000     0.00000000  0.41D-21  0.59D-21  6  6    15.55     0.67
  26      1.14172564    -0.45748159  -130.29615283     0.00000000    -0.00000000  0.15D-21  0.64D-22  6  1    16.14     0.67
  27      1.14172564    -0.45748159  -130.29615283    -0.00000000    -0.00000000  0.57D-22  0.18D-22  6  3    16.73     0.67

 Norm of t1 vector:      0.07857202      S-energy:     0.00000000      T1 diagnostic:  0.01603845
                                                                       D1 diagnostic:  0.04368004

 Doubles amplitudes (print threshold =  0.500E-01):

         I         J         SYM. A    SYM. B    A         B      T(IJ, AB)

         6         6         2         2         1         1     -0.13676842


 Total CPU time for triples:      7.26 sec


 RESULTS
 =======

  Reference energy                   -129.838671238841
  CCSD singlet pair energy             -0.314372448718
  CCSD triplet pair energy             -0.143109145897
  CCSD correlation energy              -0.457481594614

  Triples (T) contribution             -0.021419460653
  Total correlation energy             -0.478901055268

  CCSD total energy                  -130.296152833455
  CCSD[T] energy                     -130.318702290133
  CCSD-T energy                      -130.317148239539
 !CCSD(T) total energy               -130.317572294109

 Timing summary (sec):

 STEP                 CPU(USER)    SYS     CPU(TOT)    WALL
 Transformation          0.68      0.14      0.82      0.81
 CCSD iterations        16.05      2.13     18.18     18.20
 Triples                 7.26      0.29      7.55      7.54

 Program statistics:

 Available memory in ccsd:               994999756
 Min. memory needed in ccsd:                887758
 Max. memory used in ccsd:                 1088212
 Max. memory used in cckext:               1535578 (27 integral passes)



 **********************************************************************************************************************************
 DATASETS  * FILE   NREC   LENGTH (MB)   RECORD NAMES
              1      20      479.08       500      610      700      900      950      970     1000      129      960     1100   
                                          VAR    BASINP    GEOM    SYMINP    ZMAT    AOBASIS   BASIS     P2S    ABASIS      S 
                                         1400     1410     1200     1210     1080     1600     1650     1300     1700     1380   
                                           T        V       H0       H01     AOSYM     SMH    MOLCAS    ERIS     OPER     JKOP   

              2       4        3.13       700     1000      520     2100   
                                         GEOM     BASIS   MCVARS     RHF  

 PROGRAMS   *        TOTAL   CCSD(T)        HF       INT
 CPU TIMES  *        32.92     24.01      4.85      3.95
 REAL TIME  *        38.26 SEC
 DISK USED  *         1.33 GB      
 **********************************************************************************************************************************

 CCSD(T)/USERDEF energy=   -130.317572294109

        CCSD(T)         HF-SCF  
   -130.31757229   -129.83867124
 **********************************************************************************************************************************
 Molpro calculation terminated
 Variable memory released
