
 Primary working directories    : /tmp/r2666/282356.maple
 Secondary working directories  : /tmp/r2666/282356.maple
 Wavefunction directory         : /ddn/home4/r2666/wfu/
 Main file repository           : /tmp/r2666/282356.maple/

 SHA1      : d5ffa45e93fdbca01ffc919aa182cfdae0147319
 NAME      : 2015.1.35
 ARCHNAME  : linux/x86_64
 FC        : /opt/intel/composer_xe_2015.1.133/bin/intel64/ifort
 BLASLIB   : -Wl,-_start-group /opt/intel/mkl/lib/intel64/libmkl_intel_ilp64.a /opt/intel/mkl/lib/intel64/libmkl_intel_thread.a /opt/intel/mkl/lib/intel64/libmkl_core.a -Wl,-_end-group
 id        : olemiss

 Nodes     nprocs
 cn091        1

 Using customized tuning parameters: mindgm=1; mindgv=20; mindgc=4; mindgr=1; noblas=0; minvec=7
 default implementation of scratch files=df  

 ***,hno CCSD(T)/TZ-F12 QFF
 memory, 995, m;
 gthresh,energy=1.d-12,zero=1.d-22,oneint=1.d-22,twoint=1.d-22;
 gthresh,optgrad=1.d-8,optstep=1.d-8;
 nocompress;
 geomtyp=xyz
 bohr
 geometry={
 3
        124       124
 H        0.0000000000        1.6796992920       -1.9378328988
 N        0.0000000000       -0.1714131244       -1.1382950431
 O        0.0000000000        0.0334816225        1.1255383509
 }
 
 basis={
 default=aug-cc-pvtz
 s,C,8236.0,1235.0,280.8, 79.27,25.59, 8.997,3.319
 s,C,0.9059,0.3643,0.1285000
 p,C,56.0,18.71,4.133,0.2827,0.3827,0.1209
 d,C,30.0,10.0,3.3,1.097,0.318
 f,C,7.0,2.3,0.7610
 s,N,11420.0,1712.0,389.3,110.0,35.57,12.54,4.644
 s,N,1.293,0.5118,0.1787
 p,N,79.89,26.63,5.948,1.742,0.555,0.1725
 d,N,45.0,15.0,5.0,1.654,0.469
 f,N,9.9,3.3,1.093
 s,O,15330.0,2299.0,522.4,147.3,47.55,16.76,6.207
 s,O,1.752,0.6882,0.2384
 p,O,103.5,34.46,7.749,2.28,0.7156,0.214
 d,O,63.0,21.0,7.0,2.314,0.645
 f,O,12.9,4.3,1.428
 s,mg,164900.0,24710.0,5628.0,1596.0,521.0;
 s,mg,188.0,73.01,29.90,12.54,4.306,1.826;
 s,mg,0.7417,0.0761,0.145,0.033,0.0129;
 p,mg,950.70,316.90,74.86,23.72,8.669,3.363;
 p,mg,1.310,0.4911,0.2364,0.08733,0.03237,0.00745;
 d,mg,1.601,0.686,0.126,0.294,0.0468;
 f,mg,1.372,0.588,0.094,0.252;
 }
   {hf,maxit=500;accu,20;}
 {ccsd(t),nocheck,maxit=250;orbital,IGNORE_ERROR;}

 Variables initialized (889), CPU time= 0.00 sec
 Commands  initialized (702), CPU time= 0.02 sec, 572 directives.
 Default parameters read. Elapsed time= 0.04 sec

 Checking input...
 Passed
1


                                         ***  PROGRAM SYSTEM MOLPRO  ***
                                       Copyright, TTI GmbH Stuttgart, 2015
                                    Version 2015.1 linked Jul  9 2018 13:16:40


 **********************************************************************************************************************************
 LABEL *   hno CCSD(T)/TZ-F12 QFF                                                        
  64 bit serial version                                                                  DATE: 04-Mar-20          TIME: 13:48:26  
 **********************************************************************************************************************************

 SHA1:             d5ffa45e93fdbca01ffc919aa182cfdae0147319
 **********************************************************************************************************************************

 THRESHOLDS:

 ZERO    =  1.00D-22  ONEINT  =  1.00D-22  TWOINT  =  1.00D-22  PREFAC  =  1.00D-14  LOCALI  =  1.00D-09  EORDER  =  1.00D-04
 ENERGY  =  1.00D-12  ETEST   =  0.00D+00  EDENS   =  0.00D+00  THRDEDEF=  1.00D-06  GRADIENT=  1.00D-02  STEP    =  1.00D-03
 ORBITAL =  1.00D-05  CIVEC   =  1.00D-05  COEFF   =  1.00D-04  PRINTCI =  5.00D-02  PUNCHCI =  9.90D+01  OPTGRAD =  3.00D-04
 OPTENERG=  1.00D-06  OPTSTEP =  3.00D-04  THRGRAD =  1.00D-10  COMPRESS=  1.00D-11  VARMIN  =  1.00D-07  VARMAX  =  1.00D-03
 THRDOUB =  0.00D+00  THRDIV  =  1.00D-05  THRRED  =  1.00D-07  THRPSP  =  1.00D+00  THRDC   =  1.00D-10  THRCS   =  1.00D-10
 THRNRM  =  1.00D-08  THREQ   =  0.00D+00  THRDE   =  1.00D+00  THRREF  =  1.00D-05  SPARFAC =  1.00D+00  THRDLP  =  1.00D-07
 THRDIA  =  1.00D-10  THRDLS  =  1.00D-07  THRGPS  =  0.00D+00  THRKEX  =  0.00D+00  THRDIS  =  2.00D-01  THRVAR  =  1.00D-10
 THRLOC  =  1.00D-06  THRGAP  =  1.00D-06  THRLOCT = -1.00D+00  THRGAPT = -1.00D+00  THRORB  =  1.00D-06  THRMLTP =  0.00D+00
 THRCPQCI=  1.00D-10  KEXTA   =  0.00D+00  THRCOARS=  0.00D+00  SYMTOL  =  1.00D-06  GRADTOL =  1.00D-06  THROVL  =  1.00D-08
 THRORTH =  1.00D-08  GRID    =  1.00D-06  GRIDMAX =  1.00D-03  DTMAX   =  0.00D+00  THROCCDE=  1.00D-01  THROCCDE=  1.00D-01



 THRESHOLDS:

 ZERO    =  1.00D-22  ONEINT  =  1.00D-22  TWOINT  =  1.00D-22  PREFAC  =  1.00D-14  LOCALI  =  1.00D-09  EORDER  =  1.00D-04
 ENERGY  =  1.00D-12  ETEST   =  0.00D+00  EDENS   =  0.00D+00  THRDEDEF=  1.00D-06  GRADIENT=  1.00D-02  STEP    =  1.00D-03
 ORBITAL =  1.00D-05  CIVEC   =  1.00D-05  COEFF   =  1.00D-04  PRINTCI =  5.00D-02  PUNCHCI =  9.90D+01  OPTGRAD =  1.00D-08
 OPTENERG=  1.00D-06  OPTSTEP =  1.00D-08  THRGRAD =  1.00D-10  COMPRESS=  1.00D-11  VARMIN  =  1.00D-07  VARMAX  =  1.00D-03
 THRDOUB =  0.00D+00  THRDIV  =  1.00D-05  THRRED  =  1.00D-07  THRPSP  =  1.00D+00  THRDC   =  1.00D-10  THRCS   =  1.00D-10
 THRNRM  =  1.00D-08  THREQ   =  0.00D+00  THRDE   =  1.00D+00  THRREF  =  1.00D-05  SPARFAC =  1.00D+00  THRDLP  =  1.00D-07
 THRDIA  =  1.00D-10  THRDLS  =  1.00D-07  THRGPS  =  0.00D+00  THRKEX  =  0.00D+00  THRDIS  =  2.00D-01  THRVAR  =  1.00D-10
 THRLOC  =  1.00D-06  THRGAP  =  1.00D-06  THRLOCT = -1.00D+00  THRGAPT = -1.00D+00  THRORB  =  1.00D-06  THRMLTP =  0.00D+00
 THRCPQCI=  1.00D-10  KEXTA   =  0.00D+00  THRCOARS=  0.00D+00  SYMTOL  =  1.00D-06  GRADTOL =  1.00D-06  THROVL  =  1.00D-08
 THRORTH =  1.00D-08  GRID    =  1.00D-06  GRIDMAX =  1.00D-03  DTMAX   =  0.00D+00  THROCCDE=  1.00D-01  THROCCDE=  1.00D-01



 Input parameters for SORTINT:

 COMPRESS =    0.000000
 C_FINAL  =    1.000000
 DEBUG    =   -1.000000
 C_SORT1  =    0.000000
 C_SEWARD =    0.000000
 THRESH   =    0.000000
 IO       =  molpro                                                          
 SPRI     =    0.000000
 SETTING GEOMTYP        =    XYZ
 ZUNIT=BOHR
 

 Variable memory set to  995000000 words,  buffer space   230000 words

 SETTING BASIS          =    USERDEF


 Recomputing integrals since basis changed


 Using spherical harmonics

 Library entry H      S aug-cc-pVTZ          selected for orbital group  1
 Library entry H      P aug-cc-pVTZ          selected for orbital group  1
 Library entry H      D aug-cc-pVTZ          selected for orbital group  1


 PROGRAM * SEWARD (Integral evaluation for generally contracted gaussian basis sets)     Author: Roland Lindh, 1990

 Geometry written to block  1 of record 700


 Point group  Cs  



 ATOMIC COORDINATES

 NR  ATOM    CHARGE       X              Y              Z

   1  H       1.00    0.000000000    1.679699292   -1.937832899
   2  N       7.00    0.000000000   -0.171413124   -1.138295043
   3  O       8.00    0.000000000    0.033481623    1.125538351

 Bond lengths in Bohr (Angstrom)

 1-2  2.016402232  2-3  2.273086776
     ( 1.067034109)     ( 1.202865721)

 Bond angles

  1-2-3  108.18899349

 NUCLEAR CHARGE:                   16
 NUMBER OF PRIMITIVE AOS:         203
 NUMBER OF SYMMETRY AOS:          173
 NUMBER OF CONTRACTIONS:          171   ( 114A'  +  57A"  )
 NUMBER OF CORE ORBITALS:           2   (   2A'  +   0A"  )
 NUMBER OF VALENCE ORBITALS:        9   (   7A'  +   2A"  )


 NUCLEAR REPULSION ENERGY   30.40801507


 Eigenvalues of metric

         1 0.107E-02 0.245E-02 0.337E-02 0.643E-02 0.104E-01 0.138E-01 0.144E-01 0.236E-01
         2 0.381E-01 0.525E-01 0.707E-01 0.941E-01 0.131E+00 0.135E+00 0.142E+00 0.142E+00


 Contracted 2-electron integrals neglected if value below      1.0D-22

       46187380. INTEGRALS WRITTEN OUT IN   11279 BLOCKS ON RECORD 1290 OF FILE 1


 NUMBER OF SORTED TWO-ELECTRON INTEGRALS:   55360566.     BUFFER LENGTH:  32768
 NUMBER OF SEGMENTS:   4  SEGMENT LENGTH:   15997996      RECORD LENGTH: 524288

 Memory used in sort:      16.56 MW

 SORT1 READ    46187380. AND WROTE    46625282. INTEGRALS IN    136 RECORDS. CPU TIME:     0.98 SEC, REAL TIME:     1.38 SEC
 SORT2 READ    46625282. AND WROTE    55360566. INTEGRALS IN      4 RECORDS. CPU TIME:     0.82 SEC, REAL TIME:     1.16 SEC

 FILE SIZES:   FILE 1:   759.9 MBYTE,  FILE 4:   570.5 MBYTE,   TOTAL:   1330.4 MBYTE

 OPERATOR DM      FOR CENTER  0  COORDINATES:    0.000000    0.000000    0.000000


 **********************************************************************************************************************************
 DATASETS  * FILE   NREC   LENGTH (MB)   RECORD NAMES
              1      19      421.53       500      610      700      900      950      970     1000      129      960     1100   
                                          VAR    BASINP    GEOM    SYMINP    ZMAT    AOBASIS   BASIS     P2S    ABASIS      S 
                                         1400     1410     1200     1210     1080     1600     1650     1300     1700   
                                           T        V       H0       H01     AOSYM     SMH    MOLCAS    ERIS     OPER   

 PROGRAMS   *        TOTAL       INT
 CPU TIMES  *         5.74      5.63
 REAL TIME  *         7.48 SEC
 DISK USED  *         1.33 GB      
 **********************************************************************************************************************************


 PROGRAM * RHF-SCF (CLOSED SHELL)       Authors: W. Meyer, H.-J. Werner


 NUMBER OF ELECTRONS:       8+    8-
 CONVERGENCE THRESHOLDS:    1.00E-10 (Density)    1.00E-13 (Energy)
 MAX. NUMBER OF ITERATIONS:      500
 INTERPOLATION TYPE:            DIIS
 INTERPOLATION STEPS:              2 (START)      1 (STEP)
 LEVEL SHIFTS:                  0.00 (CLOSED)  0.00 (OPEN) 



 Orbital guess generated from atomic densities. Full valence occupancy:    9   2

 Molecular orbital dump at record        2100.2

 Initial occupancy:   7   1

 ITERATION    DDIFF          GRAD             ENERGY        2-EL.EN.            DIPOLE MOMENTS         DIIS   ORB.
    1      0.000D+00      0.000D+00      -129.78936415    154.117430    0.00000    0.55681   -0.99835    0    start
    2      0.000D+00      0.879D-02      -129.81640785    155.320220    0.00000    0.59236   -0.19237    1    diag
    3      0.359D-02      0.665D-02      -129.83899184    155.425448    0.00000    0.53825   -0.57416    2    diag
    4      0.141D-02      0.103D-02      -129.83976783    155.152530    0.00000    0.54638   -0.51268    3    diag
    5      0.327D-03      0.337D-03      -129.83988922    155.241371    0.00000    0.55262   -0.51529    4    diag
    6      0.153D-03      0.996D-04      -129.83990919    155.225145    0.00000    0.55322   -0.51121    5    diag
    7      0.610D-04      0.496D-04      -129.83991496    155.227821    0.00000    0.55462   -0.50878    6    diag
    8      0.411D-04      0.168D-04      -129.83991555    155.227008    0.00000    0.55468   -0.50790    7    diag
    9      0.139D-04      0.313D-05      -129.83991558    155.226894    0.00000    0.55463   -0.50772    8    diag
   10      0.280D-05      0.722D-06      -129.83991558    155.226878    0.00000    0.55459   -0.50769    9    orth
   11      0.841D-06      0.145D-06      -129.83991558    155.226874    0.00000    0.55458   -0.50769    9    diag
   12      0.203D-06      0.300D-07      -129.83991558    155.226873    0.00000    0.55458   -0.50769    9    diag
   13      0.506D-07      0.792D-08      -129.83991558    155.226873    0.00000    0.55458   -0.50769    9    diag
   14      0.118D-07      0.142D-08      -129.83991558    155.226872    0.00000    0.55458   -0.50769    9    diag
   15      0.158D-08      0.394D-09      -129.83991558    155.226873    0.00000    0.55458   -0.50769    9    diag
   16      0.348D-09      0.121D-09      -129.83991558    155.226872    0.00000    0.55458   -0.50769    9    diag
   17      0.913D-10      0.358D-10      -129.83991558    155.226873    0.00000    0.55458   -0.50769    9    diag
   18      0.307D-10      0.117D-10      -129.83991558    155.226873    0.00000    0.55458   -0.50769    9    diag
   19      0.117D-10      0.292D-11      -129.83991558    155.226873    0.00000    0.55458   -0.50769    9    fixocc
   20      0.277D-11      0.644D-12      -129.83991558    155.226873    0.00000    0.55458   -0.50769    9    orth
   21      0.322D-12      0.439D-12      -129.83991558    155.226873    0.00000    0.55458   -0.50769    9    diag
   22      0.154D-12      0.415D-12      -129.83991558    155.226873    0.00000    0.55458   -0.50769    9    diag
   23      0.340D-13      0.498D-12      -129.83991558    155.226873    0.00000    0.55458   -0.50769    0    orth

 Final occupancy:   7   1

 !RHF STATE 1.1 Energy               -129.839915579799
 Nuclear energy                        30.40801507
 One-electron energy                 -237.86136690
 Two-electron energy                   77.61343625
 Virial quotient                       -1.00165294
 !RHF STATE 1.1 Dipole moment           0.00000000     0.55458154    -0.50768690
 Dipole moment /Debye                   0.00000000     1.40951336    -1.29032687

 Orbital energies:

         1.1          2.1          3.1          4.1          5.1          6.1          7.1          8.1          9.1
    -20.651148   -15.711793    -1.532133    -0.988065    -0.745139    -0.665749    -0.426308     0.039703     0.191687

         1.2          2.2          3.2
     -0.596912     0.080884     0.239575

 HOMO      7.1    -0.426308 =     -11.6004eV
 LUMO      8.1     0.039703 =       1.0804eV
 LUMO-HOMO         0.466011 =      12.6808eV


 **********************************************************************************************************************************
 DATASETS  * FILE   NREC   LENGTH (MB)   RECORD NAMES
              1      19      421.53       500      610      700      900      950      970     1000      129      960     1100   
                                          VAR    BASINP    GEOM    SYMINP    ZMAT    AOBASIS   BASIS     P2S    ABASIS      S 
                                         1400     1410     1200     1210     1080     1600     1650     1300     1700   
                                           T        V       H0       H01     AOSYM     SMH    MOLCAS    ERIS     OPER   

              2       4        3.13       700     1000      520     2100   
                                         GEOM     BASIS   MCVARS     RHF  

 PROGRAMS   *        TOTAL        HF       INT
 CPU TIMES  *        13.43      7.69      5.63
 REAL TIME  *        16.74 SEC
 DISK USED  *         1.33 GB      
 **********************************************************************************************************************************


 PROGRAM * CCSD (Closed-shell coupled cluster)     Authors: C. Hampel, H.-J. Werner, 1991, M. Deegan, P.J. Knowles, 1992


 Convergence thresholds:  THRVAR = 1.00D-08  THRDEN = 1.00D-12

 CCSD(T)     terms to be evaluated (factor= 1.000)


 Number of core orbitals:           2 (   2   0 )
 Number of closed-shell orbitals:   6 (   5   1 )
 Number of external orbitals:     163 ( 107  56 )

 Molecular orbitals read from record     2100.2  Type=RHF/CANONICAL (state 1.1)

 Number of N-1 electron functions:               6
 Number of N-2 electron functions:              21
 Number of singly external CSFs:               591
 Number of doubly external CSFs:            250014
 Total number of CSFs:                      250606

 Length of J-op  integral file:               0.00 MB
 Length of K-op  integral file:               1.15 MB
 Length of 3-ext integral record:             0.00 MB

 Memory could be reduced to 19.93 Mwords without degradation in triples

 Integral transformation finished. Total CPU:   1.03 sec, npass=  1  Memory used:   5.10 MW

 Reference energy:                   -129.83991558

 MP2 singlet pair energy:              -0.28670417
 MP2 triplet pair energy:              -0.16704840
 MP2 correlation energy:               -0.45375257
 MP2 total energy:                   -130.29366815

 SCS-MP2 correlation energy:           -0.44798623   (PS=  1.200000  PT=  0.333333)
 SCS-MP2 total energy:               -130.28790181

 ITER.      SQ.NORM     CORR.ENERGY   TOTAL ENERGY   ENERGY CHANGE        DEN1      VAR(S)    VAR(P)  DIIS     TIME  TIME/IT
   1      1.11877270    -0.45604152  -130.29595710    -0.00228895     0.01438897  0.32D-02  0.31D-02  1  1     1.88     0.94
   2      1.12926676    -0.45599364  -130.29590922     0.00004788    -0.01246446  0.12D-03  0.50D-03  2  2     2.72     0.92
   3      1.13582243    -0.45636967  -130.29628525    -0.00037603    -0.00336923  0.45D-04  0.57D-04  3  3     3.57     0.92
   4      1.13866531    -0.45639931  -130.29631489    -0.00002964    -0.00094202  0.45D-05  0.96D-05  4  4     4.43     0.93
   5      1.13973544    -0.45643184  -130.29634742    -0.00003253    -0.00021789  0.14D-05  0.17D-05  5  5     5.29     0.94
   6      1.14013184    -0.45641639  -130.29633197     0.00001544    -0.00006549  0.14D-06  0.42D-06  6  6     6.13     0.94
   7      1.14020768    -0.45641761  -130.29633319    -0.00000122     0.00000798  0.21D-07  0.89D-07  6  1     6.99     0.94
   8      1.14024313    -0.45641717  -130.29633275     0.00000044    -0.00000464  0.47D-08  0.14D-07  6  2     7.84     0.94
   9      1.14024926    -0.45641701  -130.29633259     0.00000016     0.00000075  0.21D-08  0.16D-08  6  3     8.70     0.94
  10      1.14024965    -0.45641735  -130.29633293    -0.00000033    -0.00000017  0.47D-09  0.25D-09  6  4     9.58     0.95
  11      1.14024814    -0.45641748  -130.29633306    -0.00000014     0.00000034  0.12D-09  0.25D-10  6  5    10.50     0.96
  12      1.14024697    -0.45641763  -130.29633321    -0.00000015     0.00000047  0.16D-10  0.74D-11  6  6    11.38     0.96
  13      1.14024631    -0.45641765  -130.29633323    -0.00000002     0.00000013  0.62D-11  0.13D-11  6  1    12.27     0.96
  14      1.14024578    -0.45641768  -130.29633326    -0.00000003     0.00000012  0.57D-12  0.43D-12  6  3    13.18     0.97
  15      1.14024563    -0.45641768  -130.29633326    -0.00000000     0.00000001  0.15D-12  0.30D-13  6  2    14.12     0.97
  16      1.14024558    -0.45641768  -130.29633326    -0.00000000     0.00000001  0.34D-13  0.77D-14  6  4    15.07     0.98
  17      1.14024556    -0.45641768  -130.29633326    -0.00000000     0.00000001  0.40D-14  0.12D-14  6  5    16.02     0.98
  18      1.14024556    -0.45641768  -130.29633326     0.00000000    -0.00000000  0.42D-15  0.33D-15  6  6    16.95     0.99
  19      1.14024557    -0.45641768  -130.29633326     0.00000000    -0.00000000  0.58D-16  0.38D-16  6  1    17.86     0.99
  20      1.14024557    -0.45641768  -130.29633326     0.00000000    -0.00000000  0.33D-17  0.85D-17  6  3    18.80     0.99
  21      1.14024557    -0.45641768  -130.29633326     0.00000000    -0.00000000  0.50D-18  0.17D-17  6  4    19.74     0.99
  22      1.14024557    -0.45641768  -130.29633326     0.00000000    -0.00000000  0.19D-19  0.60D-18  6  2    20.64     0.99
  23      1.14024557    -0.45641768  -130.29633326    -0.00000000     0.00000000  0.31D-19  0.13D-18  6  5    21.51     0.99
  24      1.14024557    -0.45641768  -130.29633326    -0.00000000     0.00000000  0.41D-20  0.12D-19  6  1    22.41     0.99
  25      1.14024557    -0.45641768  -130.29633326     0.00000000    -0.00000000  0.16D-20  0.81D-21  6  6    23.28     0.99

 Norm of t1 vector:      0.07718637      S-energy:     0.00000000      T1 diagnostic:  0.01575560
                                                                       D1 diagnostic:  0.04237067

 Doubles amplitudes (print threshold =  0.500E-01):

         I         J         SYM. A    SYM. B    A         B      T(IJ, AB)

         6         6         2         2         1         1     -0.13374589


 Total CPU time for triples:      9.46 sec


 RESULTS
 =======

  Reference energy                   -129.839915579799
  CCSD singlet pair energy             -0.313436293444
  CCSD triplet pair energy             -0.142981384124
  CCSD correlation energy              -0.456417677568

  Triples (T) contribution             -0.021145116318
  Total correlation energy             -0.477562793886

  CCSD total energy                  -130.296333257367
  CCSD[T] energy                     -130.318568383510
  CCSD-T energy                      -130.317063815432
 !CCSD(T) total energy               -130.317478373685

 Timing summary (sec):

 STEP                 CPU(USER)    SYS     CPU(TOT)    WALL
 Transformation          1.03      0.20      1.23      1.23
 CCSD iterations        22.26      2.61     24.87     24.89
 Triples                 9.46      0.29      9.75      9.75

 Program statistics:

 Available memory in ccsd:               994999756
 Min. memory needed in ccsd:                887758
 Max. memory used in ccsd:                 1088212
 Max. memory used in cckext:               1535578 (25 integral passes)



 **********************************************************************************************************************************
 DATASETS  * FILE   NREC   LENGTH (MB)   RECORD NAMES
              1      20      479.48       500      610      700      900      950      970     1000      129      960     1100   
                                          VAR    BASINP    GEOM    SYMINP    ZMAT    AOBASIS   BASIS     P2S    ABASIS      S 
                                         1400     1410     1200     1210     1080     1600     1650     1300     1700     1380   
                                           T        V       H0       H01     AOSYM     SMH    MOLCAS    ERIS     OPER     JKOP   

              2       4        3.13       700     1000      520     2100   
                                         GEOM     BASIS   MCVARS     RHF  

 PROGRAMS   *        TOTAL   CCSD(T)        HF       INT
 CPU TIMES  *        46.21     32.77      7.69      5.63
 REAL TIME  *        52.65 SEC
 DISK USED  *         1.33 GB      
 **********************************************************************************************************************************

 CCSD(T)/USERDEF energy=   -130.317478373685

        CCSD(T)         HF-SCF  
   -130.31747837   -129.83991558
 **********************************************************************************************************************************
 Molpro calculation terminated
 Variable memory released
