
 Primary working directories    : /tmp/r2666/282343.maple
 Secondary working directories  : /tmp/r2666/282343.maple
 Wavefunction directory         : /ddn/home4/r2666/wfu/
 Main file repository           : /tmp/r2666/282343.maple/

 SHA1      : d5ffa45e93fdbca01ffc919aa182cfdae0147319
 NAME      : 2015.1.35
 ARCHNAME  : linux/x86_64
 FC        : /opt/intel/composer_xe_2015.1.133/bin/intel64/ifort
 BLASLIB   : -Wl,-_start-group /opt/intel/mkl/lib/intel64/libmkl_intel_ilp64.a /opt/intel/mkl/lib/intel64/libmkl_intel_thread.a /opt/intel/mkl/lib/intel64/libmkl_core.a -Wl,-_end-group
 id        : olemiss

 Nodes     nprocs
 cn079        1

 Using customized tuning parameters: mindgm=1; mindgv=20; mindgc=4; mindgr=1; noblas=0; minvec=7
 default implementation of scratch files=df  

 ***,hno CCSD(T)/TZ-F12 QFF
 memory, 995, m;
 gthresh,energy=1.d-12,zero=1.d-22,oneint=1.d-22,twoint=1.d-22;
 gthresh,optgrad=1.d-8,optstep=1.d-8;
 nocompress;
 geomtyp=xyz
 bohr
 geometry={
 3
        111       111
 H        0.0000000000        1.6743395527       -1.9320725783
 N        0.0000000000       -0.1681850993       -1.1364811835
 O        0.0000000000        0.0356133366        1.1179641709
 }
 
 basis={
 default=aug-cc-pvtz
 s,C,8236.0,1235.0,280.8, 79.27,25.59, 8.997,3.319
 s,C,0.9059,0.3643,0.1285000
 p,C,56.0,18.71,4.133,0.2827,0.3827,0.1209
 d,C,30.0,10.0,3.3,1.097,0.318
 f,C,7.0,2.3,0.7610
 s,N,11420.0,1712.0,389.3,110.0,35.57,12.54,4.644
 s,N,1.293,0.5118,0.1787
 p,N,79.89,26.63,5.948,1.742,0.555,0.1725
 d,N,45.0,15.0,5.0,1.654,0.469
 f,N,9.9,3.3,1.093
 s,O,15330.0,2299.0,522.4,147.3,47.55,16.76,6.207
 s,O,1.752,0.6882,0.2384
 p,O,103.5,34.46,7.749,2.28,0.7156,0.214
 d,O,63.0,21.0,7.0,2.314,0.645
 f,O,12.9,4.3,1.428
 s,mg,164900.0,24710.0,5628.0,1596.0,521.0;
 s,mg,188.0,73.01,29.90,12.54,4.306,1.826;
 s,mg,0.7417,0.0761,0.145,0.033,0.0129;
 p,mg,950.70,316.90,74.86,23.72,8.669,3.363;
 p,mg,1.310,0.4911,0.2364,0.08733,0.03237,0.00745;
 d,mg,1.601,0.686,0.126,0.294,0.0468;
 f,mg,1.372,0.588,0.094,0.252;
 }
   {hf,maxit=500;accu,20;}
 {ccsd(t),nocheck,maxit=250;orbital,IGNORE_ERROR;}

 Variables initialized (889), CPU time= 0.01 sec
 Commands  initialized (702), CPU time= 0.01 sec, 572 directives.
 Default parameters read. Elapsed time= 0.05 sec

 Checking input...
 Passed
1


                                         ***  PROGRAM SYSTEM MOLPRO  ***
                                       Copyright, TTI GmbH Stuttgart, 2015
                                    Version 2015.1 linked Jul  9 2018 13:16:40


 **********************************************************************************************************************************
 LABEL *   hno CCSD(T)/TZ-F12 QFF                                                        
  64 bit serial version                                                                  DATE: 04-Mar-20          TIME: 13:48:17  
 **********************************************************************************************************************************

 SHA1:             d5ffa45e93fdbca01ffc919aa182cfdae0147319
 **********************************************************************************************************************************

 THRESHOLDS:

 ZERO    =  1.00D-22  ONEINT  =  1.00D-22  TWOINT  =  1.00D-22  PREFAC  =  1.00D-14  LOCALI  =  1.00D-09  EORDER  =  1.00D-04
 ENERGY  =  1.00D-12  ETEST   =  0.00D+00  EDENS   =  0.00D+00  THRDEDEF=  1.00D-06  GRADIENT=  1.00D-02  STEP    =  1.00D-03
 ORBITAL =  1.00D-05  CIVEC   =  1.00D-05  COEFF   =  1.00D-04  PRINTCI =  5.00D-02  PUNCHCI =  9.90D+01  OPTGRAD =  3.00D-04
 OPTENERG=  1.00D-06  OPTSTEP =  3.00D-04  THRGRAD =  1.00D-10  COMPRESS=  1.00D-11  VARMIN  =  1.00D-07  VARMAX  =  1.00D-03
 THRDOUB =  0.00D+00  THRDIV  =  1.00D-05  THRRED  =  1.00D-07  THRPSP  =  1.00D+00  THRDC   =  1.00D-10  THRCS   =  1.00D-10
 THRNRM  =  1.00D-08  THREQ   =  0.00D+00  THRDE   =  1.00D+00  THRREF  =  1.00D-05  SPARFAC =  1.00D+00  THRDLP  =  1.00D-07
 THRDIA  =  1.00D-10  THRDLS  =  1.00D-07  THRGPS  =  0.00D+00  THRKEX  =  0.00D+00  THRDIS  =  2.00D-01  THRVAR  =  1.00D-10
 THRLOC  =  1.00D-06  THRGAP  =  1.00D-06  THRLOCT = -1.00D+00  THRGAPT = -1.00D+00  THRORB  =  1.00D-06  THRMLTP =  0.00D+00
 THRCPQCI=  1.00D-10  KEXTA   =  0.00D+00  THRCOARS=  0.00D+00  SYMTOL  =  1.00D-06  GRADTOL =  1.00D-06  THROVL  =  1.00D-08
 THRORTH =  1.00D-08  GRID    =  1.00D-06  GRIDMAX =  1.00D-03  DTMAX   =  0.00D+00  THROCCDE=  1.00D-01  THROCCDE=  1.00D-01



 THRESHOLDS:

 ZERO    =  1.00D-22  ONEINT  =  1.00D-22  TWOINT  =  1.00D-22  PREFAC  =  1.00D-14  LOCALI  =  1.00D-09  EORDER  =  1.00D-04
 ENERGY  =  1.00D-12  ETEST   =  0.00D+00  EDENS   =  0.00D+00  THRDEDEF=  1.00D-06  GRADIENT=  1.00D-02  STEP    =  1.00D-03
 ORBITAL =  1.00D-05  CIVEC   =  1.00D-05  COEFF   =  1.00D-04  PRINTCI =  5.00D-02  PUNCHCI =  9.90D+01  OPTGRAD =  1.00D-08
 OPTENERG=  1.00D-06  OPTSTEP =  1.00D-08  THRGRAD =  1.00D-10  COMPRESS=  1.00D-11  VARMIN  =  1.00D-07  VARMAX  =  1.00D-03
 THRDOUB =  0.00D+00  THRDIV  =  1.00D-05  THRRED  =  1.00D-07  THRPSP  =  1.00D+00  THRDC   =  1.00D-10  THRCS   =  1.00D-10
 THRNRM  =  1.00D-08  THREQ   =  0.00D+00  THRDE   =  1.00D+00  THRREF  =  1.00D-05  SPARFAC =  1.00D+00  THRDLP  =  1.00D-07
 THRDIA  =  1.00D-10  THRDLS  =  1.00D-07  THRGPS  =  0.00D+00  THRKEX  =  0.00D+00  THRDIS  =  2.00D-01  THRVAR  =  1.00D-10
 THRLOC  =  1.00D-06  THRGAP  =  1.00D-06  THRLOCT = -1.00D+00  THRGAPT = -1.00D+00  THRORB  =  1.00D-06  THRMLTP =  0.00D+00
 THRCPQCI=  1.00D-10  KEXTA   =  0.00D+00  THRCOARS=  0.00D+00  SYMTOL  =  1.00D-06  GRADTOL =  1.00D-06  THROVL  =  1.00D-08
 THRORTH =  1.00D-08  GRID    =  1.00D-06  GRIDMAX =  1.00D-03  DTMAX   =  0.00D+00  THROCCDE=  1.00D-01  THROCCDE=  1.00D-01



 Input parameters for SORTINT:

 COMPRESS =    0.000000
 C_FINAL  =    1.000000
 DEBUG    =   -1.000000
 C_SORT1  =    0.000000
 C_SEWARD =    0.000000
 THRESH   =    0.000000
 IO       =  molpro                                                          
 SPRI     =    0.000000
 SETTING GEOMTYP        =    XYZ
 ZUNIT=BOHR
 

 Variable memory set to  995000000 words,  buffer space   230000 words

 SETTING BASIS          =    USERDEF


 Recomputing integrals since basis changed


 Using spherical harmonics

 Library entry H      S aug-cc-pVTZ          selected for orbital group  1
 Library entry H      P aug-cc-pVTZ          selected for orbital group  1
 Library entry H      D aug-cc-pVTZ          selected for orbital group  1


 PROGRAM * SEWARD (Integral evaluation for generally contracted gaussian basis sets)     Author: Roland Lindh, 1990

 Geometry written to block  1 of record 700


 Point group  Cs  



 ATOMIC COORDINATES

 NR  ATOM    CHARGE       X              Y              Z

   1  H       1.00    0.000000000    1.674339553   -1.932072578
   2  N       7.00    0.000000000   -0.168185099   -1.136481183
   3  O       8.00    0.000000000    0.035613337    1.117964171

 Bond lengths in Bohr (Angstrom)

 1-2  2.006953602  2-3  2.263638147
     ( 1.062034110)     ( 1.197865721)

 Bond angles

  1-2-3  108.18899349

 NUCLEAR CHARGE:                   16
 NUMBER OF PRIMITIVE AOS:         203
 NUMBER OF SYMMETRY AOS:          173
 NUMBER OF CONTRACTIONS:          171   ( 114A'  +  57A"  )
 NUMBER OF CORE ORBITALS:           2   (   2A'  +   0A"  )
 NUMBER OF VALENCE ORBITALS:        9   (   7A'  +   2A"  )


 NUCLEAR REPULSION ENERGY   30.53735210


 Eigenvalues of metric

         1 0.105E-02 0.241E-02 0.333E-02 0.638E-02 0.102E-01 0.137E-01 0.144E-01 0.233E-01
         2 0.375E-01 0.517E-01 0.700E-01 0.940E-01 0.131E+00 0.134E+00 0.141E+00 0.142E+00


 Contracted 2-electron integrals neglected if value below      1.0D-22

       46228566. INTEGRALS WRITTEN OUT IN   11290 BLOCKS ON RECORD 1290 OF FILE 1


 NUMBER OF SORTED TWO-ELECTRON INTEGRALS:   55360566.     BUFFER LENGTH:  32768
 NUMBER OF SEGMENTS:   4  SEGMENT LENGTH:   15997996      RECORD LENGTH: 524288

 Memory used in sort:      16.56 MW

 SORT1 READ    46228566. AND WROTE    46666836. INTEGRALS IN    136 RECORDS. CPU TIME:     0.74 SEC, REAL TIME:     1.00 SEC
 SORT2 READ    46666836. AND WROTE    55360566. INTEGRALS IN      4 RECORDS. CPU TIME:     0.60 SEC, REAL TIME:     0.84 SEC

 FILE SIZES:   FILE 1:   760.6 MBYTE,  FILE 4:   570.5 MBYTE,   TOTAL:   1331.1 MBYTE

 OPERATOR DM      FOR CENTER  0  COORDINATES:    0.000000    0.000000    0.000000


 **********************************************************************************************************************************
 DATASETS  * FILE   NREC   LENGTH (MB)   RECORD NAMES
              1      19      421.80       500      610      700      900      950      970     1000      129      960     1100   
                                          VAR    BASINP    GEOM    SYMINP    ZMAT    AOBASIS   BASIS     P2S    ABASIS      S 
                                         1400     1410     1200     1210     1080     1600     1650     1300     1700   
                                           T        V       H0       H01     AOSYM     SMH    MOLCAS    ERIS     OPER   

 PROGRAMS   *        TOTAL       INT
 CPU TIMES  *         3.91      3.82
 REAL TIME  *         5.34 SEC
 DISK USED  *         1.33 GB      
 **********************************************************************************************************************************


 PROGRAM * RHF-SCF (CLOSED SHELL)       Authors: W. Meyer, H.-J. Werner


 NUMBER OF ELECTRONS:       8+    8-
 CONVERGENCE THRESHOLDS:    1.00E-10 (Density)    1.00E-13 (Energy)
 MAX. NUMBER OF ITERATIONS:      500
 INTERPOLATION TYPE:            DIIS
 INTERPOLATION STEPS:              2 (START)      1 (STEP)
 LEVEL SHIFTS:                  0.00 (CLOSED)  0.00 (OPEN) 



 Orbital guess generated from atomic densities. Full valence occupancy:    9   2

 Molecular orbital dump at record        2100.2

 Initial occupancy:   7   1

 ITERATION    DDIFF          GRAD             ENERGY        2-EL.EN.            DIPOLE MOMENTS         DIIS   ORB.
    1      0.000D+00      0.000D+00      -129.79114389    154.352727    0.00000    0.55786   -0.98187    0    start
    2      0.000D+00      0.872D-02      -129.81832756    155.558548    0.00000    0.58959   -0.19663    1    diag
    3      0.357D-02      0.651D-02      -129.83989414    155.654655    0.00000    0.53758   -0.56730    2    diag
    4      0.138D-02      0.102D-02      -129.84065826    155.386171    0.00000    0.54586   -0.50672    3    diag
    5      0.326D-03      0.333D-03      -129.84077678    155.474163    0.00000    0.55203   -0.50939    4    diag
    6      0.152D-03      0.983D-04      -129.84079618    155.458079    0.00000    0.55265   -0.50542    5    diag
    7      0.606D-04      0.487D-04      -129.84080171    155.460779    0.00000    0.55404   -0.50306    6    diag
    8      0.407D-04      0.162D-04      -129.84080226    155.459992    0.00000    0.55411   -0.50222    7    diag
    9      0.134D-04      0.301D-05      -129.84080229    155.459884    0.00000    0.55406   -0.50205    8    diag
   10      0.267D-05      0.700D-06      -129.84080229    155.459869    0.00000    0.55402   -0.50202    9    orth
   11      0.825D-06      0.142D-06      -129.84080229    155.459865    0.00000    0.55401   -0.50202    9    diag
   12      0.201D-06      0.290D-07      -129.84080229    155.459864    0.00000    0.55401   -0.50202    9    diag
   13      0.495D-07      0.760D-08      -129.84080229    155.459863    0.00000    0.55401   -0.50202    9    diag
   14      0.114D-07      0.138D-08      -129.84080229    155.459863    0.00000    0.55401   -0.50202    9    diag
   15      0.158D-08      0.388D-09      -129.84080229    155.459863    0.00000    0.55401   -0.50202    9    diag
   16      0.347D-09      0.121D-09      -129.84080229    155.459863    0.00000    0.55401   -0.50202    9    diag
   17      0.950D-10      0.360D-10      -129.84080229    155.459863    0.00000    0.55401   -0.50202    9    diag
   18      0.319D-10      0.115D-10      -129.84080229    155.459863    0.00000    0.55401   -0.50202    9    diag
   19      0.115D-10      0.285D-11      -129.84080229    155.459863    0.00000    0.55401   -0.50202    0    orth

 Final occupancy:   7   1

 !RHF STATE 1.1 Energy               -129.840802286675
 Nuclear energy                        30.53735210
 One-electron energy                 -238.10808607
 Two-electron energy                   77.72993168
 Virial quotient                       -1.00144097
 !RHF STATE 1.1 Dipole moment           0.00000000     0.55401091    -0.50201704
 Dipole moment /Debye                   0.00000000     1.40806304    -1.27591646

 Orbital energies:

         1.1          2.1          3.1          4.1          5.1          6.1          7.1          8.1          9.1
    -20.650578   -15.710283    -1.536350    -0.988118    -0.747259    -0.667204    -0.425064     0.039814     0.192426

         1.2          2.2          3.2
     -0.599256     0.082639     0.239797

 HOMO      7.1    -0.425064 =     -11.5666eV
 LUMO      8.1     0.039814 =       1.0834eV
 LUMO-HOMO         0.464878 =      12.6500eV


 **********************************************************************************************************************************
 DATASETS  * FILE   NREC   LENGTH (MB)   RECORD NAMES
              1      19      421.80       500      610      700      900      950      970     1000      129      960     1100   
                                          VAR    BASINP    GEOM    SYMINP    ZMAT    AOBASIS   BASIS     P2S    ABASIS      S 
                                         1400     1410     1200     1210     1080     1600     1650     1300     1700   
                                           T        V       H0       H01     AOSYM     SMH    MOLCAS    ERIS     OPER   

              2       4        3.13       700     1000      520     2100   
                                         GEOM     BASIS   MCVARS     RHF  

 PROGRAMS   *        TOTAL        HF       INT
 CPU TIMES  *         8.49      4.58      3.82
 REAL TIME  *        11.01 SEC
 DISK USED  *         1.33 GB      
 **********************************************************************************************************************************


 PROGRAM * CCSD (Closed-shell coupled cluster)     Authors: C. Hampel, H.-J. Werner, 1991, M. Deegan, P.J. Knowles, 1992


 Convergence thresholds:  THRVAR = 1.00D-08  THRDEN = 1.00D-12

 CCSD(T)     terms to be evaluated (factor= 1.000)


 Number of core orbitals:           2 (   2   0 )
 Number of closed-shell orbitals:   6 (   5   1 )
 Number of external orbitals:     163 ( 107  56 )

 Molecular orbitals read from record     2100.2  Type=RHF/CANONICAL (state 1.1)

 Number of N-1 electron functions:               6
 Number of N-2 electron functions:              21
 Number of singly external CSFs:               591
 Number of doubly external CSFs:            250014
 Total number of CSFs:                      250606

 Length of J-op  integral file:               0.00 MB
 Length of K-op  integral file:               1.15 MB
 Length of 3-ext integral record:             0.00 MB

 Memory could be reduced to 19.93 Mwords without degradation in triples

 Integral transformation finished. Total CPU:   0.65 sec, npass=  1  Memory used:   5.10 MW

 Reference energy:                   -129.84080229

 MP2 singlet pair energy:              -0.28608947
 MP2 triplet pair energy:              -0.16665053
 MP2 correlation energy:               -0.45274000
 MP2 total energy:                   -130.29354229

 SCS-MP2 correlation energy:           -0.44700103   (PS=  1.200000  PT=  0.333333)
 SCS-MP2 total energy:               -130.28780332

 ITER.      SQ.NORM     CORR.ENERGY   TOTAL ENERGY   ENERGY CHANGE        DEN1      VAR(S)    VAR(P)  DIIS     TIME  TIME/IT
   1      1.11806857    -0.45522418  -130.29602647    -0.00248418     0.01393634  0.31D-02  0.30D-02  1  1     1.25     0.64
   2      1.12840655    -0.45521947  -130.29602176     0.00000471    -0.01231176  0.11D-03  0.49D-03  2  2     1.84     0.65
   3      1.13483235    -0.45558527  -130.29638755    -0.00036579    -0.00332592  0.43D-04  0.55D-04  3  3     2.43     0.66
   4      1.13760626    -0.45561498  -130.29641727    -0.00002972    -0.00092243  0.43D-05  0.93D-05  4  4     3.04     0.66
   5      1.13863732    -0.45564613  -130.29644842    -0.00003115    -0.00021022  0.14D-05  0.17D-05  5  5     3.64     0.66
   6      1.13902235    -0.45563130  -130.29643359     0.00001483    -0.00006356  0.13D-06  0.42D-06  6  6     4.21     0.66
   7      1.13909730    -0.45563255  -130.29643483    -0.00000125     0.00000771  0.20D-07  0.88D-07  6  1     4.81     0.66
   8      1.13913200    -0.45563219  -130.29643447     0.00000036    -0.00000445  0.48D-08  0.14D-07  6  2     5.39     0.66
   9      1.13913785    -0.45563205  -130.29643433     0.00000014     0.00000069  0.20D-08  0.15D-08  6  3     5.95     0.66
  10      1.13913817    -0.45563237  -130.29643466    -0.00000033    -0.00000014  0.46D-09  0.23D-09  6  4     6.56     0.66
  11      1.13913668    -0.45563250  -130.29643479    -0.00000013     0.00000034  0.11D-09  0.23D-10  6  5     7.12     0.66
  12      1.13913554    -0.45563265  -130.29643493    -0.00000014     0.00000046  0.15D-10  0.70D-11  6  6     7.70     0.66
  13      1.13913490    -0.45563266  -130.29643495    -0.00000002     0.00000012  0.59D-11  0.13D-11  6  1     8.29     0.67
  14      1.13913440    -0.45563269  -130.29643498    -0.00000003     0.00000011  0.55D-12  0.41D-12  6  3     8.87     0.67
  15      1.13913425    -0.45563269  -130.29643498    -0.00000000     0.00000001  0.14D-12  0.28D-13  6  2     9.45     0.67
  16      1.13913421    -0.45563269  -130.29643498    -0.00000000     0.00000001  0.32D-13  0.72D-14  6  4    10.04     0.67
  17      1.13913419    -0.45563269  -130.29643498    -0.00000000     0.00000001  0.37D-14  0.12D-14  6  5    10.64     0.67
  18      1.13913419    -0.45563269  -130.29643498     0.00000000    -0.00000000  0.39D-15  0.30D-15  6  6    11.24     0.67
  19      1.13913419    -0.45563269  -130.29643498     0.00000000    -0.00000000  0.52D-16  0.34D-16  6  1    11.84     0.67
  20      1.13913419    -0.45563269  -130.29643498     0.00000000    -0.00000000  0.30D-17  0.74D-17  6  3    12.43     0.67
  21      1.13913419    -0.45563269  -130.29643498     0.00000000    -0.00000000  0.47D-18  0.15D-17  6  4    13.01     0.67
  22      1.13913419    -0.45563269  -130.29643498     0.00000000    -0.00000000  0.19D-19  0.52D-18  6  2    13.62     0.67
  23      1.13913419    -0.45563269  -130.29643498    -0.00000000     0.00000000  0.27D-19  0.12D-18  6  5    14.20     0.67
  24      1.13913419    -0.45563269  -130.29643498    -0.00000000     0.00000000  0.40D-20  0.11D-19  6  1    14.81     0.67
  25      1.13913419    -0.45563269  -130.29643498     0.00000000    -0.00000000  0.15D-20  0.70D-21  6  6    15.43     0.67

 Norm of t1 vector:      0.07616878      S-energy:     0.00000000      T1 diagnostic:  0.01554789
                                                                       D1 diagnostic:  0.04172625

 Doubles amplitudes (print threshold =  0.500E-01):

         I         J         SYM. A    SYM. B    A         B      T(IJ, AB)

         6         6         2         2         1         1     -0.13227902


 Total CPU time for triples:      6.34 sec


 RESULTS
 =======

  Reference energy                   -129.840802286675
  CCSD singlet pair energy             -0.312751146791
  CCSD triplet pair energy             -0.142881545446
  CCSD correlation energy              -0.455632692235

  Triples (T) contribution             -0.020959931106
  Total correlation energy             -0.476592623342

  CCSD total energy                  -130.296434978910
  CCSD[T] energy                     -130.318458147075
  CCSD-T energy                      -130.316988070099
 !CCSD(T) total energy               -130.317394910017

 Timing summary (sec):

 STEP                 CPU(USER)    SYS     CPU(TOT)    WALL
 Transformation          0.66      0.16      0.82      0.82
 CCSD iterations        14.78      1.90     16.68     16.68
 Triples                 6.34      0.25      6.59      6.59

 Program statistics:

 Available memory in ccsd:               994999756
 Min. memory needed in ccsd:                887758
 Max. memory used in ccsd:                 1088212
 Max. memory used in cckext:               1535578 (25 integral passes)



 **********************************************************************************************************************************
 DATASETS  * FILE   NREC   LENGTH (MB)   RECORD NAMES
              1      20      479.75       500      610      700      900      950      970     1000      129      960     1100   
                                          VAR    BASINP    GEOM    SYMINP    ZMAT    AOBASIS   BASIS     P2S    ABASIS      S 
                                         1400     1410     1200     1210     1080     1600     1650     1300     1700     1380   
                                           T        V       H0       H01     AOSYM     SMH    MOLCAS    ERIS     OPER     JKOP   

              2       4        3.13       700     1000      520     2100   
                                         GEOM     BASIS   MCVARS     RHF  

 PROGRAMS   *        TOTAL   CCSD(T)        HF       INT
 CPU TIMES  *        30.31     21.82      4.58      3.82
 REAL TIME  *        35.17 SEC
 DISK USED  *         1.33 GB      
 **********************************************************************************************************************************

 CCSD(T)/USERDEF energy=   -130.317394910017

        CCSD(T)         HF-SCF  
   -130.31739491   -129.84080229
 **********************************************************************************************************************************
 Molpro calculation terminated
 Variable memory released
