
 Primary working directories    : /tmp/r2666/282341.maple
 Secondary working directories  : /tmp/r2666/282341.maple
 Wavefunction directory         : /ddn/home4/r2666/wfu/
 Main file repository           : /tmp/r2666/282341.maple/

 SHA1      : d5ffa45e93fdbca01ffc919aa182cfdae0147319
 NAME      : 2015.1.35
 ARCHNAME  : linux/x86_64
 FC        : /opt/intel/composer_xe_2015.1.133/bin/intel64/ifort
 BLASLIB   : -Wl,-_start-group /opt/intel/mkl/lib/intel64/libmkl_intel_ilp64.a /opt/intel/mkl/lib/intel64/libmkl_intel_thread.a /opt/intel/mkl/lib/intel64/libmkl_core.a -Wl,-_end-group
 id        : olemiss

 Nodes     nprocs
 cn075        1

 Using customized tuning parameters: mindgm=1; mindgv=20; mindgc=4; mindgr=1; noblas=0; minvec=7
 default implementation of scratch files=df  

 ***,hno CCSD(T)/TZ-F12 QFF
 memory, 995, m;
 gthresh,energy=1.d-12,zero=1.d-22,oneint=1.d-22,twoint=1.d-22;
 gthresh,optgrad=1.d-8,optstep=1.d-8;
 nocompress;
 geomtyp=xyz
 bohr
 geometry={
 3
        109       109
 H        0.0000000000        1.6732280939       -1.9406780253
 N        0.0000000000       -0.1618369187       -1.1516517185
 O        0.0000000000        0.0303766148        1.1417401528
 }
 
 basis={
 default=aug-cc-pvtz
 s,C,8236.0,1235.0,280.8, 79.27,25.59, 8.997,3.319
 s,C,0.9059,0.3643,0.1285000
 p,C,56.0,18.71,4.133,0.2827,0.3827,0.1209
 d,C,30.0,10.0,3.3,1.097,0.318
 f,C,7.0,2.3,0.7610
 s,N,11420.0,1712.0,389.3,110.0,35.57,12.54,4.644
 s,N,1.293,0.5118,0.1787
 p,N,79.89,26.63,5.948,1.742,0.555,0.1725
 d,N,45.0,15.0,5.0,1.654,0.469
 f,N,9.9,3.3,1.093
 s,O,15330.0,2299.0,522.4,147.3,47.55,16.76,6.207
 s,O,1.752,0.6882,0.2384
 p,O,103.5,34.46,7.749,2.28,0.7156,0.214
 d,O,63.0,21.0,7.0,2.314,0.645
 f,O,12.9,4.3,1.428
 s,mg,164900.0,24710.0,5628.0,1596.0,521.0;
 s,mg,188.0,73.01,29.90,12.54,4.306,1.826;
 s,mg,0.7417,0.0761,0.145,0.033,0.0129;
 p,mg,950.70,316.90,74.86,23.72,8.669,3.363;
 p,mg,1.310,0.4911,0.2364,0.08733,0.03237,0.00745;
 d,mg,1.601,0.686,0.126,0.294,0.0468;
 f,mg,1.372,0.588,0.094,0.252;
 }
   {hf,maxit=500;accu,20;}
 {ccsd(t),nocheck,maxit=250;orbital,IGNORE_ERROR;}

 Variables initialized (889), CPU time= 0.01 sec
 Commands  initialized (702), CPU time= 0.01 sec, 572 directives.
 Default parameters read. Elapsed time= 0.06 sec

 Checking input...
 Passed
1


                                         ***  PROGRAM SYSTEM MOLPRO  ***
                                       Copyright, TTI GmbH Stuttgart, 2015
                                    Version 2015.1 linked Jul  9 2018 13:16:40


 **********************************************************************************************************************************
 LABEL *   hno CCSD(T)/TZ-F12 QFF                                                        
  64 bit serial version                                                                  DATE: 04-Mar-20          TIME: 13:48:16  
 **********************************************************************************************************************************

 SHA1:             d5ffa45e93fdbca01ffc919aa182cfdae0147319
 **********************************************************************************************************************************

 THRESHOLDS:

 ZERO    =  1.00D-22  ONEINT  =  1.00D-22  TWOINT  =  1.00D-22  PREFAC  =  1.00D-14  LOCALI  =  1.00D-09  EORDER  =  1.00D-04
 ENERGY  =  1.00D-12  ETEST   =  0.00D+00  EDENS   =  0.00D+00  THRDEDEF=  1.00D-06  GRADIENT=  1.00D-02  STEP    =  1.00D-03
 ORBITAL =  1.00D-05  CIVEC   =  1.00D-05  COEFF   =  1.00D-04  PRINTCI =  5.00D-02  PUNCHCI =  9.90D+01  OPTGRAD =  3.00D-04
 OPTENERG=  1.00D-06  OPTSTEP =  3.00D-04  THRGRAD =  1.00D-10  COMPRESS=  1.00D-11  VARMIN  =  1.00D-07  VARMAX  =  1.00D-03
 THRDOUB =  0.00D+00  THRDIV  =  1.00D-05  THRRED  =  1.00D-07  THRPSP  =  1.00D+00  THRDC   =  1.00D-10  THRCS   =  1.00D-10
 THRNRM  =  1.00D-08  THREQ   =  0.00D+00  THRDE   =  1.00D+00  THRREF  =  1.00D-05  SPARFAC =  1.00D+00  THRDLP  =  1.00D-07
 THRDIA  =  1.00D-10  THRDLS  =  1.00D-07  THRGPS  =  0.00D+00  THRKEX  =  0.00D+00  THRDIS  =  2.00D-01  THRVAR  =  1.00D-10
 THRLOC  =  1.00D-06  THRGAP  =  1.00D-06  THRLOCT = -1.00D+00  THRGAPT = -1.00D+00  THRORB  =  1.00D-06  THRMLTP =  0.00D+00
 THRCPQCI=  1.00D-10  KEXTA   =  0.00D+00  THRCOARS=  0.00D+00  SYMTOL  =  1.00D-06  GRADTOL =  1.00D-06  THROVL  =  1.00D-08
 THRORTH =  1.00D-08  GRID    =  1.00D-06  GRIDMAX =  1.00D-03  DTMAX   =  0.00D+00  THROCCDE=  1.00D-01  THROCCDE=  1.00D-01



 THRESHOLDS:

 ZERO    =  1.00D-22  ONEINT  =  1.00D-22  TWOINT  =  1.00D-22  PREFAC  =  1.00D-14  LOCALI  =  1.00D-09  EORDER  =  1.00D-04
 ENERGY  =  1.00D-12  ETEST   =  0.00D+00  EDENS   =  0.00D+00  THRDEDEF=  1.00D-06  GRADIENT=  1.00D-02  STEP    =  1.00D-03
 ORBITAL =  1.00D-05  CIVEC   =  1.00D-05  COEFF   =  1.00D-04  PRINTCI =  5.00D-02  PUNCHCI =  9.90D+01  OPTGRAD =  1.00D-08
 OPTENERG=  1.00D-06  OPTSTEP =  1.00D-08  THRGRAD =  1.00D-10  COMPRESS=  1.00D-11  VARMIN  =  1.00D-07  VARMAX  =  1.00D-03
 THRDOUB =  0.00D+00  THRDIV  =  1.00D-05  THRRED  =  1.00D-07  THRPSP  =  1.00D+00  THRDC   =  1.00D-10  THRCS   =  1.00D-10
 THRNRM  =  1.00D-08  THREQ   =  0.00D+00  THRDE   =  1.00D+00  THRREF  =  1.00D-05  SPARFAC =  1.00D+00  THRDLP  =  1.00D-07
 THRDIA  =  1.00D-10  THRDLS  =  1.00D-07  THRGPS  =  0.00D+00  THRKEX  =  0.00D+00  THRDIS  =  2.00D-01  THRVAR  =  1.00D-10
 THRLOC  =  1.00D-06  THRGAP  =  1.00D-06  THRLOCT = -1.00D+00  THRGAPT = -1.00D+00  THRORB  =  1.00D-06  THRMLTP =  0.00D+00
 THRCPQCI=  1.00D-10  KEXTA   =  0.00D+00  THRCOARS=  0.00D+00  SYMTOL  =  1.00D-06  GRADTOL =  1.00D-06  THROVL  =  1.00D-08
 THRORTH =  1.00D-08  GRID    =  1.00D-06  GRIDMAX =  1.00D-03  DTMAX   =  0.00D+00  THROCCDE=  1.00D-01  THROCCDE=  1.00D-01



 Input parameters for SORTINT:

 COMPRESS =    0.000000
 C_FINAL  =    1.000000
 DEBUG    =   -1.000000
 C_SORT1  =    0.000000
 C_SEWARD =    0.000000
 THRESH   =    0.000000
 IO       =  molpro                                                          
 SPRI     =    0.000000
 SETTING GEOMTYP        =    XYZ
 ZUNIT=BOHR
 

 Variable memory set to  995000000 words,  buffer space   230000 words

 SETTING BASIS          =    USERDEF


 Recomputing integrals since basis changed


 Using spherical harmonics

 Library entry H      S aug-cc-pVTZ          selected for orbital group  1
 Library entry H      P aug-cc-pVTZ          selected for orbital group  1
 Library entry H      D aug-cc-pVTZ          selected for orbital group  1


 PROGRAM * SEWARD (Integral evaluation for generally contracted gaussian basis sets)     Author: Roland Lindh, 1990

 Geometry written to block  1 of record 700


 Point group  Cs  



 ATOMIC COORDINATES

 NR  ATOM    CHARGE       X              Y              Z

   1  H       1.00    0.000000000    1.673228094   -1.940678025
   2  N       7.00    0.000000000   -0.161836919   -1.151651718
   3  O       8.00    0.000000000    0.030376615    1.141740153

 Bond lengths in Bohr (Angstrom)

 1-2  1.997504972  2-3  2.301432666
     ( 1.057034110)     ( 1.217865720)

 Bond angles

  1-2-3  108.47547239

 NUCLEAR CHARGE:                   16
 NUMBER OF PRIMITIVE AOS:         203
 NUMBER OF SYMMETRY AOS:          173
 NUMBER OF CONTRACTIONS:          171   ( 114A'  +  57A"  )
 NUMBER OF CORE ORBITALS:           2   (   2A'  +   0A"  )
 NUMBER OF VALENCE ORBITALS:        9   (   7A'  +   2A"  )


 NUCLEAR REPULSION ENERGY   30.12740973


 Eigenvalues of metric

         1 0.107E-02 0.258E-02 0.340E-02 0.644E-02 0.100E-01 0.138E-01 0.146E-01 0.234E-01
         2 0.370E-01 0.546E-01 0.707E-01 0.943E-01 0.132E+00 0.135E+00 0.141E+00 0.142E+00


 Contracted 2-electron integrals neglected if value below      1.0D-22

       46095702. INTEGRALS WRITTEN OUT IN   11257 BLOCKS ON RECORD 1290 OF FILE 1


 NUMBER OF SORTED TWO-ELECTRON INTEGRALS:   55360566.     BUFFER LENGTH:  32768
 NUMBER OF SEGMENTS:   4  SEGMENT LENGTH:   15997996      RECORD LENGTH: 524288

 Memory used in sort:      16.56 MW

 SORT1 READ    46095702. AND WROTE    46532631. INTEGRALS IN    135 RECORDS. CPU TIME:     0.72 SEC, REAL TIME:     0.99 SEC
 SORT2 READ    46532631. AND WROTE    55360566. INTEGRALS IN      4 RECORDS. CPU TIME:     0.65 SEC, REAL TIME:     0.85 SEC

 FILE SIZES:   FILE 1:   758.5 MBYTE,  FILE 4:   566.3 MBYTE,   TOTAL:   1324.7 MBYTE

 OPERATOR DM      FOR CENTER  0  COORDINATES:    0.000000    0.000000    0.000000


 **********************************************************************************************************************************
 DATASETS  * FILE   NREC   LENGTH (MB)   RECORD NAMES
              1      19      420.90       500      610      700      900      950      970     1000      129      960     1100   
                                          VAR    BASINP    GEOM    SYMINP    ZMAT    AOBASIS   BASIS     P2S    ABASIS      S 
                                         1400     1410     1200     1210     1080     1600     1650     1300     1700   
                                           T        V       H0       H01     AOSYM     SMH    MOLCAS    ERIS     OPER   

 PROGRAMS   *        TOTAL       INT
 CPU TIMES  *         4.08      3.97
 REAL TIME  *         5.75 SEC
 DISK USED  *         1.33 GB      
 **********************************************************************************************************************************


 PROGRAM * RHF-SCF (CLOSED SHELL)       Authors: W. Meyer, H.-J. Werner


 NUMBER OF ELECTRONS:       8+    8-
 CONVERGENCE THRESHOLDS:    1.00E-10 (Density)    1.00E-13 (Energy)
 MAX. NUMBER OF ITERATIONS:      500
 INTERPOLATION TYPE:            DIIS
 INTERPOLATION STEPS:              2 (START)      1 (STEP)
 LEVEL SHIFTS:                  0.00 (CLOSED)  0.00 (OPEN) 



 Orbital guess generated from atomic densities. Full valence occupancy:    9   2

 Molecular orbital dump at record        2100.2

 Initial occupancy:   7   1

 ITERATION    DDIFF          GRAD             ENERGY        2-EL.EN.            DIPOLE MOMENTS         DIIS   ORB.
    1      0.000D+00      0.000D+00      -129.78585681    153.625230    0.00000    0.57338   -1.04713    0    start
    2      0.000D+00      0.890D-02      -129.81238811    154.785561    0.00000    0.60328   -0.18946    1    diag
    3      0.369D-02      0.693D-02      -129.83709975    154.926782    0.00000    0.55067   -0.59865    2    diag
    4      0.146D-02      0.105D-02      -129.83790522    154.644268    0.00000    0.55836   -0.53448    3    diag
    5      0.334D-03      0.342D-03      -129.83803012    154.733686    0.00000    0.56448   -0.53677    4    diag
    6      0.154D-03      0.101D-03      -129.83805062    154.717394    0.00000    0.56500   -0.53245    5    diag
    7      0.613D-04      0.510D-04      -129.83805681    154.719857    0.00000    0.56632   -0.52980    6    diag
    8      0.419D-04      0.180D-04      -129.83805754    154.718981    0.00000    0.56638   -0.52882    7    diag
    9      0.153D-04      0.341D-05      -129.83805757    154.718856    0.00000    0.56632   -0.52861    8    diag
   10      0.318D-05      0.762D-06      -129.83805757    154.718841    0.00000    0.56629   -0.52859    9    orth
   11      0.898D-06      0.150D-06      -129.83805757    154.718836    0.00000    0.56628   -0.52858    9    diag
   12      0.210D-06      0.319D-07      -129.83805757    154.718836    0.00000    0.56628   -0.52858    9    diag
   13      0.519D-07      0.865D-08      -129.83805757    154.718835    0.00000    0.56628   -0.52858    9    diag
   14      0.122D-07      0.151D-08      -129.83805757    154.718835    0.00000    0.56628   -0.52858    9    diag
   15      0.146D-08      0.399D-09      -129.83805757    154.718835    0.00000    0.56628   -0.52858    9    diag
   16      0.340D-09      0.114D-09      -129.83805757    154.718835    0.00000    0.56628   -0.52858    9    diag
   17      0.663D-10      0.296D-10      -129.83805757    154.718835    0.00000    0.56628   -0.52858    0    orth

 Final occupancy:   7   1

 !RHF STATE 1.1 Energy               -129.838057570025
 Nuclear energy                        30.12740973
 One-electron energy                 -237.32488500
 Two-electron energy                   77.35941770
 Virial quotient                       -1.00198904
 !RHF STATE 1.1 Dipole moment           0.00000000     0.56627515    -0.52858227
 Dipole moment /Debye                   0.00000000     1.43923360    -1.34343412

 Orbital energies:

         1.1          2.1          3.1          4.1          5.1          6.1          7.1          8.1          9.1
    -20.652353   -15.712887    -1.519791    -0.994128    -0.741615    -0.661427    -0.431240     0.039490     0.191809

         1.2          2.2          3.2
     -0.589583     0.075585     0.239193

 HOMO      7.1    -0.431240 =     -11.7346eV
 LUMO      8.1     0.039490 =       1.0746eV
 LUMO-HOMO         0.470730 =      12.8092eV


 **********************************************************************************************************************************
 DATASETS  * FILE   NREC   LENGTH (MB)   RECORD NAMES
              1      19      420.90       500      610      700      900      950      970     1000      129      960     1100   
                                          VAR    BASINP    GEOM    SYMINP    ZMAT    AOBASIS   BASIS     P2S    ABASIS      S 
                                         1400     1410     1200     1210     1080     1600     1650     1300     1700   
                                           T        V       H0       H01     AOSYM     SMH    MOLCAS    ERIS     OPER   

              2       4        3.13       700     1000      520     2100   
                                         GEOM     BASIS   MCVARS     RHF  

 PROGRAMS   *        TOTAL        HF       INT
 CPU TIMES  *         8.28      4.19      3.97
 REAL TIME  *        10.93 SEC
 DISK USED  *         1.33 GB      
 **********************************************************************************************************************************


 PROGRAM * CCSD (Closed-shell coupled cluster)     Authors: C. Hampel, H.-J. Werner, 1991, M. Deegan, P.J. Knowles, 1992


 Convergence thresholds:  THRVAR = 1.00D-08  THRDEN = 1.00D-12

 CCSD(T)     terms to be evaluated (factor= 1.000)


 Number of core orbitals:           2 (   2   0 )
 Number of closed-shell orbitals:   6 (   5   1 )
 Number of external orbitals:     163 ( 107  56 )

 Molecular orbitals read from record     2100.2  Type=RHF/CANONICAL (state 1.1)

 Number of N-1 electron functions:               6
 Number of N-2 electron functions:              21
 Number of singly external CSFs:               591
 Number of doubly external CSFs:            250014
 Total number of CSFs:                      250606

 Length of J-op  integral file:               0.00 MB
 Length of K-op  integral file:               1.15 MB
 Length of 3-ext integral record:             0.00 MB

 Memory could be reduced to 19.93 Mwords without degradation in triples

 Integral transformation finished. Total CPU:   0.69 sec, npass=  1  Memory used:   5.10 MW

 Reference energy:                   -129.83805757

 MP2 singlet pair energy:              -0.28799360
 MP2 triplet pair energy:              -0.16792658
 MP2 correlation energy:               -0.45592018
 MP2 total energy:                   -130.29397775

 SCS-MP2 correlation energy:           -0.45007997   (PS=  1.200000  PT=  0.333333)
 SCS-MP2 total energy:               -130.28813754

 ITER.      SQ.NORM     CORR.ENERGY   TOTAL ENERGY   ENERGY CHANGE        DEN1      VAR(S)    VAR(P)  DIIS     TIME  TIME/IT
   1      1.12004472    -0.45766620  -130.29572377    -0.00174601     0.01550192  0.34D-02  0.32D-02  1  1     1.32     0.67
   2      1.13085320    -0.45749478  -130.29555235     0.00017142    -0.01279533  0.13D-03  0.51D-03  2  2     1.93     0.69
   3      1.13765047    -0.45788518  -130.29594275    -0.00039040    -0.00344269  0.47D-04  0.60D-04  3  3     2.57     0.70
   4      1.14065271    -0.45791756  -130.29597513    -0.00003238    -0.00098156  0.48D-05  0.10D-04  4  4     3.18     0.70
   5      1.14180967    -0.45795251  -130.29601008    -0.00003495    -0.00023563  0.14D-05  0.18D-05  5  5     3.79     0.70
   6      1.14222941    -0.45793556  -130.29599313     0.00001695    -0.00006964  0.13D-06  0.43D-06  6  6     4.43     0.70
   7      1.14230381    -0.45793709  -130.29599466    -0.00000153     0.00000909  0.18D-07  0.96D-07  6  1     5.08     0.70
   8      1.14233976    -0.45793652  -130.29599409     0.00000056    -0.00000499  0.48D-08  0.16D-07  6  2     5.68     0.70
   9      1.14234550    -0.45793637  -130.29599394     0.00000016     0.00000109  0.23D-08  0.18D-08  6  3     6.29     0.70
  10      1.14234602    -0.45793671  -130.29599428    -0.00000034    -0.00000029  0.53D-09  0.29D-09  6  4     6.92     0.70
  11      1.14234446    -0.45793686  -130.29599443    -0.00000015     0.00000035  0.13D-09  0.29D-10  6  5     7.54     0.70
  12      1.14234324    -0.45793702  -130.29599459    -0.00000016     0.00000050  0.17D-10  0.83D-11  6  6     8.17     0.70
  13      1.14234254    -0.45793704  -130.29599461    -0.00000002     0.00000013  0.64D-11  0.15D-11  6  1     8.79     0.70
  14      1.14234199    -0.45793707  -130.29599464    -0.00000003     0.00000013  0.57D-12  0.49D-12  6  3     9.42     0.70
  15      1.14234182    -0.45793707  -130.29599464     0.00000000     0.00000001  0.15D-12  0.35D-13  6  2    10.05     0.70
  16      1.14234177    -0.45793707  -130.29599464    -0.00000000     0.00000001  0.35D-13  0.83D-14  6  4    10.67     0.70
  17      1.14234174    -0.45793707  -130.29599464    -0.00000000     0.00000001  0.47D-14  0.13D-14  6  5    11.31     0.70
  18      1.14234174    -0.45793707  -130.29599464     0.00000000     0.00000000  0.53D-15  0.36D-15  6  6    11.93     0.70
  19      1.14234174    -0.45793707  -130.29599464     0.00000000    -0.00000000  0.74D-16  0.49D-16  6  1    12.57     0.70
  20      1.14234175    -0.45793707  -130.29599464     0.00000000    -0.00000000  0.38D-17  0.12D-16  6  3    13.22     0.70
  21      1.14234175    -0.45793707  -130.29599464     0.00000000    -0.00000000  0.59D-18  0.26D-17  6  4    13.85     0.70
  22      1.14234175    -0.45793707  -130.29599464     0.00000000    -0.00000000  0.25D-19  0.91D-18  6  2    14.50     0.70
  23      1.14234175    -0.45793707  -130.29599464    -0.00000000     0.00000000  0.72D-19  0.18D-18  6  5    15.15     0.70
  24      1.14234175    -0.45793707  -130.29599464    -0.00000000     0.00000000  0.51D-20  0.17D-19  6  1    15.78     0.70
  25      1.14234175    -0.45793707  -130.29599464     0.00000000    -0.00000000  0.24D-20  0.12D-20  6  6    16.39     0.70

 Norm of t1 vector:      0.07912652      S-energy:     0.00000000      T1 diagnostic:  0.01615163
                                                                       D1 diagnostic:  0.04432785

 Doubles amplitudes (print threshold =  0.500E-01):

         I         J         SYM. A    SYM. B    A         B      T(IJ, AB)

         6         6         2         2         1         1     -0.13832815


 Total CPU time for triples:      7.54 sec


 RESULTS
 =======

  Reference energy                   -129.838057570025
  CCSD singlet pair energy             -0.314774389559
  CCSD triplet pair energy             -0.143162679139
  CCSD correlation energy              -0.457937068690

  Triples (T) contribution             -0.021541453924
  Total correlation energy             -0.479478522613

  CCSD total energy                  -130.295994638715
  CCSD[T] energy                     -130.318683313953
  CCSD-T energy                      -130.317108490810
 !CCSD(T) total energy               -130.317536092639

 Timing summary (sec):

 STEP                 CPU(USER)    SYS     CPU(TOT)    WALL
 Transformation          0.70      0.13      0.83      0.83
 CCSD iterations        15.69      1.92     17.61     17.61
 Triples                 7.54      0.20      7.74      7.74

 Program statistics:

 Available memory in ccsd:               994999756
 Min. memory needed in ccsd:                887758
 Max. memory used in ccsd:                 1088212
 Max. memory used in cckext:               1535578 (25 integral passes)



 **********************************************************************************************************************************
 DATASETS  * FILE   NREC   LENGTH (MB)   RECORD NAMES
              1      20      478.85       500      610      700      900      950      970     1000      129      960     1100   
                                          VAR    BASINP    GEOM    SYMINP    ZMAT    AOBASIS   BASIS     P2S    ABASIS      S 
                                         1400     1410     1200     1210     1080     1600     1650     1300     1700     1380   
                                           T        V       H0       H01     AOSYM     SMH    MOLCAS    ERIS     OPER     JKOP   

              2       4        3.13       700     1000      520     2100   
                                         GEOM     BASIS   MCVARS     RHF  

 PROGRAMS   *        TOTAL   CCSD(T)        HF       INT
 CPU TIMES  *        32.24     23.97      4.19      3.97
 REAL TIME  *        37.71 SEC
 DISK USED  *         1.33 GB      
 **********************************************************************************************************************************

 CCSD(T)/USERDEF energy=   -130.317536092639

        CCSD(T)         HF-SCF  
   -130.31753609   -129.83805757
 **********************************************************************************************************************************
 Molpro calculation terminated
 Variable memory released
