
 Primary working directories    : /tmp/r2666/282314.maple
 Secondary working directories  : /tmp/r2666/282314.maple
 Wavefunction directory         : /ddn/home4/r2666/wfu/
 Main file repository           : /tmp/r2666/282314.maple/

 SHA1      : d5ffa45e93fdbca01ffc919aa182cfdae0147319
 NAME      : 2015.1.35
 ARCHNAME  : linux/x86_64
 FC        : /opt/intel/composer_xe_2015.1.133/bin/intel64/ifort
 BLASLIB   : -Wl,-_start-group /opt/intel/mkl/lib/intel64/libmkl_intel_ilp64.a /opt/intel/mkl/lib/intel64/libmkl_intel_thread.a /opt/intel/mkl/lib/intel64/libmkl_core.a -Wl,-_end-group
 id        : olemiss

 Nodes     nprocs
 cn038        1

 Using customized tuning parameters: mindgm=1; mindgv=20; mindgc=4; mindgr=1; noblas=0; minvec=7
 default implementation of scratch files=df  

 ***,hno CCSD(T)/TZ-F12 QFF
 memory, 995, m;
 gthresh,energy=1.d-12,zero=1.d-22,oneint=1.d-22,twoint=1.d-22;
 gthresh,optgrad=1.d-8,optstep=1.d-8;
 nocompress;
 geomtyp=xyz
 bohr
 geometry={
 3
         82        82
 H        0.0000000000        1.6690444555       -1.9321151434
 N        0.0000000000       -0.1631140904       -1.1603878069
 O        0.0000000000        0.0358374249        1.1419133593
 }
 
 basis={
 default=aug-cc-pvtz
 s,C,8236.0,1235.0,280.8, 79.27,25.59, 8.997,3.319
 s,C,0.9059,0.3643,0.1285000
 p,C,56.0,18.71,4.133,0.2827,0.3827,0.1209
 d,C,30.0,10.0,3.3,1.097,0.318
 f,C,7.0,2.3,0.7610
 s,N,11420.0,1712.0,389.3,110.0,35.57,12.54,4.644
 s,N,1.293,0.5118,0.1787
 p,N,79.89,26.63,5.948,1.742,0.555,0.1725
 d,N,45.0,15.0,5.0,1.654,0.469
 f,N,9.9,3.3,1.093
 s,O,15330.0,2299.0,522.4,147.3,47.55,16.76,6.207
 s,O,1.752,0.6882,0.2384
 p,O,103.5,34.46,7.749,2.28,0.7156,0.214
 d,O,63.0,21.0,7.0,2.314,0.645
 f,O,12.9,4.3,1.428
 s,mg,164900.0,24710.0,5628.0,1596.0,521.0;
 s,mg,188.0,73.01,29.90,12.54,4.306,1.826;
 s,mg,0.7417,0.0761,0.145,0.033,0.0129;
 p,mg,950.70,316.90,74.86,23.72,8.669,3.363;
 p,mg,1.310,0.4911,0.2364,0.08733,0.03237,0.00745;
 d,mg,1.601,0.686,0.126,0.294,0.0468;
 f,mg,1.372,0.588,0.094,0.252;
 }
   {hf,maxit=500;accu,20;}
 {ccsd(t),nocheck,maxit=250;orbital,IGNORE_ERROR;}

 Variables initialized (889), CPU time= 0.00 sec
 Commands  initialized (702), CPU time= 0.01 sec, 572 directives.
 Default parameters read. Elapsed time= 0.05 sec

 Checking input...
 Passed
1


                                         ***  PROGRAM SYSTEM MOLPRO  ***
                                       Copyright, TTI GmbH Stuttgart, 2015
                                    Version 2015.1 linked Jul  9 2018 13:16:40


 **********************************************************************************************************************************
 LABEL *   hno CCSD(T)/TZ-F12 QFF                                                        
  64 bit serial version                                                                  DATE: 04-Mar-20          TIME: 13:47:51  
 **********************************************************************************************************************************

 SHA1:             d5ffa45e93fdbca01ffc919aa182cfdae0147319
 **********************************************************************************************************************************

 THRESHOLDS:

 ZERO    =  1.00D-22  ONEINT  =  1.00D-22  TWOINT  =  1.00D-22  PREFAC  =  1.00D-14  LOCALI  =  1.00D-09  EORDER  =  1.00D-04
 ENERGY  =  1.00D-12  ETEST   =  0.00D+00  EDENS   =  0.00D+00  THRDEDEF=  1.00D-06  GRADIENT=  1.00D-02  STEP    =  1.00D-03
 ORBITAL =  1.00D-05  CIVEC   =  1.00D-05  COEFF   =  1.00D-04  PRINTCI =  5.00D-02  PUNCHCI =  9.90D+01  OPTGRAD =  3.00D-04
 OPTENERG=  1.00D-06  OPTSTEP =  3.00D-04  THRGRAD =  1.00D-10  COMPRESS=  1.00D-11  VARMIN  =  1.00D-07  VARMAX  =  1.00D-03
 THRDOUB =  0.00D+00  THRDIV  =  1.00D-05  THRRED  =  1.00D-07  THRPSP  =  1.00D+00  THRDC   =  1.00D-10  THRCS   =  1.00D-10
 THRNRM  =  1.00D-08  THREQ   =  0.00D+00  THRDE   =  1.00D+00  THRREF  =  1.00D-05  SPARFAC =  1.00D+00  THRDLP  =  1.00D-07
 THRDIA  =  1.00D-10  THRDLS  =  1.00D-07  THRGPS  =  0.00D+00  THRKEX  =  0.00D+00  THRDIS  =  2.00D-01  THRVAR  =  1.00D-10
 THRLOC  =  1.00D-06  THRGAP  =  1.00D-06  THRLOCT = -1.00D+00  THRGAPT = -1.00D+00  THRORB  =  1.00D-06  THRMLTP =  0.00D+00
 THRCPQCI=  1.00D-10  KEXTA   =  0.00D+00  THRCOARS=  0.00D+00  SYMTOL  =  1.00D-06  GRADTOL =  1.00D-06  THROVL  =  1.00D-08
 THRORTH =  1.00D-08  GRID    =  1.00D-06  GRIDMAX =  1.00D-03  DTMAX   =  0.00D+00  THROCCDE=  1.00D-01  THROCCDE=  1.00D-01



 THRESHOLDS:

 ZERO    =  1.00D-22  ONEINT  =  1.00D-22  TWOINT  =  1.00D-22  PREFAC  =  1.00D-14  LOCALI  =  1.00D-09  EORDER  =  1.00D-04
 ENERGY  =  1.00D-12  ETEST   =  0.00D+00  EDENS   =  0.00D+00  THRDEDEF=  1.00D-06  GRADIENT=  1.00D-02  STEP    =  1.00D-03
 ORBITAL =  1.00D-05  CIVEC   =  1.00D-05  COEFF   =  1.00D-04  PRINTCI =  5.00D-02  PUNCHCI =  9.90D+01  OPTGRAD =  1.00D-08
 OPTENERG=  1.00D-06  OPTSTEP =  1.00D-08  THRGRAD =  1.00D-10  COMPRESS=  1.00D-11  VARMIN  =  1.00D-07  VARMAX  =  1.00D-03
 THRDOUB =  0.00D+00  THRDIV  =  1.00D-05  THRRED  =  1.00D-07  THRPSP  =  1.00D+00  THRDC   =  1.00D-10  THRCS   =  1.00D-10
 THRNRM  =  1.00D-08  THREQ   =  0.00D+00  THRDE   =  1.00D+00  THRREF  =  1.00D-05  SPARFAC =  1.00D+00  THRDLP  =  1.00D-07
 THRDIA  =  1.00D-10  THRDLS  =  1.00D-07  THRGPS  =  0.00D+00  THRKEX  =  0.00D+00  THRDIS  =  2.00D-01  THRVAR  =  1.00D-10
 THRLOC  =  1.00D-06  THRGAP  =  1.00D-06  THRLOCT = -1.00D+00  THRGAPT = -1.00D+00  THRORB  =  1.00D-06  THRMLTP =  0.00D+00
 THRCPQCI=  1.00D-10  KEXTA   =  0.00D+00  THRCOARS=  0.00D+00  SYMTOL  =  1.00D-06  GRADTOL =  1.00D-06  THROVL  =  1.00D-08
 THRORTH =  1.00D-08  GRID    =  1.00D-06  GRIDMAX =  1.00D-03  DTMAX   =  0.00D+00  THROCCDE=  1.00D-01  THROCCDE=  1.00D-01



 Input parameters for SORTINT:

 COMPRESS =    0.000000
 C_FINAL  =    1.000000
 DEBUG    =   -1.000000
 C_SORT1  =    0.000000
 C_SEWARD =    0.000000
 THRESH   =    0.000000
 IO       =  molpro                                                          
 SPRI     =    0.000000
 SETTING GEOMTYP        =    XYZ
 ZUNIT=BOHR
 

 Variable memory set to  995000000 words,  buffer space   230000 words

 SETTING BASIS          =    USERDEF


 Recomputing integrals since basis changed


 Using spherical harmonics

 Library entry H      S aug-cc-pVTZ          selected for orbital group  1
 Library entry H      P aug-cc-pVTZ          selected for orbital group  1
 Library entry H      D aug-cc-pVTZ          selected for orbital group  1


 PROGRAM * SEWARD (Integral evaluation for generally contracted gaussian basis sets)     Author: Roland Lindh, 1990

 Geometry written to block  1 of record 700


 Point group  Cs  



 ATOMIC COORDINATES

 NR  ATOM    CHARGE       X              Y              Z

   1  H       1.00    0.000000000    1.669044455   -1.932115143
   2  N       7.00    0.000000000   -0.163114090   -1.160387807
   3  O       8.00    0.000000000    0.035837425    1.141913359

 Bond lengths in Bohr (Angstrom)

 1-2  1.988056342  2-3  2.310881296
     ( 1.052034110)     ( 1.222865719)

 Bond angles

  1-2-3  107.90251460

 NUCLEAR CHARGE:                   16
 NUMBER OF PRIMITIVE AOS:         203
 NUMBER OF SYMMETRY AOS:          173
 NUMBER OF CONTRACTIONS:          171   ( 114A'  +  57A"  )
 NUMBER OF CORE ORBITALS:           2   (   2A'  +   0A"  )
 NUMBER OF VALENCE ORBITALS:        9   (   7A'  +   2A"  )


 NUCLEAR REPULSION ENERGY   30.05242878


 Eigenvalues of metric

         1 0.107E-02 0.262E-02 0.340E-02 0.644E-02 0.986E-02 0.137E-01 0.146E-01 0.233E-01
         2 0.365E-01 0.553E-01 0.709E-01 0.943E-01 0.132E+00 0.134E+00 0.140E+00 0.142E+00


 Contracted 2-electron integrals neglected if value below      1.0D-22

       46069526. INTEGRALS WRITTEN OUT IN   11251 BLOCKS ON RECORD 1290 OF FILE 1


 NUMBER OF SORTED TWO-ELECTRON INTEGRALS:   55360566.     BUFFER LENGTH:  32768
 NUMBER OF SEGMENTS:   4  SEGMENT LENGTH:   15997996      RECORD LENGTH: 524288

 Memory used in sort:      16.56 MW

 SORT1 READ    46069526. AND WROTE    46506179. INTEGRALS IN    135 RECORDS. CPU TIME:     1.34 SEC, REAL TIME:     1.63 SEC
 SORT2 READ    46506179. AND WROTE    55360566. INTEGRALS IN      4 RECORDS. CPU TIME:     0.77 SEC, REAL TIME:     1.02 SEC

 FILE SIZES:   FILE 1:   758.1 MBYTE,  FILE 4:   566.3 MBYTE,   TOTAL:   1324.3 MBYTE

 OPERATOR DM      FOR CENTER  0  COORDINATES:    0.000000    0.000000    0.000000


 **********************************************************************************************************************************
 DATASETS  * FILE   NREC   LENGTH (MB)   RECORD NAMES
              1      19      420.72       500      610      700      900      950      970     1000      129      960     1100   
                                          VAR    BASINP    GEOM    SYMINP    ZMAT    AOBASIS   BASIS     P2S    ABASIS      S 
                                         1400     1410     1200     1210     1080     1600     1650     1300     1700   
                                           T        V       H0       H01     AOSYM     SMH    MOLCAS    ERIS     OPER   

 PROGRAMS   *        TOTAL       INT
 CPU TIMES  *         5.79      5.70
 REAL TIME  *         7.29 SEC
 DISK USED  *         1.32 GB      
 **********************************************************************************************************************************


 PROGRAM * RHF-SCF (CLOSED SHELL)       Authors: W. Meyer, H.-J. Werner


 NUMBER OF ELECTRONS:       8+    8-
 CONVERGENCE THRESHOLDS:    1.00E-10 (Density)    1.00E-13 (Energy)
 MAX. NUMBER OF ITERATIONS:      500
 INTERPOLATION TYPE:            DIIS
 INTERPOLATION STEPS:              2 (START)      1 (STEP)
 LEVEL SHIFTS:                  0.00 (CLOSED)  0.00 (OPEN) 



 Orbital guess generated from atomic densities. Full valence occupancy:    9   2

 Molecular orbital dump at record        2100.2

 Initial occupancy:   7   1

 ITERATION    DDIFF          GRAD             ENERGY        2-EL.EN.            DIPOLE MOMENTS         DIIS   ORB.
    1      0.000D+00      0.000D+00      -129.78463909    153.497314    0.00000    0.57364   -1.06123    0    start
    2      0.000D+00      0.893D-02      -129.81097912    154.638273    0.00000    0.60707   -0.18557    1    diag
    3      0.373D-02      0.703D-02      -129.83642443    154.792683    0.00000    0.55231   -0.60390    2    diag
    4      0.148D-02      0.105D-02      -129.83723739    154.507587    0.00000    0.56019   -0.53905    3    diag
    5      0.337D-03      0.345D-03      -129.83736333    154.596878    0.00000    0.56619   -0.54118    4    diag
    6      0.155D-03      0.101D-03      -129.83738399    154.580576    0.00000    0.56668   -0.53679    5    diag
    7      0.613D-04      0.515D-04      -129.83739034    154.582963    0.00000    0.56798   -0.53407    6    diag
    8      0.421D-04      0.185D-04      -129.83739112    154.582061    0.00000    0.56802   -0.53304    7    diag
    9      0.158D-04      0.350D-05      -129.83739115    154.581933    0.00000    0.56797   -0.53283    8    diag
   10      0.331D-05      0.769D-06      -129.83739116    154.581919    0.00000    0.56793   -0.53280    9    orth
   11      0.913D-06      0.151D-06      -129.83739116    154.581915    0.00000    0.56792   -0.53280    9    diag
   12      0.212D-06      0.327D-07      -129.83739116    154.581914    0.00000    0.56792   -0.53280    9    diag
   13      0.525D-07      0.898D-08      -129.83739116    154.581914    0.00000    0.56792   -0.53280    9    diag
   14      0.124D-07      0.157D-08      -129.83739116    154.581914    0.00000    0.56792   -0.53280    9    diag
   15      0.141D-08      0.415D-09      -129.83739116    154.581914    0.00000    0.56792   -0.53280    9    diag
   16      0.350D-09      0.120D-09      -129.83739116    154.581914    0.00000    0.56792   -0.53280    9    diag
   17      0.649D-10      0.317D-10      -129.83739116    154.581914    0.00000    0.56792   -0.53280    0    orth

 Final occupancy:   7   1

 !RHF STATE 1.1 Energy               -129.837391155129
 Nuclear energy                        30.05242878
 One-electron energy                 -237.18077693
 Two-electron energy                   77.29095699
 Virial quotient                       -1.00205513
 !RHF STATE 1.1 Dipole moment           0.00000000     0.56792119    -0.53280000
 Dipole moment /Debye                   0.00000000     1.44341714    -1.35415384

 Orbital energies:

         1.1          2.1          3.1          4.1          5.1          6.1          7.1          8.1          9.1
    -20.652594   -15.713175    -1.516156    -0.996199    -0.740699    -0.659916    -0.433412     0.039505     0.192084

         1.2          2.2          3.2
     -0.587282     0.073972     0.239037

 HOMO      7.1    -0.433412 =     -11.7937eV
 LUMO      8.1     0.039505 =       1.0750eV
 LUMO-HOMO         0.472917 =      12.8687eV


 **********************************************************************************************************************************
 DATASETS  * FILE   NREC   LENGTH (MB)   RECORD NAMES
              1      19      420.72       500      610      700      900      950      970     1000      129      960     1100   
                                          VAR    BASINP    GEOM    SYMINP    ZMAT    AOBASIS   BASIS     P2S    ABASIS      S 
                                         1400     1410     1200     1210     1080     1600     1650     1300     1700   
                                           T        V       H0       H01     AOSYM     SMH    MOLCAS    ERIS     OPER   

              2       4        3.13       700     1000      520     2100   
                                         GEOM     BASIS   MCVARS     RHF  

 PROGRAMS   *        TOTAL        HF       INT
 CPU TIMES  *        11.02      5.23      5.70
 REAL TIME  *        13.84 SEC
 DISK USED  *         1.32 GB      
 **********************************************************************************************************************************


 PROGRAM * CCSD (Closed-shell coupled cluster)     Authors: C. Hampel, H.-J. Werner, 1991, M. Deegan, P.J. Knowles, 1992


 Convergence thresholds:  THRVAR = 1.00D-08  THRDEN = 1.00D-12

 CCSD(T)     terms to be evaluated (factor= 1.000)


 Number of core orbitals:           2 (   2   0 )
 Number of closed-shell orbitals:   6 (   5   1 )
 Number of external orbitals:     163 ( 107  56 )

 Molecular orbitals read from record     2100.2  Type=RHF/CANONICAL (state 1.1)

 Number of N-1 electron functions:               6
 Number of N-2 electron functions:              21
 Number of singly external CSFs:               591
 Number of doubly external CSFs:            250014
 Total number of CSFs:                      250606

 Length of J-op  integral file:               0.00 MB
 Length of K-op  integral file:               1.15 MB
 Length of 3-ext integral record:             0.00 MB

 Memory could be reduced to 19.93 Mwords without degradation in triples

 Integral transformation finished. Total CPU:   0.92 sec, npass=  1  Memory used:   5.10 MW

 Reference energy:                   -129.83739116

 MP2 singlet pair energy:              -0.28839824
 MP2 triplet pair energy:              -0.16820786
 MP2 correlation energy:               -0.45660610
 MP2 total energy:                   -130.29399726

 SCS-MP2 correlation energy:           -0.45074056   (PS=  1.200000  PT=  0.333333)
 SCS-MP2 total energy:               -130.28813171

 ITER.      SQ.NORM     CORR.ENERGY   TOTAL ENERGY   ENERGY CHANGE        DEN1      VAR(S)    VAR(P)  DIIS     TIME  TIME/IT
   1      1.12040783    -0.45816735  -130.29555850    -0.00156124     0.01585641  0.34D-02  0.33D-02  1  1     1.75     0.88
   2      1.13130440    -0.45795578  -130.29534693     0.00021157    -0.01289379  0.13D-03  0.52D-03  2  2     2.52     0.90
   3      1.13816240    -0.45834833  -130.29573949    -0.00039256    -0.00346266  0.48D-04  0.62D-04  3  3     3.39     0.91
   4      1.14120737    -0.45838223  -130.29577339    -0.00003390    -0.00099149  0.49D-05  0.10D-04  4  4     4.20     0.91
   5      1.14238427    -0.45841771  -130.29580886    -0.00003547    -0.00024031  0.14D-05  0.18D-05  5  5     5.03     0.92
   6      1.14280741    -0.45840035  -130.29579150     0.00001736    -0.00007046  0.13D-06  0.43D-06  6  6     5.87     0.92
   7      1.14287991    -0.45840200  -130.29579316    -0.00000166     0.00000951  0.17D-07  0.97D-07  6  1     6.68     0.92
   8      1.14291557    -0.45840139  -130.29579254     0.00000062    -0.00000507  0.48D-08  0.16D-07  6  2     7.52     0.92
   9      1.14292086    -0.45840125  -130.29579240     0.00000014     0.00000126  0.22D-08  0.19D-08  6  3     8.38     0.92
  10      1.14292146    -0.45840158  -130.29579274    -0.00000033    -0.00000037  0.53D-09  0.30D-09  6  4     9.20     0.92
  11      1.14291991    -0.45840173  -130.29579288    -0.00000015     0.00000036  0.13D-09  0.30D-10  6  5    10.06     0.92
  12      1.14291871    -0.45840189  -130.29579304    -0.00000016     0.00000049  0.16D-10  0.82D-11  6  6    10.90     0.92
  13      1.14291802    -0.45840191  -130.29579306    -0.00000002     0.00000013  0.60D-11  0.15D-11  6  1    11.74     0.92
  14      1.14291748    -0.45840194  -130.29579309    -0.00000003     0.00000012  0.54D-12  0.48D-12  6  3    12.61     0.92
  15      1.14291731    -0.45840194  -130.29579309     0.00000000     0.00000001  0.14D-12  0.35D-13  6  2    13.44     0.92
  16      1.14291726    -0.45840194  -130.29579310    -0.00000000     0.00000001  0.33D-13  0.82D-14  6  4    14.33     0.92
  17      1.14291723    -0.45840194  -130.29579310    -0.00000000     0.00000001  0.47D-14  0.13D-14  6  5    15.17     0.93
  18      1.14291723    -0.45840194  -130.29579310    -0.00000000     0.00000000  0.55D-15  0.37D-15  6  6    16.04     0.93
  19      1.14291723    -0.45840194  -130.29579310     0.00000000    -0.00000000  0.77D-16  0.54D-16  6  1    16.85     0.93
  20      1.14291723    -0.45840194  -130.29579310     0.00000000    -0.00000000  0.38D-17  0.14D-16  6  3    17.70     0.93
  21      1.14291723    -0.45840194  -130.29579310     0.00000000    -0.00000000  0.61D-18  0.30D-17  6  4    18.54     0.93
  22      1.14291723    -0.45840194  -130.29579310     0.00000000    -0.00000000  0.50D-19  0.11D-17  6  2    19.38     0.93
  23      1.14291723    -0.45840194  -130.29579310    -0.00000000     0.00000000  0.92D-19  0.20D-18  6  5    20.24     0.93
  24      1.14291723    -0.45840194  -130.29579310    -0.00000000     0.00000000  0.50D-20  0.19D-19  6  1    21.06     0.93
  25      1.14291723    -0.45840194  -130.29579310     0.00000000    -0.00000000  0.26D-20  0.13D-20  6  6    21.91     0.93

 Norm of t1 vector:      0.07953080      S-energy:     0.00000000      T1 diagnostic:  0.01623416
                                                                       D1 diagnostic:  0.04492461

 Doubles amplitudes (print threshold =  0.500E-01):

         I         J         SYM. A    SYM. B    A         B      T(IJ, AB)

         6         6         2         2         1         1     -0.13996936


 Total CPU time for triples:      6.90 sec


 RESULTS
 =======

  Reference energy                   -129.837391155128
  CCSD singlet pair energy             -0.315181553053
  CCSD triplet pair energy             -0.143220388955
  CCSD correlation energy              -0.458401941998

  Triples (T) contribution             -0.021660838680
  Total correlation energy             -0.480062780678

  CCSD total energy                  -130.295793097126
  CCSD[T] energy                     -130.318615744962
  CCSD-T energy                      -130.317023498047
 !CCSD(T) total energy               -130.317453935806

 Timing summary (sec):

 STEP                 CPU(USER)    SYS     CPU(TOT)    WALL
 Transformation          0.93      0.13      1.06      1.06
 CCSD iterations        20.99      2.19     23.18     23.18
 Triples                 6.90      0.18      7.08      7.09

 Program statistics:

 Available memory in ccsd:               994999756
 Min. memory needed in ccsd:                887758
 Max. memory used in ccsd:                 1088212
 Max. memory used in cckext:               1535578 (25 integral passes)



 **********************************************************************************************************************************
 DATASETS  * FILE   NREC   LENGTH (MB)   RECORD NAMES
              1      20      478.68       500      610      700      900      950      970     1000      129      960     1100   
                                          VAR    BASINP    GEOM    SYMINP    ZMAT    AOBASIS   BASIS     P2S    ABASIS      S 
                                         1400     1410     1200     1210     1080     1600     1650     1300     1700     1380   
                                           T        V       H0       H01     AOSYM     SMH    MOLCAS    ERIS     OPER     JKOP   

              2       4        3.13       700     1000      520     2100   
                                         GEOM     BASIS   MCVARS     RHF  

 PROGRAMS   *        TOTAL   CCSD(T)        HF       INT
 CPU TIMES  *        39.87     28.84      5.23      5.70
 REAL TIME  *        45.21 SEC
 DISK USED  *         1.32 GB      
 **********************************************************************************************************************************

 CCSD(T)/USERDEF energy=   -130.317453935806

        CCSD(T)         HF-SCF  
   -130.31745394   -129.83739116
 **********************************************************************************************************************************
 Molpro calculation terminated
 Variable memory released
