
 Primary working directories    : /tmp/r2666/282259.maple
 Secondary working directories  : /tmp/r2666/282259.maple
 Wavefunction directory         : /ddn/home4/r2666/wfu/
 Main file repository           : /tmp/r2666/282259.maple/

 SHA1      : d5ffa45e93fdbca01ffc919aa182cfdae0147319
 NAME      : 2015.1.35
 ARCHNAME  : linux/x86_64
 FC        : /opt/intel/composer_xe_2015.1.133/bin/intel64/ifort
 BLASLIB   : -Wl,-_start-group /opt/intel/mkl/lib/intel64/libmkl_intel_ilp64.a /opt/intel/mkl/lib/intel64/libmkl_intel_thread.a /opt/intel/mkl/lib/intel64/libmkl_core.a -Wl,-_end-group
 id        : olemiss

 Nodes     nprocs
 cn076        1

 Using customized tuning parameters: mindgm=1; mindgv=20; mindgc=4; mindgr=1; noblas=0; minvec=7
 default implementation of scratch files=df  

 ***,hno CCSD(T)/TZ-F12 QFF
 memory, 995, m;
 gthresh,energy=1.d-12,zero=1.d-22,oneint=1.d-22,twoint=1.d-22;
 gthresh,optgrad=1.d-8,optstep=1.d-8;
 nocompress;
 geomtyp=xyz
 bohr
 geometry={
 3
         27        27
 H        0.0000000000        1.6614904962       -1.9234229422
 N        0.0000000000       -0.1579397074       -1.1458869541
 O        0.0000000000        0.0382170011        1.1187203053
 }
 
 basis={
 default=aug-cc-pvtz
 s,C,8236.0,1235.0,280.8, 79.27,25.59, 8.997,3.319
 s,C,0.9059,0.3643,0.1285000
 p,C,56.0,18.71,4.133,0.2827,0.3827,0.1209
 d,C,30.0,10.0,3.3,1.097,0.318
 f,C,7.0,2.3,0.7610
 s,N,11420.0,1712.0,389.3,110.0,35.57,12.54,4.644
 s,N,1.293,0.5118,0.1787
 p,N,79.89,26.63,5.948,1.742,0.555,0.1725
 d,N,45.0,15.0,5.0,1.654,0.469
 f,N,9.9,3.3,1.093
 s,O,15330.0,2299.0,522.4,147.3,47.55,16.76,6.207
 s,O,1.752,0.6882,0.2384
 p,O,103.5,34.46,7.749,2.28,0.7156,0.214
 d,O,63.0,21.0,7.0,2.314,0.645
 f,O,12.9,4.3,1.428
 s,mg,164900.0,24710.0,5628.0,1596.0,521.0;
 s,mg,188.0,73.01,29.90,12.54,4.306,1.826;
 s,mg,0.7417,0.0761,0.145,0.033,0.0129;
 p,mg,950.70,316.90,74.86,23.72,8.669,3.363;
 p,mg,1.310,0.4911,0.2364,0.08733,0.03237,0.00745;
 d,mg,1.601,0.686,0.126,0.294,0.0468;
 f,mg,1.372,0.588,0.094,0.252;
 }
   {hf,maxit=500;accu,20;}
 {ccsd(t),nocheck,maxit=250;orbital,IGNORE_ERROR;}

 Variables initialized (889), CPU time= 0.01 sec
 Commands  initialized (702), CPU time= 0.01 sec, 572 directives.
 Default parameters read. Elapsed time= 0.06 sec

 Checking input...
 Passed
1


                                         ***  PROGRAM SYSTEM MOLPRO  ***
                                       Copyright, TTI GmbH Stuttgart, 2015
                                    Version 2015.1 linked Jul  9 2018 13:16:40


 **********************************************************************************************************************************
 LABEL *   hno CCSD(T)/TZ-F12 QFF                                                        
  64 bit serial version                                                                  DATE: 04-Mar-20          TIME: 13:46:58  
 **********************************************************************************************************************************

 SHA1:             d5ffa45e93fdbca01ffc919aa182cfdae0147319
 **********************************************************************************************************************************

 THRESHOLDS:

 ZERO    =  1.00D-22  ONEINT  =  1.00D-22  TWOINT  =  1.00D-22  PREFAC  =  1.00D-14  LOCALI  =  1.00D-09  EORDER  =  1.00D-04
 ENERGY  =  1.00D-12  ETEST   =  0.00D+00  EDENS   =  0.00D+00  THRDEDEF=  1.00D-06  GRADIENT=  1.00D-02  STEP    =  1.00D-03
 ORBITAL =  1.00D-05  CIVEC   =  1.00D-05  COEFF   =  1.00D-04  PRINTCI =  5.00D-02  PUNCHCI =  9.90D+01  OPTGRAD =  3.00D-04
 OPTENERG=  1.00D-06  OPTSTEP =  3.00D-04  THRGRAD =  1.00D-10  COMPRESS=  1.00D-11  VARMIN  =  1.00D-07  VARMAX  =  1.00D-03
 THRDOUB =  0.00D+00  THRDIV  =  1.00D-05  THRRED  =  1.00D-07  THRPSP  =  1.00D+00  THRDC   =  1.00D-10  THRCS   =  1.00D-10
 THRNRM  =  1.00D-08  THREQ   =  0.00D+00  THRDE   =  1.00D+00  THRREF  =  1.00D-05  SPARFAC =  1.00D+00  THRDLP  =  1.00D-07
 THRDIA  =  1.00D-10  THRDLS  =  1.00D-07  THRGPS  =  0.00D+00  THRKEX  =  0.00D+00  THRDIS  =  2.00D-01  THRVAR  =  1.00D-10
 THRLOC  =  1.00D-06  THRGAP  =  1.00D-06  THRLOCT = -1.00D+00  THRGAPT = -1.00D+00  THRORB  =  1.00D-06  THRMLTP =  0.00D+00
 THRCPQCI=  1.00D-10  KEXTA   =  0.00D+00  THRCOARS=  0.00D+00  SYMTOL  =  1.00D-06  GRADTOL =  1.00D-06  THROVL  =  1.00D-08
 THRORTH =  1.00D-08  GRID    =  1.00D-06  GRIDMAX =  1.00D-03  DTMAX   =  0.00D+00  THROCCDE=  1.00D-01  THROCCDE=  1.00D-01



 THRESHOLDS:

 ZERO    =  1.00D-22  ONEINT  =  1.00D-22  TWOINT  =  1.00D-22  PREFAC  =  1.00D-14  LOCALI  =  1.00D-09  EORDER  =  1.00D-04
 ENERGY  =  1.00D-12  ETEST   =  0.00D+00  EDENS   =  0.00D+00  THRDEDEF=  1.00D-06  GRADIENT=  1.00D-02  STEP    =  1.00D-03
 ORBITAL =  1.00D-05  CIVEC   =  1.00D-05  COEFF   =  1.00D-04  PRINTCI =  5.00D-02  PUNCHCI =  9.90D+01  OPTGRAD =  1.00D-08
 OPTENERG=  1.00D-06  OPTSTEP =  1.00D-08  THRGRAD =  1.00D-10  COMPRESS=  1.00D-11  VARMIN  =  1.00D-07  VARMAX  =  1.00D-03
 THRDOUB =  0.00D+00  THRDIV  =  1.00D-05  THRRED  =  1.00D-07  THRPSP  =  1.00D+00  THRDC   =  1.00D-10  THRCS   =  1.00D-10
 THRNRM  =  1.00D-08  THREQ   =  0.00D+00  THRDE   =  1.00D+00  THRREF  =  1.00D-05  SPARFAC =  1.00D+00  THRDLP  =  1.00D-07
 THRDIA  =  1.00D-10  THRDLS  =  1.00D-07  THRGPS  =  0.00D+00  THRKEX  =  0.00D+00  THRDIS  =  2.00D-01  THRVAR  =  1.00D-10
 THRLOC  =  1.00D-06  THRGAP  =  1.00D-06  THRLOCT = -1.00D+00  THRGAPT = -1.00D+00  THRORB  =  1.00D-06  THRMLTP =  0.00D+00
 THRCPQCI=  1.00D-10  KEXTA   =  0.00D+00  THRCOARS=  0.00D+00  SYMTOL  =  1.00D-06  GRADTOL =  1.00D-06  THROVL  =  1.00D-08
 THRORTH =  1.00D-08  GRID    =  1.00D-06  GRIDMAX =  1.00D-03  DTMAX   =  0.00D+00  THROCCDE=  1.00D-01  THROCCDE=  1.00D-01



 Input parameters for SORTINT:

 COMPRESS =    0.000000
 C_FINAL  =    1.000000
 DEBUG    =   -1.000000
 C_SORT1  =    0.000000
 C_SEWARD =    0.000000
 THRESH   =    0.000000
 IO       =  molpro                                                          
 SPRI     =    0.000000
 SETTING GEOMTYP        =    XYZ
 ZUNIT=BOHR
 

 Variable memory set to  995000000 words,  buffer space   230000 words

 SETTING BASIS          =    USERDEF


 Recomputing integrals since basis changed


 Using spherical harmonics

 Library entry H      S aug-cc-pVTZ          selected for orbital group  1
 Library entry H      P aug-cc-pVTZ          selected for orbital group  1
 Library entry H      D aug-cc-pVTZ          selected for orbital group  1


 PROGRAM * SEWARD (Integral evaluation for generally contracted gaussian basis sets)     Author: Roland Lindh, 1990

 Geometry written to block  1 of record 700


 Point group  Cs  



 ATOMIC COORDINATES

 NR  ATOM    CHARGE       X              Y              Z

   1  H       1.00    0.000000000    1.661490496   -1.923422942
   2  N       7.00    0.000000000   -0.157939707   -1.145886954
   3  O       8.00    0.000000000    0.038217001    1.118720305

 Bond lengths in Bohr (Angstrom)

 1-2  1.978607712  2-3  2.273086777
     ( 1.047034111)     ( 1.202865721)

 Bond angles

  1-2-3  108.18899349

 NUCLEAR CHARGE:                   16
 NUMBER OF PRIMITIVE AOS:         203
 NUMBER OF SYMMETRY AOS:          173
 NUMBER OF CONTRACTIONS:          171   ( 114A'  +  57A"  )
 NUMBER OF CORE ORBITALS:           2   (   2A'  +   0A"  )
 NUMBER OF VALENCE ORBITALS:        9   (   7A'  +   2A"  )


 NUCLEAR REPULSION ENERGY   30.49403736


 Eigenvalues of metric

         1 0.102E-02 0.244E-02 0.329E-02 0.630E-02 0.968E-02 0.136E-01 0.144E-01 0.227E-01
         2 0.357E-01 0.523E-01 0.692E-01 0.940E-01 0.131E+00 0.134E+00 0.140E+00 0.142E+00


 Contracted 2-electron integrals neglected if value below      1.0D-22

       46186418. INTEGRALS WRITTEN OUT IN   11279 BLOCKS ON RECORD 1290 OF FILE 1


 NUMBER OF SORTED TWO-ELECTRON INTEGRALS:   55360566.     BUFFER LENGTH:  32768
 NUMBER OF SEGMENTS:   4  SEGMENT LENGTH:   15997996      RECORD LENGTH: 524288

 Memory used in sort:      16.56 MW

 SORT1 READ    46186418. AND WROTE    46624320. INTEGRALS IN    136 RECORDS. CPU TIME:     0.66 SEC, REAL TIME:     1.02 SEC
 SORT2 READ    46624320. AND WROTE    55360566. INTEGRALS IN      4 RECORDS. CPU TIME:     0.63 SEC, REAL TIME:     0.84 SEC

 FILE SIZES:   FILE 1:   759.9 MBYTE,  FILE 4:   570.5 MBYTE,   TOTAL:   1330.4 MBYTE

 OPERATOR DM      FOR CENTER  0  COORDINATES:    0.000000    0.000000    0.000000


 **********************************************************************************************************************************
 DATASETS  * FILE   NREC   LENGTH (MB)   RECORD NAMES
              1      19      421.52       500      610      700      900      950      970     1000      129      960     1100   
                                          VAR    BASINP    GEOM    SYMINP    ZMAT    AOBASIS   BASIS     P2S    ABASIS      S 
                                         1400     1410     1200     1210     1080     1600     1650     1300     1700   
                                           T        V       H0       H01     AOSYM     SMH    MOLCAS    ERIS     OPER   

 PROGRAMS   *        TOTAL       INT
 CPU TIMES  *         3.94      3.84
 REAL TIME  *         5.44 SEC
 DISK USED  *         1.33 GB      
 **********************************************************************************************************************************


 PROGRAM * RHF-SCF (CLOSED SHELL)       Authors: W. Meyer, H.-J. Werner


 NUMBER OF ELECTRONS:       8+    8-
 CONVERGENCE THRESHOLDS:    1.00E-10 (Density)    1.00E-13 (Energy)
 MAX. NUMBER OF ITERATIONS:      500
 INTERPOLATION TYPE:            DIIS
 INTERPOLATION STEPS:              2 (START)      1 (STEP)
 LEVEL SHIFTS:                  0.00 (CLOSED)  0.00 (OPEN) 



 Orbital guess generated from atomic densities. Full valence occupancy:    9   2

 Molecular orbital dump at record        2100.2

 Initial occupancy:   7   1

 ITERATION    DDIFF          GRAD             ENERGY        2-EL.EN.            DIPOLE MOMENTS         DIIS   ORB.
    1      0.000D+00      0.000D+00      -129.79106327    154.288606    0.00000    0.57056   -0.99676    0    start
    2      0.000D+00      0.871D-02      -129.81812725    155.466848    0.00000    0.59489   -0.20089    1    diag
    3      0.363D-02      0.653D-02      -129.83984891    155.578016    0.00000    0.54583   -0.57676    2    diag
    4      0.139D-02      0.103D-02      -129.84062060    155.307894    0.00000    0.55408   -0.51527    3    diag
    5      0.330D-03      0.334D-03      -129.84073819    155.395098    0.00000    0.56003   -0.51775    4    diag
    6      0.152D-03      0.976D-04      -129.84075727    155.379144    0.00000    0.56062   -0.51374    5    diag
    7      0.604D-04      0.488D-04      -129.84076283    155.381706    0.00000    0.56196   -0.51129    6    diag
    8      0.408D-04      0.164D-04      -129.84076340    155.380907    0.00000    0.56201   -0.51042    7    diag
    9      0.138D-04      0.304D-05      -129.84076343    155.380800    0.00000    0.56196   -0.51025    8    diag
   10      0.276D-05      0.701D-06      -129.84076343    155.380787    0.00000    0.56193   -0.51022    9    orth
   11      0.848D-06      0.140D-06      -129.84076343    155.380783    0.00000    0.56192   -0.51022    9    diag
   12      0.202D-06      0.287D-07      -129.84076343    155.380782    0.00000    0.56192   -0.51022    9    diag
   13      0.488D-07      0.751D-08      -129.84076343    155.380782    0.00000    0.56192   -0.51022    9    diag
   14      0.111D-07      0.134D-08      -129.84076343    155.380782    0.00000    0.56192   -0.51022    9    diag
   15      0.147D-08      0.364D-09      -129.84076343    155.380782    0.00000    0.56192   -0.51022    9    diag
   16      0.324D-09      0.110D-09      -129.84076343    155.380782    0.00000    0.56192   -0.51022    9    diag
   17      0.801D-10      0.312D-10      -129.84076343    155.380782    0.00000    0.56192   -0.51022    0    orth

 Final occupancy:   7   1

 !RHF STATE 1.1 Energy               -129.840763426654
 Nuclear energy                        30.49403736
 One-electron energy                 -238.02519174
 Two-electron energy                   77.69039096
 Virial quotient                       -1.00141900
 !RHF STATE 1.1 Dipole moment           0.00000000     0.56191584    -0.51021528
 Dipole moment /Debye                   0.00000000     1.42815405    -1.29675296

 Orbital energies:

         1.1          2.1          3.1          4.1          5.1          6.1          7.1          8.1          9.1
    -20.650706   -15.709072    -1.532311    -0.993009    -0.747319    -0.665715    -0.427495     0.039816     0.193518

         1.2          2.2          3.2
     -0.596578     0.080867     0.239748

 HOMO      7.1    -0.427495 =     -11.6327eV
 LUMO      8.1     0.039816 =       1.0834eV
 LUMO-HOMO         0.467311 =      12.7162eV


 **********************************************************************************************************************************
 DATASETS  * FILE   NREC   LENGTH (MB)   RECORD NAMES
              1      19      421.52       500      610      700      900      950      970     1000      129      960     1100   
                                          VAR    BASINP    GEOM    SYMINP    ZMAT    AOBASIS   BASIS     P2S    ABASIS      S 
                                         1400     1410     1200     1210     1080     1600     1650     1300     1700   
                                           T        V       H0       H01     AOSYM     SMH    MOLCAS    ERIS     OPER   

              2       4        3.13       700     1000      520     2100   
                                         GEOM     BASIS   MCVARS     RHF  

 PROGRAMS   *        TOTAL        HF       INT
 CPU TIMES  *         8.18      4.24      3.84
 REAL TIME  *        10.59 SEC
 DISK USED  *         1.33 GB      
 **********************************************************************************************************************************


 PROGRAM * CCSD (Closed-shell coupled cluster)     Authors: C. Hampel, H.-J. Werner, 1991, M. Deegan, P.J. Knowles, 1992


 Convergence thresholds:  THRVAR = 1.00D-08  THRDEN = 1.00D-12

 CCSD(T)     terms to be evaluated (factor= 1.000)


 Number of core orbitals:           2 (   2   0 )
 Number of closed-shell orbitals:   6 (   5   1 )
 Number of external orbitals:     163 ( 107  56 )

 Molecular orbitals read from record     2100.2  Type=RHF/CANONICAL (state 1.1)

 Number of N-1 electron functions:               6
 Number of N-2 electron functions:              21
 Number of singly external CSFs:               591
 Number of doubly external CSFs:            250014
 Total number of CSFs:                      250606

 Length of J-op  integral file:               0.00 MB
 Length of K-op  integral file:               1.15 MB
 Length of 3-ext integral record:             0.00 MB

 Memory could be reduced to 19.93 Mwords without degradation in triples

 Integral transformation finished. Total CPU:   0.64 sec, npass=  1  Memory used:   5.10 MW

 Reference energy:                   -129.84076343

 MP2 singlet pair energy:              -0.28624547
 MP2 triplet pair energy:              -0.16678110
 MP2 correlation energy:               -0.45302657
 MP2 total energy:                   -130.29379000

 SCS-MP2 correlation energy:           -0.44726947   (PS=  1.200000  PT=  0.333333)
 SCS-MP2 total energy:               -130.28803290

 ITER.      SQ.NORM     CORR.ENERGY   TOTAL ENERGY   ENERGY CHANGE        DEN1      VAR(S)    VAR(P)  DIIS     TIME  TIME/IT
   1      1.11808566    -0.45536261  -130.29612604    -0.00233604     0.01415837  0.31D-02  0.30D-02  1  1     1.20     0.64
   2      1.12844460    -0.45532647  -130.29608989     0.00003614    -0.01235132  0.12D-03  0.49D-03  2  2     1.79     0.65
   3      1.13487183    -0.45568856  -130.29645199    -0.00036209    -0.00332328  0.42D-04  0.56D-04  3  3     2.36     0.65
   4      1.13766789    -0.45572062  -130.29648405    -0.00003206    -0.00092491  0.42D-05  0.94D-05  4  4     2.95     0.66
   5      1.13870458    -0.45575147  -130.29651489    -0.00003085    -0.00021221  0.13D-05  0.17D-05  5  5     3.56     0.66
   6      1.13908870    -0.45573642  -130.29649984     0.00001505    -0.00006366  0.11D-06  0.43D-06  6  6     4.15     0.66
   7      1.13916067    -0.45573794  -130.29650136    -0.00000152     0.00000820  0.16D-07  0.91D-07  6  1     4.70     0.66
   8      1.13919462    -0.45573759  -130.29650102     0.00000035    -0.00000445  0.49D-08  0.14D-07  6  2     5.28     0.66
   9      1.13919977    -0.45573749  -130.29650092     0.00000010     0.00000086  0.21D-08  0.15D-08  6  3     5.88     0.66
  10      1.13920010    -0.45573781  -130.29650124    -0.00000032    -0.00000021  0.47D-09  0.24D-09  6  4     6.48     0.66
  11      1.13919862    -0.45573794  -130.29650137    -0.00000013     0.00000034  0.11D-09  0.24D-10  6  5     7.07     0.66
  12      1.13919750    -0.45573809  -130.29650151    -0.00000014     0.00000045  0.15D-10  0.70D-11  6  6     7.65     0.66
  13      1.13919688    -0.45573810  -130.29650153    -0.00000002     0.00000012  0.56D-11  0.13D-11  6  1     8.28     0.66
  14      1.13919639    -0.45573813  -130.29650156    -0.00000003     0.00000011  0.53D-12  0.41D-12  6  3     8.89     0.66
  15      1.13919624    -0.45573813  -130.29650156     0.00000000     0.00000001  0.13D-12  0.29D-13  6  2     9.47     0.66
  16      1.13919619    -0.45573813  -130.29650156    -0.00000000     0.00000001  0.30D-13  0.70D-14  6  4    10.03     0.66
  17      1.13919617    -0.45573813  -130.29650156    -0.00000000     0.00000001  0.38D-14  0.11D-14  6  5    10.63     0.66
  18      1.13919617    -0.45573813  -130.29650156     0.00000000     0.00000000  0.41D-15  0.29D-15  6  6    11.23     0.66
  19      1.13919618    -0.45573813  -130.29650156     0.00000000    -0.00000000  0.54D-16  0.35D-16  6  1    11.82     0.66
  20      1.13919618    -0.45573813  -130.29650156     0.00000000    -0.00000000  0.28D-17  0.80D-17  6  3    12.41     0.66
  21      1.13919618    -0.45573813  -130.29650156     0.00000000    -0.00000000  0.46D-18  0.17D-17  6  4    12.99     0.66
  22      1.13919618    -0.45573813  -130.29650156     0.00000000    -0.00000000  0.14D-19  0.59D-18  6  2    13.59     0.66
  23      1.13919618    -0.45573813  -130.29650156    -0.00000000     0.00000000  0.42D-19  0.13D-18  6  5    14.19     0.67
  24      1.13919618    -0.45573813  -130.29650156    -0.00000000     0.00000000  0.44D-20  0.12D-19  6  1    14.79     0.67
  25      1.13919618    -0.45573813  -130.29650156     0.00000000    -0.00000000  0.19D-20  0.79D-21  6  6    15.39     0.67

 Norm of t1 vector:      0.07615865      S-energy:     0.00000000      T1 diagnostic:  0.01554582
                                                                       D1 diagnostic:  0.04232003

 Doubles amplitudes (print threshold =  0.500E-01):

         I         J         SYM. A    SYM. B    A         B      T(IJ, AB)

         6         6         2         2         1         1     -0.13392569


 Total CPU time for triples:      7.00 sec


 RESULTS
 =======

  Reference energy                   -129.840763426654
  CCSD singlet pair energy             -0.312851753905
  CCSD triplet pair energy             -0.142886379331
  CCSD correlation energy              -0.455738133230

  Triples (T) contribution             -0.021008927883
  Total correlation energy             -0.476747061113

  CCSD total energy                  -130.296501559885
  CCSD[T] energy                     -130.318578504335
  CCSD-T energy                      -130.317104307247
 !CCSD(T) total energy               -130.317510487767

 Timing summary (sec):

 STEP                 CPU(USER)    SYS     CPU(TOT)    WALL
 Transformation          0.65      0.16      0.81      0.82
 CCSD iterations        14.75      1.91     16.66     16.63
 Triples                 7.00      0.25      7.25      7.25

 Program statistics:

 Available memory in ccsd:               994999756
 Min. memory needed in ccsd:                887758
 Max. memory used in ccsd:                 1088212
 Max. memory used in cckext:               1535578 (25 integral passes)



 **********************************************************************************************************************************
 DATASETS  * FILE   NREC   LENGTH (MB)   RECORD NAMES
              1      20      479.48       500      610      700      900      950      970     1000      129      960     1100   
                                          VAR    BASINP    GEOM    SYMINP    ZMAT    AOBASIS   BASIS     P2S    ABASIS      S 
                                         1400     1410     1200     1210     1080     1600     1650     1300     1700     1380   
                                           T        V       H0       H01     AOSYM     SMH    MOLCAS    ERIS     OPER     JKOP   

              2       4        3.13       700     1000      520     2100   
                                         GEOM     BASIS   MCVARS     RHF  

 PROGRAMS   *        TOTAL   CCSD(T)        HF       INT
 CPU TIMES  *        30.61     22.43      4.24      3.84
 REAL TIME  *        35.80 SEC
 DISK USED  *         1.33 GB      
 **********************************************************************************************************************************

 CCSD(T)/USERDEF energy=   -130.317510487767

        CCSD(T)         HF-SCF  
   -130.31751049   -129.84076343
 **********************************************************************************************************************************
 Molpro calculation terminated
 Variable memory released
