
 Primary working directories    : /tmp/r2666/282297.maple
 Secondary working directories  : /tmp/r2666/282297.maple
 Wavefunction directory         : /ddn/home4/r2666/wfu/
 Main file repository           : /tmp/r2666/282297.maple/

 SHA1      : d5ffa45e93fdbca01ffc919aa182cfdae0147319
 NAME      : 2015.1.35
 ARCHNAME  : linux/x86_64
 FC        : /opt/intel/composer_xe_2015.1.133/bin/intel64/ifort
 BLASLIB   : -Wl,-_start-group /opt/intel/mkl/lib/intel64/libmkl_intel_ilp64.a /opt/intel/mkl/lib/intel64/libmkl_intel_thread.a /opt/intel/mkl/lib/intel64/libmkl_core.a -Wl,-_end-group
 id        : olemiss

 Nodes     nprocs
 cn079        1

 Using customized tuning parameters: mindgm=1; mindgv=20; mindgc=4; mindgr=1; noblas=0; minvec=7
 default implementation of scratch files=df  

 ***,hno CCSD(T)/TZ-F12 QFF
 memory, 995, m;
 gthresh,energy=1.d-12,zero=1.d-22,oneint=1.d-22,twoint=1.d-22;
 gthresh,optgrad=1.d-8,optstep=1.d-8;
 nocompress;
 geomtyp=xyz
 bohr
 geometry={
 3
         65        65
 H        0.0000000000        1.6666338987       -1.9256228379
 N        0.0000000000       -0.1635657754       -1.1492613422
 O        0.0000000000        0.0386996667        1.1242945891
 }
 
 basis={
 default=aug-cc-pvtz
 s,C,8236.0,1235.0,280.8, 79.27,25.59, 8.997,3.319
 s,C,0.9059,0.3643,0.1285000
 p,C,56.0,18.71,4.133,0.2827,0.3827,0.1209
 d,C,30.0,10.0,3.3,1.097,0.318
 f,C,7.0,2.3,0.7610
 s,N,11420.0,1712.0,389.3,110.0,35.57,12.54,4.644
 s,N,1.293,0.5118,0.1787
 p,N,79.89,26.63,5.948,1.742,0.555,0.1725
 d,N,45.0,15.0,5.0,1.654,0.469
 f,N,9.9,3.3,1.093
 s,O,15330.0,2299.0,522.4,147.3,47.55,16.76,6.207
 s,O,1.752,0.6882,0.2384
 p,O,103.5,34.46,7.749,2.28,0.7156,0.214
 d,O,63.0,21.0,7.0,2.314,0.645
 f,O,12.9,4.3,1.428
 s,mg,164900.0,24710.0,5628.0,1596.0,521.0;
 s,mg,188.0,73.01,29.90,12.54,4.306,1.826;
 s,mg,0.7417,0.0761,0.145,0.033,0.0129;
 p,mg,950.70,316.90,74.86,23.72,8.669,3.363;
 p,mg,1.310,0.4911,0.2364,0.08733,0.03237,0.00745;
 d,mg,1.601,0.686,0.126,0.294,0.0468;
 f,mg,1.372,0.588,0.094,0.252;
 }
   {hf,maxit=500;accu,20;}
 {ccsd(t),nocheck,maxit=250;orbital,IGNORE_ERROR;}

 Variables initialized (889), CPU time= 0.01 sec
 Commands  initialized (702), CPU time= 0.01 sec, 572 directives.
 Default parameters read. Elapsed time= 0.04 sec

 Checking input...
 Passed
1


                                         ***  PROGRAM SYSTEM MOLPRO  ***
                                       Copyright, TTI GmbH Stuttgart, 2015
                                    Version 2015.1 linked Jul  9 2018 13:16:40


 **********************************************************************************************************************************
 LABEL *   hno CCSD(T)/TZ-F12 QFF                                                        
  64 bit serial version                                                                  DATE: 04-Mar-20          TIME: 13:47:37  
 **********************************************************************************************************************************

 SHA1:             d5ffa45e93fdbca01ffc919aa182cfdae0147319
 **********************************************************************************************************************************

 THRESHOLDS:

 ZERO    =  1.00D-22  ONEINT  =  1.00D-22  TWOINT  =  1.00D-22  PREFAC  =  1.00D-14  LOCALI  =  1.00D-09  EORDER  =  1.00D-04
 ENERGY  =  1.00D-12  ETEST   =  0.00D+00  EDENS   =  0.00D+00  THRDEDEF=  1.00D-06  GRADIENT=  1.00D-02  STEP    =  1.00D-03
 ORBITAL =  1.00D-05  CIVEC   =  1.00D-05  COEFF   =  1.00D-04  PRINTCI =  5.00D-02  PUNCHCI =  9.90D+01  OPTGRAD =  3.00D-04
 OPTENERG=  1.00D-06  OPTSTEP =  3.00D-04  THRGRAD =  1.00D-10  COMPRESS=  1.00D-11  VARMIN  =  1.00D-07  VARMAX  =  1.00D-03
 THRDOUB =  0.00D+00  THRDIV  =  1.00D-05  THRRED  =  1.00D-07  THRPSP  =  1.00D+00  THRDC   =  1.00D-10  THRCS   =  1.00D-10
 THRNRM  =  1.00D-08  THREQ   =  0.00D+00  THRDE   =  1.00D+00  THRREF  =  1.00D-05  SPARFAC =  1.00D+00  THRDLP  =  1.00D-07
 THRDIA  =  1.00D-10  THRDLS  =  1.00D-07  THRGPS  =  0.00D+00  THRKEX  =  0.00D+00  THRDIS  =  2.00D-01  THRVAR  =  1.00D-10
 THRLOC  =  1.00D-06  THRGAP  =  1.00D-06  THRLOCT = -1.00D+00  THRGAPT = -1.00D+00  THRORB  =  1.00D-06  THRMLTP =  0.00D+00
 THRCPQCI=  1.00D-10  KEXTA   =  0.00D+00  THRCOARS=  0.00D+00  SYMTOL  =  1.00D-06  GRADTOL =  1.00D-06  THROVL  =  1.00D-08
 THRORTH =  1.00D-08  GRID    =  1.00D-06  GRIDMAX =  1.00D-03  DTMAX   =  0.00D+00  THROCCDE=  1.00D-01  THROCCDE=  1.00D-01



 THRESHOLDS:

 ZERO    =  1.00D-22  ONEINT  =  1.00D-22  TWOINT  =  1.00D-22  PREFAC  =  1.00D-14  LOCALI  =  1.00D-09  EORDER  =  1.00D-04
 ENERGY  =  1.00D-12  ETEST   =  0.00D+00  EDENS   =  0.00D+00  THRDEDEF=  1.00D-06  GRADIENT=  1.00D-02  STEP    =  1.00D-03
 ORBITAL =  1.00D-05  CIVEC   =  1.00D-05  COEFF   =  1.00D-04  PRINTCI =  5.00D-02  PUNCHCI =  9.90D+01  OPTGRAD =  1.00D-08
 OPTENERG=  1.00D-06  OPTSTEP =  1.00D-08  THRGRAD =  1.00D-10  COMPRESS=  1.00D-11  VARMIN  =  1.00D-07  VARMAX  =  1.00D-03
 THRDOUB =  0.00D+00  THRDIV  =  1.00D-05  THRRED  =  1.00D-07  THRPSP  =  1.00D+00  THRDC   =  1.00D-10  THRCS   =  1.00D-10
 THRNRM  =  1.00D-08  THREQ   =  0.00D+00  THRDE   =  1.00D+00  THRREF  =  1.00D-05  SPARFAC =  1.00D+00  THRDLP  =  1.00D-07
 THRDIA  =  1.00D-10  THRDLS  =  1.00D-07  THRGPS  =  0.00D+00  THRKEX  =  0.00D+00  THRDIS  =  2.00D-01  THRVAR  =  1.00D-10
 THRLOC  =  1.00D-06  THRGAP  =  1.00D-06  THRLOCT = -1.00D+00  THRGAPT = -1.00D+00  THRORB  =  1.00D-06  THRMLTP =  0.00D+00
 THRCPQCI=  1.00D-10  KEXTA   =  0.00D+00  THRCOARS=  0.00D+00  SYMTOL  =  1.00D-06  GRADTOL =  1.00D-06  THROVL  =  1.00D-08
 THRORTH =  1.00D-08  GRID    =  1.00D-06  GRIDMAX =  1.00D-03  DTMAX   =  0.00D+00  THROCCDE=  1.00D-01  THROCCDE=  1.00D-01



 Input parameters for SORTINT:

 COMPRESS =    0.000000
 C_FINAL  =    1.000000
 DEBUG    =   -1.000000
 C_SORT1  =    0.000000
 C_SEWARD =    0.000000
 THRESH   =    0.000000
 IO       =  molpro                                                          
 SPRI     =    0.000000
 SETTING GEOMTYP        =    XYZ
 ZUNIT=BOHR
 

 Variable memory set to  995000000 words,  buffer space   230000 words

 SETTING BASIS          =    USERDEF


 Recomputing integrals since basis changed


 Using spherical harmonics

 Library entry H      S aug-cc-pVTZ          selected for orbital group  1
 Library entry H      P aug-cc-pVTZ          selected for orbital group  1
 Library entry H      D aug-cc-pVTZ          selected for orbital group  1


 PROGRAM * SEWARD (Integral evaluation for generally contracted gaussian basis sets)     Author: Roland Lindh, 1990

 Geometry written to block  1 of record 700


 Point group  Cs  



 ATOMIC COORDINATES

 NR  ATOM    CHARGE       X              Y              Z

   1  H       1.00    0.000000000    1.666633899   -1.925622838
   2  N       7.00    0.000000000   -0.163565775   -1.149261342
   3  O       8.00    0.000000000    0.038699667    1.124294589

 Bond lengths in Bohr (Angstrom)

 1-2  1.988056342  2-3  2.282535406
     ( 1.052034110)     ( 1.207865720)

 Bond angles

  1-2-3  107.90251459

 NUCLEAR CHARGE:                   16
 NUMBER OF PRIMITIVE AOS:         203
 NUMBER OF SYMMETRY AOS:          173
 NUMBER OF CONTRACTIONS:          171   ( 114A'  +  57A"  )
 NUMBER OF CORE ORBITALS:           2   (   2A'  +   0A"  )
 NUMBER OF VALENCE ORBITALS:        9   (   7A'  +   2A"  )


 NUCLEAR REPULSION ENERGY   30.36916573


 Eigenvalues of metric

         1 0.104E-02 0.249E-02 0.333E-02 0.636E-02 0.985E-02 0.137E-01 0.145E-01 0.230E-01
         2 0.364E-01 0.531E-01 0.700E-01 0.941E-01 0.131E+00 0.134E+00 0.140E+00 0.142E+00


 Contracted 2-electron integrals neglected if value below      1.0D-22

       46153110. INTEGRALS WRITTEN OUT IN   11271 BLOCKS ON RECORD 1290 OF FILE 1


 NUMBER OF SORTED TWO-ELECTRON INTEGRALS:   55360566.     BUFFER LENGTH:  32768
 NUMBER OF SEGMENTS:   4  SEGMENT LENGTH:   15997996      RECORD LENGTH: 524288

 Memory used in sort:      16.56 MW

 SORT1 READ    46153110. AND WROTE    46590614. INTEGRALS IN    136 RECORDS. CPU TIME:     0.77 SEC, REAL TIME:     1.01 SEC
 SORT2 READ    46590614. AND WROTE    55360566. INTEGRALS IN      4 RECORDS. CPU TIME:     0.59 SEC, REAL TIME:     0.84 SEC

 FILE SIZES:   FILE 1:   759.4 MBYTE,  FILE 4:   570.5 MBYTE,   TOTAL:   1329.8 MBYTE

 OPERATOR DM      FOR CENTER  0  COORDINATES:    0.000000    0.000000    0.000000


 **********************************************************************************************************************************
 DATASETS  * FILE   NREC   LENGTH (MB)   RECORD NAMES
              1      19      421.30       500      610      700      900      950      970     1000      129      960     1100   
                                          VAR    BASINP    GEOM    SYMINP    ZMAT    AOBASIS   BASIS     P2S    ABASIS      S 
                                         1400     1410     1200     1210     1080     1600     1650     1300     1700   
                                           T        V       H0       H01     AOSYM     SMH    MOLCAS    ERIS     OPER   

 PROGRAMS   *        TOTAL       INT
 CPU TIMES  *         4.08      3.99
 REAL TIME  *         5.31 SEC
 DISK USED  *         1.33 GB      
 **********************************************************************************************************************************


 PROGRAM * RHF-SCF (CLOSED SHELL)       Authors: W. Meyer, H.-J. Werner


 NUMBER OF ELECTRONS:       8+    8-
 CONVERGENCE THRESHOLDS:    1.00E-10 (Density)    1.00E-13 (Energy)
 MAX. NUMBER OF ITERATIONS:      500
 INTERPOLATION TYPE:            DIIS
 INTERPOLATION STEPS:              2 (START)      1 (STEP)
 LEVEL SHIFTS:                  0.00 (CLOSED)  0.00 (OPEN) 



 Orbital guess generated from atomic densities. Full valence occupancy:    9   2

 Molecular orbital dump at record        2100.2

 Initial occupancy:   7   1

 ITERATION    DDIFF          GRAD             ENERGY        2-EL.EN.            DIPOLE MOMENTS         DIIS   ORB.
    1      0.000D+00      0.000D+00      -129.78926466    154.062802    0.00000    0.56706   -1.01271    0    start
    2      0.000D+00      0.879D-02      -129.81618599    155.236005    0.00000    0.59766   -0.19512    1    diag
    3      0.364D-02      0.668D-02      -129.83897068    155.356910    0.00000    0.54529   -0.58240    2    diag
    4      0.142D-02      0.104D-02      -129.83975316    155.082546    0.00000    0.55354   -0.52012    3    diag
    5      0.331D-03      0.337D-03      -129.83987364    155.170510    0.00000    0.55953   -0.52251    4    diag
    6      0.153D-03      0.990D-04      -129.83989331    155.154412    0.00000    0.56010   -0.51839    5    diag
    7      0.607D-04      0.496D-04      -129.83989911    155.156952    0.00000    0.56143   -0.51587    6    diag
    8      0.412D-04      0.170D-04      -129.83989973    155.156124    0.00000    0.56148   -0.51496    7    diag
    9      0.143D-04      0.316D-05      -129.83989976    155.156011    0.00000    0.56143   -0.51478    8    diag
   10      0.290D-05      0.720D-06      -129.83989976    155.155998    0.00000    0.56140   -0.51475    9    orth
   11      0.862D-06      0.143D-06      -129.83989976    155.155994    0.00000    0.56139   -0.51475    9    diag
   12      0.204D-06      0.298D-07      -129.83989976    155.155993    0.00000    0.56139   -0.51475    9    diag
   13      0.500D-07      0.787D-08      -129.83989976    155.155993    0.00000    0.56139   -0.51475    9    diag
   14      0.115D-07      0.139D-08      -129.83989976    155.155993    0.00000    0.56139   -0.51475    9    diag
   15      0.147D-08      0.373D-09      -129.83989976    155.155993    0.00000    0.56139   -0.51475    9    diag
   16      0.327D-09      0.110D-09      -129.83989976    155.155993    0.00000    0.56139   -0.51475    9    diag
   17      0.764D-10      0.306D-10      -129.83989976    155.155993    0.00000    0.56139   -0.51475    0    orth

 Final occupancy:   7   1

 !RHF STATE 1.1 Energy               -129.839899757286
 Nuclear energy                        30.36916573
 One-electron energy                 -237.78706183
 Two-electron energy                   77.57799634
 Virial quotient                       -1.00162235
 !RHF STATE 1.1 Dipole moment           0.00000000     0.56138631    -0.51474865
 Dipole moment /Debye                   0.00000000     1.42680822    -1.30827486

 Orbital energies:

         1.1          2.1          3.1          4.1          5.1          6.1          7.1          8.1          9.1
    -20.651206   -15.710648    -1.528279    -0.992720    -0.745249    -0.664213    -0.428921     0.039738     0.192837

         1.2          2.2          3.2
     -0.594300     0.079190     0.239510

 HOMO      7.1    -0.428921 =     -11.6715eV
 LUMO      8.1     0.039738 =       1.0813eV
 LUMO-HOMO         0.468659 =      12.7529eV


 **********************************************************************************************************************************
 DATASETS  * FILE   NREC   LENGTH (MB)   RECORD NAMES
              1      19      421.30       500      610      700      900      950      970     1000      129      960     1100   
                                          VAR    BASINP    GEOM    SYMINP    ZMAT    AOBASIS   BASIS     P2S    ABASIS      S 
                                         1400     1410     1200     1210     1080     1600     1650     1300     1700   
                                           T        V       H0       H01     AOSYM     SMH    MOLCAS    ERIS     OPER   

              2       4        3.13       700     1000      520     2100   
                                         GEOM     BASIS   MCVARS     RHF  

 PROGRAMS   *        TOTAL        HF       INT
 CPU TIMES  *         8.34      4.26      3.99
 REAL TIME  *        10.49 SEC
 DISK USED  *         1.33 GB      
 **********************************************************************************************************************************


 PROGRAM * CCSD (Closed-shell coupled cluster)     Authors: C. Hampel, H.-J. Werner, 1991, M. Deegan, P.J. Knowles, 1992


 Convergence thresholds:  THRVAR = 1.00D-08  THRDEN = 1.00D-12

 CCSD(T)     terms to be evaluated (factor= 1.000)


 Number of core orbitals:           2 (   2   0 )
 Number of closed-shell orbitals:   6 (   5   1 )
 Number of external orbitals:     163 ( 107  56 )

 Molecular orbitals read from record     2100.2  Type=RHF/CANONICAL (state 1.1)

 Number of N-1 electron functions:               6
 Number of N-2 electron functions:              21
 Number of singly external CSFs:               591
 Number of doubly external CSFs:            250014
 Total number of CSFs:                      250606

 Length of J-op  integral file:               0.00 MB
 Length of K-op  integral file:               1.15 MB
 Length of 3-ext integral record:             0.00 MB

 Memory could be reduced to 19.93 Mwords without degradation in triples

 Integral transformation finished. Total CPU:   0.66 sec, npass=  1  Memory used:   5.10 MW

 Reference energy:                   -129.83989976

 MP2 singlet pair energy:              -0.28686196
 MP2 triplet pair energy:              -0.16718137
 MP2 correlation energy:               -0.45404333
 MP2 total energy:                   -130.29394309

 SCS-MP2 correlation energy:           -0.44825831   (PS=  1.200000  PT=  0.333333)
 SCS-MP2 total energy:               -130.28815807

 ITER.      SQ.NORM     CORR.ENERGY   TOTAL ENERGY   ENERGY CHANGE        DEN1      VAR(S)    VAR(P)  DIIS     TIME  TIME/IT
   1      1.11878196    -0.45618088  -130.29608064    -0.00213755     0.01461017  0.32D-02  0.31D-02  1  1     1.25     0.64
   2      1.12929267    -0.45610159  -130.29600135     0.00007929    -0.01250181  0.12D-03  0.50D-03  2  2     1.86     0.66
   3      1.13584368    -0.45647303  -130.29637279    -0.00037144    -0.00336576  0.44D-04  0.57D-04  3  3     2.46     0.66
   4      1.13870472    -0.45650519  -130.29640495    -0.00003216    -0.00094338  0.44D-05  0.96D-05  4  4     3.05     0.67
   5      1.13977721    -0.45653735  -130.29643711    -0.00003215    -0.00021945  0.13D-05  0.17D-05  5  5     3.66     0.67
   6      1.14017103    -0.45652171  -130.29642146     0.00001564    -0.00006540  0.12D-06  0.42D-06  6  6     4.24     0.67
   7      1.14024328    -0.45652320  -130.29642296    -0.00000150     0.00000849  0.17D-07  0.92D-07  6  1     4.85     0.67
   8      1.14027778    -0.45652277  -130.29642253     0.00000043    -0.00000462  0.48D-08  0.14D-07  6  2     5.43     0.67
   9      1.14028308    -0.45652266  -130.29642241     0.00000012     0.00000094  0.21D-08  0.16D-08  6  3     6.00     0.67
  10      1.14028349    -0.45652298  -130.29642274    -0.00000032    -0.00000024  0.48D-09  0.25D-09  6  4     6.61     0.67
  11      1.14028199    -0.45652312  -130.29642287    -0.00000014     0.00000034  0.12D-09  0.25D-10  6  5     7.24     0.67
  12      1.14028085    -0.45652326  -130.29642302    -0.00000015     0.00000046  0.15D-10  0.73D-11  6  6     7.81     0.67
  13      1.14028021    -0.45652328  -130.29642304    -0.00000002     0.00000012  0.57D-11  0.13D-11  6  1     8.38     0.67
  14      1.14027971    -0.45652331  -130.29642306    -0.00000003     0.00000011  0.54D-12  0.43D-12  6  3     8.98     0.67
  15      1.14027956    -0.45652331  -130.29642306     0.00000000     0.00000001  0.14D-12  0.30D-13  6  2     9.59     0.67
  16      1.14027951    -0.45652331  -130.29642307    -0.00000000     0.00000001  0.32D-13  0.73D-14  6  4    10.21     0.67
  17      1.14027948    -0.45652331  -130.29642307    -0.00000000     0.00000001  0.40D-14  0.12D-14  6  5    10.81     0.68
  18      1.14027948    -0.45652331  -130.29642307     0.00000000     0.00000000  0.44D-15  0.31D-15  6  6    11.43     0.68
  19      1.14027949    -0.45652331  -130.29642307     0.00000000    -0.00000000  0.59D-16  0.39D-16  6  1    12.05     0.68
  20      1.14027949    -0.45652331  -130.29642307     0.00000000    -0.00000000  0.31D-17  0.93D-17  6  3    12.65     0.68
  21      1.14027949    -0.45652331  -130.29642307     0.00000000    -0.00000000  0.49D-18  0.20D-17  6  4    13.24     0.68
  22      1.14027949    -0.45652331  -130.29642307     0.00000000    -0.00000000  0.16D-19  0.69D-18  6  2    13.87     0.68
  23      1.14027949    -0.45652331  -130.29642307    -0.00000000     0.00000000  0.28D-19  0.12D-18  6  4    14.47     0.68
  24      1.14027949    -0.45652331  -130.29642307     0.00000000    -0.00000000  0.30D-20  0.60D-20  6  5    15.09     0.68
  25      1.14027949    -0.45652331  -130.29642307    -0.00000000     0.00000000  0.34D-21  0.50D-21  6  6    15.69     0.68
  26      1.14027949    -0.45652331  -130.29642307     0.00000000    -0.00000000  0.14D-21  0.56D-22  6  1    16.32     0.68
  27      1.14027949    -0.45652331  -130.29642307    -0.00000000    -0.00000000  0.52D-22  0.16D-22  6  3    16.94     0.68

 Norm of t1 vector:      0.07709693      S-energy:     0.00000000      T1 diagnostic:  0.01573734
                                                                       D1 diagnostic:  0.04294610

 Doubles amplitudes (print threshold =  0.500E-01):

         I         J         SYM. A    SYM. B    A         B      T(IJ, AB)

         6         6         2         2         1         1     -0.13543461


 Total CPU time for triples:      6.88 sec


 RESULTS
 =======

  Reference energy                   -129.839899757286
  CCSD singlet pair energy             -0.313535882523
  CCSD triplet pair energy             -0.142987427315
  CCSD correlation energy              -0.456523309833

  Triples (T) contribution             -0.021192073492
  Total correlation energy             -0.477715383324

  CCSD total energy                  -130.296423067119
  CCSD[T] energy                     -130.318708576021
  CCSD-T energy                      -130.317201708226
 !CCSD(T) total energy               -130.317615140610

 Timing summary (sec):

 STEP                 CPU(USER)    SYS     CPU(TOT)    WALL
 Transformation          0.68      0.13      0.81      0.81
 CCSD iterations        16.27      2.17     18.44     18.44
 Triples                 6.88      0.20      7.08      7.08

 Program statistics:

 Available memory in ccsd:               994999756
 Min. memory needed in ccsd:                887758
 Max. memory used in ccsd:                 1088212
 Max. memory used in cckext:               1535578 (27 integral passes)



 **********************************************************************************************************************************
 DATASETS  * FILE   NREC   LENGTH (MB)   RECORD NAMES
              1      20      479.25       500      610      700      900      950      970     1000      129      960     1100   
                                          VAR    BASINP    GEOM    SYMINP    ZMAT    AOBASIS   BASIS     P2S    ABASIS      S 
                                         1400     1410     1200     1210     1080     1600     1650     1300     1700     1380   
                                           T        V       H0       H01     AOSYM     SMH    MOLCAS    ERIS     OPER     JKOP   

              2       4        3.13       700     1000      520     2100   
                                         GEOM     BASIS   MCVARS     RHF  

 PROGRAMS   *        TOTAL   CCSD(T)        HF       INT
 CPU TIMES  *        32.21     23.87      4.26      3.99
 REAL TIME  *        37.26 SEC
 DISK USED  *         1.33 GB      
 **********************************************************************************************************************************

 CCSD(T)/USERDEF energy=   -130.317615140610

        CCSD(T)         HF-SCF  
   -130.31761514   -129.83989976
 **********************************************************************************************************************************
 Molpro calculation terminated
 Variable memory released
