
 Primary working directories    : /tmp/r2666/282346.maple
 Secondary working directories  : /tmp/r2666/282346.maple
 Wavefunction directory         : /ddn/home4/r2666/wfu/
 Main file repository           : /tmp/r2666/282346.maple/

 SHA1      : d5ffa45e93fdbca01ffc919aa182cfdae0147319
 NAME      : 2015.1.35
 ARCHNAME  : linux/x86_64
 FC        : /opt/intel/composer_xe_2015.1.133/bin/intel64/ifort
 BLASLIB   : -Wl,-_start-group /opt/intel/mkl/lib/intel64/libmkl_intel_ilp64.a /opt/intel/mkl/lib/intel64/libmkl_intel_thread.a /opt/intel/mkl/lib/intel64/libmkl_core.a -Wl,-_end-group
 id        : olemiss

 Nodes     nprocs
 cn080        1

 Using customized tuning parameters: mindgm=1; mindgv=20; mindgc=4; mindgr=1; noblas=0; minvec=7
 default implementation of scratch files=df  

 ***,hno CCSD(T)/TZ-F12 QFF
 memory, 995, m;
 gthresh,energy=1.d-12,zero=1.d-22,oneint=1.d-22,twoint=1.d-22;
 gthresh,optgrad=1.d-8,optstep=1.d-8;
 nocompress;
 geomtyp=xyz
 bohr
 geometry={
 3
        114       114
 H        0.0000000000        1.6753508014       -1.9377815352
 N        0.0000000000       -0.1656372607       -1.1386409245
 O        0.0000000000        0.0320542494        1.1258328687
 }
 
 basis={
 default=aug-cc-pvtz
 s,C,8236.0,1235.0,280.8, 79.27,25.59, 8.997,3.319
 s,C,0.9059,0.3643,0.1285000
 p,C,56.0,18.71,4.133,0.2827,0.3827,0.1209
 d,C,30.0,10.0,3.3,1.097,0.318
 f,C,7.0,2.3,0.7610
 s,N,11420.0,1712.0,389.3,110.0,35.57,12.54,4.644
 s,N,1.293,0.5118,0.1787
 p,N,79.89,26.63,5.948,1.742,0.555,0.1725
 d,N,45.0,15.0,5.0,1.654,0.469
 f,N,9.9,3.3,1.093
 s,O,15330.0,2299.0,522.4,147.3,47.55,16.76,6.207
 s,O,1.752,0.6882,0.2384
 p,O,103.5,34.46,7.749,2.28,0.7156,0.214
 d,O,63.0,21.0,7.0,2.314,0.645
 f,O,12.9,4.3,1.428
 s,mg,164900.0,24710.0,5628.0,1596.0,521.0;
 s,mg,188.0,73.01,29.90,12.54,4.306,1.826;
 s,mg,0.7417,0.0761,0.145,0.033,0.0129;
 p,mg,950.70,316.90,74.86,23.72,8.669,3.363;
 p,mg,1.310,0.4911,0.2364,0.08733,0.03237,0.00745;
 d,mg,1.601,0.686,0.126,0.294,0.0468;
 f,mg,1.372,0.588,0.094,0.252;
 }
   {hf,maxit=500;accu,20;}
 {ccsd(t),nocheck,maxit=250;orbital,IGNORE_ERROR;}

 Variables initialized (889), CPU time= 0.00 sec
 Commands  initialized (702), CPU time= 0.00 sec, 572 directives.
 Default parameters read. Elapsed time= 0.04 sec

 Checking input...
 Passed
1


                                         ***  PROGRAM SYSTEM MOLPRO  ***
                                       Copyright, TTI GmbH Stuttgart, 2015
                                    Version 2015.1 linked Jul  9 2018 13:16:40


 **********************************************************************************************************************************
 LABEL *   hno CCSD(T)/TZ-F12 QFF                                                        
  64 bit serial version                                                                  DATE: 04-Mar-20          TIME: 13:48:17  
 **********************************************************************************************************************************

 SHA1:             d5ffa45e93fdbca01ffc919aa182cfdae0147319
 **********************************************************************************************************************************

 THRESHOLDS:

 ZERO    =  1.00D-22  ONEINT  =  1.00D-22  TWOINT  =  1.00D-22  PREFAC  =  1.00D-14  LOCALI  =  1.00D-09  EORDER  =  1.00D-04
 ENERGY  =  1.00D-12  ETEST   =  0.00D+00  EDENS   =  0.00D+00  THRDEDEF=  1.00D-06  GRADIENT=  1.00D-02  STEP    =  1.00D-03
 ORBITAL =  1.00D-05  CIVEC   =  1.00D-05  COEFF   =  1.00D-04  PRINTCI =  5.00D-02  PUNCHCI =  9.90D+01  OPTGRAD =  3.00D-04
 OPTENERG=  1.00D-06  OPTSTEP =  3.00D-04  THRGRAD =  1.00D-10  COMPRESS=  1.00D-11  VARMIN  =  1.00D-07  VARMAX  =  1.00D-03
 THRDOUB =  0.00D+00  THRDIV  =  1.00D-05  THRRED  =  1.00D-07  THRPSP  =  1.00D+00  THRDC   =  1.00D-10  THRCS   =  1.00D-10
 THRNRM  =  1.00D-08  THREQ   =  0.00D+00  THRDE   =  1.00D+00  THRREF  =  1.00D-05  SPARFAC =  1.00D+00  THRDLP  =  1.00D-07
 THRDIA  =  1.00D-10  THRDLS  =  1.00D-07  THRGPS  =  0.00D+00  THRKEX  =  0.00D+00  THRDIS  =  2.00D-01  THRVAR  =  1.00D-10
 THRLOC  =  1.00D-06  THRGAP  =  1.00D-06  THRLOCT = -1.00D+00  THRGAPT = -1.00D+00  THRORB  =  1.00D-06  THRMLTP =  0.00D+00
 THRCPQCI=  1.00D-10  KEXTA   =  0.00D+00  THRCOARS=  0.00D+00  SYMTOL  =  1.00D-06  GRADTOL =  1.00D-06  THROVL  =  1.00D-08
 THRORTH =  1.00D-08  GRID    =  1.00D-06  GRIDMAX =  1.00D-03  DTMAX   =  0.00D+00  THROCCDE=  1.00D-01  THROCCDE=  1.00D-01



 THRESHOLDS:

 ZERO    =  1.00D-22  ONEINT  =  1.00D-22  TWOINT  =  1.00D-22  PREFAC  =  1.00D-14  LOCALI  =  1.00D-09  EORDER  =  1.00D-04
 ENERGY  =  1.00D-12  ETEST   =  0.00D+00  EDENS   =  0.00D+00  THRDEDEF=  1.00D-06  GRADIENT=  1.00D-02  STEP    =  1.00D-03
 ORBITAL =  1.00D-05  CIVEC   =  1.00D-05  COEFF   =  1.00D-04  PRINTCI =  5.00D-02  PUNCHCI =  9.90D+01  OPTGRAD =  1.00D-08
 OPTENERG=  1.00D-06  OPTSTEP =  1.00D-08  THRGRAD =  1.00D-10  COMPRESS=  1.00D-11  VARMIN  =  1.00D-07  VARMAX  =  1.00D-03
 THRDOUB =  0.00D+00  THRDIV  =  1.00D-05  THRRED  =  1.00D-07  THRPSP  =  1.00D+00  THRDC   =  1.00D-10  THRCS   =  1.00D-10
 THRNRM  =  1.00D-08  THREQ   =  0.00D+00  THRDE   =  1.00D+00  THRREF  =  1.00D-05  SPARFAC =  1.00D+00  THRDLP  =  1.00D-07
 THRDIA  =  1.00D-10  THRDLS  =  1.00D-07  THRGPS  =  0.00D+00  THRKEX  =  0.00D+00  THRDIS  =  2.00D-01  THRVAR  =  1.00D-10
 THRLOC  =  1.00D-06  THRGAP  =  1.00D-06  THRLOCT = -1.00D+00  THRGAPT = -1.00D+00  THRORB  =  1.00D-06  THRMLTP =  0.00D+00
 THRCPQCI=  1.00D-10  KEXTA   =  0.00D+00  THRCOARS=  0.00D+00  SYMTOL  =  1.00D-06  GRADTOL =  1.00D-06  THROVL  =  1.00D-08
 THRORTH =  1.00D-08  GRID    =  1.00D-06  GRIDMAX =  1.00D-03  DTMAX   =  0.00D+00  THROCCDE=  1.00D-01  THROCCDE=  1.00D-01



 Input parameters for SORTINT:

 COMPRESS =    0.000000
 C_FINAL  =    1.000000
 DEBUG    =   -1.000000
 C_SORT1  =    0.000000
 C_SEWARD =    0.000000
 THRESH   =    0.000000
 IO       =  molpro                                                          
 SPRI     =    0.000000
 SETTING GEOMTYP        =    XYZ
 ZUNIT=BOHR
 

 Variable memory set to  995000000 words,  buffer space   230000 words

 SETTING BASIS          =    USERDEF


 Recomputing integrals since basis changed


 Using spherical harmonics

 Library entry H      S aug-cc-pVTZ          selected for orbital group  1
 Library entry H      P aug-cc-pVTZ          selected for orbital group  1
 Library entry H      D aug-cc-pVTZ          selected for orbital group  1


 PROGRAM * SEWARD (Integral evaluation for generally contracted gaussian basis sets)     Author: Roland Lindh, 1990

 Geometry written to block  1 of record 700


 Point group  Cs  



 ATOMIC COORDINATES

 NR  ATOM    CHARGE       X              Y              Z

   1  H       1.00    0.000000000    1.675350801   -1.937781535
   2  N       7.00    0.000000000   -0.165637261   -1.138640924
   3  O       8.00    0.000000000    0.032054249    1.125832869

 Bond lengths in Bohr (Angstrom)

 1-2  2.006953602  2-3  2.273086776
     ( 1.062034110)     ( 1.202865721)

 Bond angles

  1-2-3  108.47547239

 NUCLEAR CHARGE:                   16
 NUMBER OF PRIMITIVE AOS:         203
 NUMBER OF SYMMETRY AOS:          173
 NUMBER OF CONTRACTIONS:          171   ( 114A'  +  57A"  )
 NUMBER OF CORE ORBITALS:           2   (   2A'  +   0A"  )
 NUMBER OF VALENCE ORBITALS:        9   (   7A'  +   2A"  )


 NUCLEAR REPULSION ENERGY   30.42513139


 Eigenvalues of metric

         1 0.105E-02 0.245E-02 0.335E-02 0.640E-02 0.102E-01 0.137E-01 0.144E-01 0.234E-01
         2 0.375E-01 0.525E-01 0.702E-01 0.941E-01 0.131E+00 0.134E+00 0.141E+00 0.142E+00


 Contracted 2-electron integrals neglected if value below      1.0D-22

       46186101. INTEGRALS WRITTEN OUT IN   11279 BLOCKS ON RECORD 1290 OF FILE 1


 NUMBER OF SORTED TWO-ELECTRON INTEGRALS:   55360566.     BUFFER LENGTH:  32768
 NUMBER OF SEGMENTS:   4  SEGMENT LENGTH:   15997996      RECORD LENGTH: 524288

 Memory used in sort:      16.56 MW

 SORT1 READ    46186101. AND WROTE    46623998. INTEGRALS IN    136 RECORDS. CPU TIME:     0.78 SEC, REAL TIME:     1.06 SEC
 SORT2 READ    46623998. AND WROTE    55360566. INTEGRALS IN      4 RECORDS. CPU TIME:     0.69 SEC, REAL TIME:     0.88 SEC

 FILE SIZES:   FILE 1:   759.9 MBYTE,  FILE 4:   570.5 MBYTE,   TOTAL:   1330.4 MBYTE

 OPERATOR DM      FOR CENTER  0  COORDINATES:    0.000000    0.000000    0.000000


 **********************************************************************************************************************************
 DATASETS  * FILE   NREC   LENGTH (MB)   RECORD NAMES
              1      19      421.52       500      610      700      900      950      970     1000      129      960     1100   
                                          VAR    BASINP    GEOM    SYMINP    ZMAT    AOBASIS   BASIS     P2S    ABASIS      S 
                                         1400     1410     1200     1210     1080     1600     1650     1300     1700   
                                           T        V       H0       H01     AOSYM     SMH    MOLCAS    ERIS     OPER   

 PROGRAMS   *        TOTAL       INT
 CPU TIMES  *         4.23      4.16
 REAL TIME  *         5.59 SEC
 DISK USED  *         1.33 GB      
 **********************************************************************************************************************************


 PROGRAM * RHF-SCF (CLOSED SHELL)       Authors: W. Meyer, H.-J. Werner


 NUMBER OF ELECTRONS:       8+    8-
 CONVERGENCE THRESHOLDS:    1.00E-10 (Density)    1.00E-13 (Energy)
 MAX. NUMBER OF ITERATIONS:      500
 INTERPOLATION TYPE:            DIIS
 INTERPOLATION STEPS:              2 (START)      1 (STEP)
 LEVEL SHIFTS:                  0.00 (CLOSED)  0.00 (OPEN) 



 Orbital guess generated from atomic densities. Full valence occupancy:    9   2

 Molecular orbital dump at record        2100.2

 Initial occupancy:   7   1

 ITERATION    DDIFF          GRAD             ENERGY        2-EL.EN.            DIPOLE MOMENTS         DIIS   ORB.
    1      0.000D+00      0.000D+00      -129.78985521    154.151521    0.00000    0.56284   -0.99877    0    start
    2      0.000D+00      0.877D-02      -129.81689966    155.349221    0.00000    0.59290   -0.19573    1    diag
    3      0.360D-02      0.662D-02      -129.83924451    155.455783    0.00000    0.54134   -0.57600    2    diag
    4      0.140D-02      0.103D-02      -129.84002007    155.183447    0.00000    0.54936   -0.51444    3    diag
    5      0.328D-03      0.336D-03      -129.84014041    155.271955    0.00000    0.55556   -0.51703    4    diag
    6      0.153D-03      0.990D-04      -129.84016012    155.255804    0.00000    0.55616   -0.51297    5    diag
    7      0.608D-04      0.493D-04      -129.84016583    155.258451    0.00000    0.55754   -0.51054    6    diag
    8      0.410D-04      0.167D-04      -129.84016642    155.257643    0.00000    0.55760   -0.50966    7    diag
    9      0.139D-04      0.311D-05      -129.84016644    155.257531    0.00000    0.55755   -0.50949    8    diag
   10      0.279D-05      0.718D-06      -129.84016644    155.257516    0.00000    0.55751   -0.50946    9    orth
   11      0.844D-06      0.144D-06      -129.84016644    155.257511    0.00000    0.55751   -0.50946    9    diag
   12      0.203D-06      0.296D-07      -129.84016644    155.257511    0.00000    0.55750   -0.50945    9    diag
   13      0.501D-07      0.781D-08      -129.84016644    155.257510    0.00000    0.55750   -0.50945    9    diag
   14      0.116D-07      0.140D-08      -129.84016644    155.257510    0.00000    0.55750   -0.50945    9    diag
   15      0.155D-08      0.385D-09      -129.84016644    155.257510    0.00000    0.55750   -0.50945    9    diag
   16      0.341D-09      0.117D-09      -129.84016644    155.257510    0.00000    0.55750   -0.50945    9    diag
   17      0.876D-10      0.343D-10      -129.84016644    155.257510    0.00000    0.55750   -0.50945    0    orth

 Final occupancy:   7   1

 !RHF STATE 1.1 Energy               -129.840166442599
 Nuclear energy                        30.42513139
 One-electron energy                 -237.89405293
 Two-electron energy                   77.62875509
 Virial quotient                       -1.00160420
 !RHF STATE 1.1 Dipole moment           0.00000000     0.55750352    -0.50945316
 Dipole moment /Debye                   0.00000000     1.41693979    -1.29481595

 Orbital energies:

         1.1          2.1          3.1          4.1          5.1          6.1          7.1          8.1          9.1
    -20.651099   -15.711058    -1.532022    -0.989437    -0.745667    -0.665791    -0.426412     0.039702     0.192138

         1.2          2.2          3.2
     -0.596785     0.080815     0.239652

 HOMO      7.1    -0.426412 =     -11.6033eV
 LUMO      8.1     0.039702 =       1.0803eV
 LUMO-HOMO         0.466114 =      12.6836eV


 **********************************************************************************************************************************
 DATASETS  * FILE   NREC   LENGTH (MB)   RECORD NAMES
              1      19      421.52       500      610      700      900      950      970     1000      129      960     1100   
                                          VAR    BASINP    GEOM    SYMINP    ZMAT    AOBASIS   BASIS     P2S    ABASIS      S 
                                         1400     1410     1200     1210     1080     1600     1650     1300     1700   
                                           T        V       H0       H01     AOSYM     SMH    MOLCAS    ERIS     OPER   

              2       4        3.13       700     1000      520     2100   
                                         GEOM     BASIS   MCVARS     RHF  

 PROGRAMS   *        TOTAL        HF       INT
 CPU TIMES  *         8.59      4.36      4.16
 REAL TIME  *        10.89 SEC
 DISK USED  *         1.33 GB      
 **********************************************************************************************************************************


 PROGRAM * CCSD (Closed-shell coupled cluster)     Authors: C. Hampel, H.-J. Werner, 1991, M. Deegan, P.J. Knowles, 1992


 Convergence thresholds:  THRVAR = 1.00D-08  THRDEN = 1.00D-12

 CCSD(T)     terms to be evaluated (factor= 1.000)


 Number of core orbitals:           2 (   2   0 )
 Number of closed-shell orbitals:   6 (   5   1 )
 Number of external orbitals:     163 ( 107  56 )

 Molecular orbitals read from record     2100.2  Type=RHF/CANONICAL (state 1.1)

 Number of N-1 electron functions:               6
 Number of N-2 electron functions:              21
 Number of singly external CSFs:               591
 Number of doubly external CSFs:            250014
 Total number of CSFs:                      250606

 Length of J-op  integral file:               0.00 MB
 Length of K-op  integral file:               1.15 MB
 Length of 3-ext integral record:             0.00 MB

 Memory could be reduced to 19.93 Mwords without degradation in triples

 Integral transformation finished. Total CPU:   0.73 sec, npass=  1  Memory used:   5.10 MW

 Reference energy:                   -129.84016644

 MP2 singlet pair energy:              -0.28658738
 MP2 triplet pair energy:              -0.16698105
 MP2 correlation energy:               -0.45356843
 MP2 total energy:                   -130.29373488

 SCS-MP2 correlation energy:           -0.44780418   (PS=  1.200000  PT=  0.333333)
 SCS-MP2 total energy:               -130.28797062

 ITER.      SQ.NORM     CORR.ENERGY   TOTAL ENERGY   ENERGY CHANGE        DEN1      VAR(S)    VAR(P)  DIIS     TIME  TIME/IT
   1      1.11860486    -0.45586914  -130.29603558    -0.00230071     0.01433660  0.32D-02  0.31D-02  1  1     1.36     0.67
   2      1.12906903    -0.45582307  -130.29598951     0.00004607    -0.01243892  0.12D-03  0.49D-03  2  2     2.01     0.68
   3      1.13559716    -0.45619620  -130.29636264    -0.00037313    -0.00335803  0.44D-04  0.56D-04  3  3     2.64     0.69
   4      1.13843181    -0.45622628  -130.29639272    -0.00003008    -0.00093862  0.45D-05  0.96D-05  4  4     3.29     0.69
   5      1.13949706    -0.45625848  -130.29642492    -0.00003220    -0.00021693  0.14D-05  0.17D-05  5  5     3.93     0.70
   6      1.13989217    -0.45624309  -130.29640953     0.00001539    -0.00006526  0.13D-06  0.42D-06  6  6     4.54     0.70
   7      1.13996757    -0.45624439  -130.29641083    -0.00000130     0.00000803  0.20D-07  0.90D-07  6  1     5.17     0.70
   8      1.14000278    -0.45624398  -130.29641042     0.00000041    -0.00000461  0.48D-08  0.14D-07  6  2     5.79     0.70
   9      1.14000875    -0.45624383  -130.29641027     0.00000015     0.00000076  0.21D-08  0.16D-08  6  3     6.43     0.70
  10      1.14000911    -0.45624416  -130.29641060    -0.00000033    -0.00000017  0.48D-09  0.25D-09  6  4     7.09     0.70
  11      1.14000759    -0.45624430  -130.29641074    -0.00000014     0.00000034  0.12D-09  0.25D-10  6  5     7.71     0.70
  12      1.14000641    -0.45624444  -130.29641089    -0.00000015     0.00000047  0.16D-10  0.75D-11  6  6     8.34     0.70
  13      1.14000576    -0.45624446  -130.29641091    -0.00000002     0.00000013  0.62D-11  0.13D-11  6  1     8.99     0.70
  14      1.14000524    -0.45624449  -130.29641093    -0.00000003     0.00000012  0.57D-12  0.44D-12  6  3     9.62     0.70
  15      1.14000508    -0.45624449  -130.29641093    -0.00000000     0.00000001  0.14D-12  0.30D-13  6  2    10.27     0.70
  16      1.14000503    -0.45624449  -130.29641094    -0.00000000     0.00000001  0.33D-13  0.76D-14  6  4    10.88     0.70
  17      1.14000501    -0.45624449  -130.29641094    -0.00000000     0.00000001  0.39D-14  0.12D-14  6  5    11.48     0.70
  18      1.14000501    -0.45624449  -130.29641094     0.00000000     0.00000000  0.42D-15  0.32D-15  6  6    12.13     0.71
  19      1.14000502    -0.45624449  -130.29641094     0.00000000    -0.00000000  0.58D-16  0.37D-16  6  1    12.76     0.71
  20      1.14000502    -0.45624449  -130.29641094     0.00000000    -0.00000000  0.32D-17  0.84D-17  6  3    13.40     0.71
  21      1.14000502    -0.45624449  -130.29641094     0.00000000    -0.00000000  0.50D-18  0.17D-17  6  4    14.04     0.71
  22      1.14000502    -0.45624449  -130.29641094     0.00000000    -0.00000000  0.17D-19  0.60D-18  6  2    14.70     0.71
  23      1.14000502    -0.45624449  -130.29641094    -0.00000000     0.00000000  0.34D-19  0.13D-18  6  5    15.35     0.71
  24      1.14000502    -0.45624449  -130.29641094    -0.00000000     0.00000000  0.43D-20  0.12D-19  6  1    15.98     0.71
  25      1.14000502    -0.45624449  -130.29641094     0.00000000    -0.00000000  0.17D-20  0.81D-21  6  6    16.61     0.71

 Norm of t1 vector:      0.07701103      S-energy:     0.00000000      T1 diagnostic:  0.01571981
                                                                       D1 diagnostic:  0.04238436

 Doubles amplitudes (print threshold =  0.500E-01):

         I         J         SYM. A    SYM. B    A         B      T(IJ, AB)

         6         6         2         2         1         1     -0.13374516


 Total CPU time for triples:      8.31 sec


 RESULTS
 =======

  Reference energy                   -129.840166442598
  CCSD singlet pair energy             -0.313287846155
  CCSD triplet pair energy             -0.142956647386
  CCSD correlation energy              -0.456244493535

  Triples (T) contribution             -0.021113177261
  Total correlation energy             -0.477357670796

  CCSD total energy                  -130.296410936134
  CCSD[T] energy                     -130.318610107514
  CCSD-T energy                      -130.317111285495
 !CCSD(T) total energy               -130.317524113395

 Timing summary (sec):

 STEP                 CPU(USER)    SYS     CPU(TOT)    WALL
 Transformation          0.74      0.13      0.87      0.86
 CCSD iterations        15.87      1.82     17.69     17.70
 Triples                 8.31      0.25      8.56      8.56

 Program statistics:

 Available memory in ccsd:               994999756
 Min. memory needed in ccsd:                887758
 Max. memory used in ccsd:                 1088212
 Max. memory used in cckext:               1535578 (25 integral passes)



 **********************************************************************************************************************************
 DATASETS  * FILE   NREC   LENGTH (MB)   RECORD NAMES
              1      20      479.47       500      610      700      900      950      970     1000      129      960     1100   
                                          VAR    BASINP    GEOM    SYMINP    ZMAT    AOBASIS   BASIS     P2S    ABASIS      S 
                                         1400     1410     1200     1210     1080     1600     1650     1300     1700     1380   
                                           T        V       H0       H01     AOSYM     SMH    MOLCAS    ERIS     OPER     JKOP   

              2       4        3.13       700     1000      520     2100   
                                         GEOM     BASIS   MCVARS     RHF  

 PROGRAMS   *        TOTAL   CCSD(T)        HF       INT
 CPU TIMES  *        33.55     24.96      4.36      4.16
 REAL TIME  *        39.03 SEC
 DISK USED  *         1.33 GB      
 **********************************************************************************************************************************

 CCSD(T)/USERDEF energy=   -130.317524113395

        CCSD(T)         HF-SCF  
   -130.31752411   -129.84016644
 **********************************************************************************************************************************
 Molpro calculation terminated
 Variable memory released
