
 Primary working directories    : /tmp/r2666/282359.maple
 Secondary working directories  : /tmp/r2666/282359.maple
 Wavefunction directory         : /ddn/home4/r2666/wfu/
 Main file repository           : /tmp/r2666/282359.maple/

 SHA1      : d5ffa45e93fdbca01ffc919aa182cfdae0147319
 NAME      : 2015.1.35
 ARCHNAME  : linux/x86_64
 FC        : /opt/intel/composer_xe_2015.1.133/bin/intel64/ifort
 BLASLIB   : -Wl,-_start-group /opt/intel/mkl/lib/intel64/libmkl_intel_ilp64.a /opt/intel/mkl/lib/intel64/libmkl_intel_thread.a /opt/intel/mkl/lib/intel64/libmkl_core.a -Wl,-_end-group
 id        : olemiss

 Nodes     nprocs
 cn093        1

 Using customized tuning parameters: mindgm=1; mindgv=20; mindgc=4; mindgr=1; noblas=0; minvec=7
 default implementation of scratch files=df  

 ***,hno CCSD(T)/TZ-F12 QFF
 memory, 995, m;
 gthresh,energy=1.d-12,zero=1.d-22,oneint=1.d-22,twoint=1.d-22;
 gthresh,optgrad=1.d-8,optstep=1.d-8;
 nocompress;
 geomtyp=xyz
 bohr
 geometry={
 3
        127       127
 H        0.0000000000        1.6807113144       -1.9435570502
 N        0.0000000000       -0.1688547656       -1.1404485415
 O        0.0000000000        0.0299112412        1.1334160007
 }
 
 basis={
 default=aug-cc-pvtz
 s,C,8236.0,1235.0,280.8, 79.27,25.59, 8.997,3.319
 s,C,0.9059,0.3643,0.1285000
 p,C,56.0,18.71,4.133,0.2827,0.3827,0.1209
 d,C,30.0,10.0,3.3,1.097,0.318
 f,C,7.0,2.3,0.7610
 s,N,11420.0,1712.0,389.3,110.0,35.57,12.54,4.644
 s,N,1.293,0.5118,0.1787
 p,N,79.89,26.63,5.948,1.742,0.555,0.1725
 d,N,45.0,15.0,5.0,1.654,0.469
 f,N,9.9,3.3,1.093
 s,O,15330.0,2299.0,522.4,147.3,47.55,16.76,6.207
 s,O,1.752,0.6882,0.2384
 p,O,103.5,34.46,7.749,2.28,0.7156,0.214
 d,O,63.0,21.0,7.0,2.314,0.645
 f,O,12.9,4.3,1.428
 s,mg,164900.0,24710.0,5628.0,1596.0,521.0;
 s,mg,188.0,73.01,29.90,12.54,4.306,1.826;
 s,mg,0.7417,0.0761,0.145,0.033,0.0129;
 p,mg,950.70,316.90,74.86,23.72,8.669,3.363;
 p,mg,1.310,0.4911,0.2364,0.08733,0.03237,0.00745;
 d,mg,1.601,0.686,0.126,0.294,0.0468;
 f,mg,1.372,0.588,0.094,0.252;
 }
   {hf,maxit=500;accu,20;}
 {ccsd(t),nocheck,maxit=250;orbital,IGNORE_ERROR;}

 Variables initialized (889), CPU time= 0.01 sec
 Commands  initialized (702), CPU time= 0.01 sec, 572 directives.
 Default parameters read. Elapsed time= 0.04 sec

 Checking input...
 Passed
1


                                         ***  PROGRAM SYSTEM MOLPRO  ***
                                       Copyright, TTI GmbH Stuttgart, 2015
                                    Version 2015.1 linked Jul  9 2018 13:16:40


 **********************************************************************************************************************************
 LABEL *   hno CCSD(T)/TZ-F12 QFF                                                        
  64 bit serial version                                                                  DATE: 04-Mar-20          TIME: 13:48:27  
 **********************************************************************************************************************************

 SHA1:             d5ffa45e93fdbca01ffc919aa182cfdae0147319
 **********************************************************************************************************************************

 THRESHOLDS:

 ZERO    =  1.00D-22  ONEINT  =  1.00D-22  TWOINT  =  1.00D-22  PREFAC  =  1.00D-14  LOCALI  =  1.00D-09  EORDER  =  1.00D-04
 ENERGY  =  1.00D-12  ETEST   =  0.00D+00  EDENS   =  0.00D+00  THRDEDEF=  1.00D-06  GRADIENT=  1.00D-02  STEP    =  1.00D-03
 ORBITAL =  1.00D-05  CIVEC   =  1.00D-05  COEFF   =  1.00D-04  PRINTCI =  5.00D-02  PUNCHCI =  9.90D+01  OPTGRAD =  3.00D-04
 OPTENERG=  1.00D-06  OPTSTEP =  3.00D-04  THRGRAD =  1.00D-10  COMPRESS=  1.00D-11  VARMIN  =  1.00D-07  VARMAX  =  1.00D-03
 THRDOUB =  0.00D+00  THRDIV  =  1.00D-05  THRRED  =  1.00D-07  THRPSP  =  1.00D+00  THRDC   =  1.00D-10  THRCS   =  1.00D-10
 THRNRM  =  1.00D-08  THREQ   =  0.00D+00  THRDE   =  1.00D+00  THRREF  =  1.00D-05  SPARFAC =  1.00D+00  THRDLP  =  1.00D-07
 THRDIA  =  1.00D-10  THRDLS  =  1.00D-07  THRGPS  =  0.00D+00  THRKEX  =  0.00D+00  THRDIS  =  2.00D-01  THRVAR  =  1.00D-10
 THRLOC  =  1.00D-06  THRGAP  =  1.00D-06  THRLOCT = -1.00D+00  THRGAPT = -1.00D+00  THRORB  =  1.00D-06  THRMLTP =  0.00D+00
 THRCPQCI=  1.00D-10  KEXTA   =  0.00D+00  THRCOARS=  0.00D+00  SYMTOL  =  1.00D-06  GRADTOL =  1.00D-06  THROVL  =  1.00D-08
 THRORTH =  1.00D-08  GRID    =  1.00D-06  GRIDMAX =  1.00D-03  DTMAX   =  0.00D+00  THROCCDE=  1.00D-01  THROCCDE=  1.00D-01



 THRESHOLDS:

 ZERO    =  1.00D-22  ONEINT  =  1.00D-22  TWOINT  =  1.00D-22  PREFAC  =  1.00D-14  LOCALI  =  1.00D-09  EORDER  =  1.00D-04
 ENERGY  =  1.00D-12  ETEST   =  0.00D+00  EDENS   =  0.00D+00  THRDEDEF=  1.00D-06  GRADIENT=  1.00D-02  STEP    =  1.00D-03
 ORBITAL =  1.00D-05  CIVEC   =  1.00D-05  COEFF   =  1.00D-04  PRINTCI =  5.00D-02  PUNCHCI =  9.90D+01  OPTGRAD =  1.00D-08
 OPTENERG=  1.00D-06  OPTSTEP =  1.00D-08  THRGRAD =  1.00D-10  COMPRESS=  1.00D-11  VARMIN  =  1.00D-07  VARMAX  =  1.00D-03
 THRDOUB =  0.00D+00  THRDIV  =  1.00D-05  THRRED  =  1.00D-07  THRPSP  =  1.00D+00  THRDC   =  1.00D-10  THRCS   =  1.00D-10
 THRNRM  =  1.00D-08  THREQ   =  0.00D+00  THRDE   =  1.00D+00  THRREF  =  1.00D-05  SPARFAC =  1.00D+00  THRDLP  =  1.00D-07
 THRDIA  =  1.00D-10  THRDLS  =  1.00D-07  THRGPS  =  0.00D+00  THRKEX  =  0.00D+00  THRDIS  =  2.00D-01  THRVAR  =  1.00D-10
 THRLOC  =  1.00D-06  THRGAP  =  1.00D-06  THRLOCT = -1.00D+00  THRGAPT = -1.00D+00  THRORB  =  1.00D-06  THRMLTP =  0.00D+00
 THRCPQCI=  1.00D-10  KEXTA   =  0.00D+00  THRCOARS=  0.00D+00  SYMTOL  =  1.00D-06  GRADTOL =  1.00D-06  THROVL  =  1.00D-08
 THRORTH =  1.00D-08  GRID    =  1.00D-06  GRIDMAX =  1.00D-03  DTMAX   =  0.00D+00  THROCCDE=  1.00D-01  THROCCDE=  1.00D-01



 Input parameters for SORTINT:

 COMPRESS =    0.000000
 C_FINAL  =    1.000000
 DEBUG    =   -1.000000
 C_SORT1  =    0.000000
 C_SEWARD =    0.000000
 THRESH   =    0.000000
 IO       =  molpro                                                          
 SPRI     =    0.000000
 SETTING GEOMTYP        =    XYZ
 ZUNIT=BOHR
 

 Variable memory set to  995000000 words,  buffer space   230000 words

 SETTING BASIS          =    USERDEF


 Recomputing integrals since basis changed


 Using spherical harmonics

 Library entry H      S aug-cc-pVTZ          selected for orbital group  1
 Library entry H      P aug-cc-pVTZ          selected for orbital group  1
 Library entry H      D aug-cc-pVTZ          selected for orbital group  1


 PROGRAM * SEWARD (Integral evaluation for generally contracted gaussian basis sets)     Author: Roland Lindh, 1990

 Geometry written to block  1 of record 700


 Point group  Cs  



 ATOMIC COORDINATES

 NR  ATOM    CHARGE       X              Y              Z

   1  H       1.00    0.000000000    1.680711314   -1.943557050
   2  N       7.00    0.000000000   -0.168854766   -1.140448542
   3  O       8.00    0.000000000    0.029911241    1.133416001

 Bond lengths in Bohr (Angstrom)

 1-2  2.016402232  2-3  2.282535406
     ( 1.067034109)     ( 1.207865720)

 Bond angles

  1-2-3  108.47547239

 NUCLEAR CHARGE:                   16
 NUMBER OF PRIMITIVE AOS:         203
 NUMBER OF SYMMETRY AOS:          173
 NUMBER OF CONTRACTIONS:          171   ( 114A'  +  57A"  )
 NUMBER OF CORE ORBITALS:           2   (   2A'  +   0A"  )
 NUMBER OF VALENCE ORBITALS:        9   (   7A'  +   2A"  )


 NUCLEAR REPULSION ENERGY   30.29671037


 Eigenvalues of metric

         1 0.107E-02 0.249E-02 0.340E-02 0.646E-02 0.104E-01 0.138E-01 0.145E-01 0.237E-01
         2 0.381E-01 0.533E-01 0.708E-01 0.942E-01 0.131E+00 0.135E+00 0.142E+00 0.142E+00


 Contracted 2-electron integrals neglected if value below      1.0D-22

       46151624. INTEGRALS WRITTEN OUT IN   11271 BLOCKS ON RECORD 1290 OF FILE 1


 NUMBER OF SORTED TWO-ELECTRON INTEGRALS:   55360566.     BUFFER LENGTH:  32768
 NUMBER OF SEGMENTS:   4  SEGMENT LENGTH:   15997996      RECORD LENGTH: 524288

 Memory used in sort:      16.56 MW

 SORT1 READ    46151624. AND WROTE    46589116. INTEGRALS IN    136 RECORDS. CPU TIME:     0.67 SEC, REAL TIME:     1.04 SEC
 SORT2 READ    46589116. AND WROTE    55360566. INTEGRALS IN      4 RECORDS. CPU TIME:     0.63 SEC, REAL TIME:     0.86 SEC

 FILE SIZES:   FILE 1:   759.4 MBYTE,  FILE 4:   570.5 MBYTE,   TOTAL:   1329.8 MBYTE

 OPERATOR DM      FOR CENTER  0  COORDINATES:    0.000000    0.000000    0.000000


 **********************************************************************************************************************************
 DATASETS  * FILE   NREC   LENGTH (MB)   RECORD NAMES
              1      19      421.29       500      610      700      900      950      970     1000      129      960     1100   
                                          VAR    BASINP    GEOM    SYMINP    ZMAT    AOBASIS   BASIS     P2S    ABASIS      S 
                                         1400     1410     1200     1210     1080     1600     1650     1300     1700   
                                           T        V       H0       H01     AOSYM     SMH    MOLCAS    ERIS     OPER   

 PROGRAMS   *        TOTAL       INT
 CPU TIMES  *         4.02      3.92
 REAL TIME  *         5.52 SEC
 DISK USED  *         1.33 GB      
 **********************************************************************************************************************************


 PROGRAM * RHF-SCF (CLOSED SHELL)       Authors: W. Meyer, H.-J. Werner


 NUMBER OF ELECTRONS:       8+    8-
 CONVERGENCE THRESHOLDS:    1.00E-10 (Density)    1.00E-13 (Energy)
 MAX. NUMBER OF ITERATIONS:      500
 INTERPOLATION TYPE:            DIIS
 INTERPOLATION STEPS:              2 (START)      1 (STEP)
 LEVEL SHIFTS:                  0.00 (CLOSED)  0.00 (OPEN) 



 Orbital guess generated from atomic densities. Full valence occupancy:    9   2

 Molecular orbital dump at record        2100.2

 Initial occupancy:   7   1

 ITERATION    DDIFF          GRAD             ENERGY        2-EL.EN.            DIPOLE MOMENTS         DIIS   ORB.
    1      0.000D+00      0.000D+00      -129.78797720    153.918193    0.00000    0.56182   -1.01541    0    start
    2      0.000D+00      0.884D-02      -129.81485653    155.112075    0.00000    0.59565   -0.19116    1    diag
    3      0.362D-02      0.676D-02      -129.83825759    155.228003    0.00000    0.54203   -0.58284    2    diag
    4      0.143D-02      0.104D-02      -129.83904482    154.951279    0.00000    0.54989   -0.52039    3    diag
    5      0.329D-03      0.339D-03      -129.83916801    155.040640    0.00000    0.55616   -0.52292    4    diag
    6      0.153D-03      0.100D-03      -129.83918829    155.024347    0.00000    0.55674   -0.51875    5    diag
    7      0.612D-04      0.501D-04      -129.83919423    155.026970    0.00000    0.55812   -0.51625    6    diag
    8      0.414D-04      0.172D-04      -129.83919487    155.026135    0.00000    0.55818   -0.51534    7    diag
    9      0.144D-04      0.324D-05      -129.83919490    155.026016    0.00000    0.55813   -0.51515    8    diag
   10      0.293D-05      0.740D-06      -129.83919490    155.026001    0.00000    0.55809   -0.51513    9    orth
   11      0.861D-06      0.148D-06      -129.83919490    155.025996    0.00000    0.55808   -0.51512    9    diag
   12      0.206D-06      0.307D-07      -129.83919490    155.025995    0.00000    0.55808   -0.51512    9    diag
   13      0.512D-07      0.818D-08      -129.83919490    155.025995    0.00000    0.55808   -0.51512    9    diag
   14      0.121D-07      0.145D-08      -129.83919490    155.025995    0.00000    0.55808   -0.51512    9    diag
   15      0.156D-08      0.393D-09      -129.83919490    155.025995    0.00000    0.55808   -0.51512    9    diag
   16      0.344D-09      0.117D-09      -129.83919490    155.025995    0.00000    0.55808   -0.51512    9    diag
   17      0.832D-10      0.336D-10      -129.83919490    155.025995    0.00000    0.55808   -0.51512    9    diag
   18      0.273D-10      0.113D-10      -129.83919490    155.025995    0.00000    0.55808   -0.51512    0    orth

 Final occupancy:   7   1

 !RHF STATE 1.1 Energy               -129.839194900799
 Nuclear energy                        30.29671037
 One-electron energy                 -237.64890265
 Two-electron energy                   77.51299738
 Virial quotient                       -1.00181211
 !RHF STATE 1.1 Dipole moment           0.00000000     0.55807759    -0.51511988
 Dipole moment /Debye                   0.00000000     1.41839884    -1.30921839

 Orbital energies:

         1.1          2.1          3.1          4.1          5.1          6.1          7.1          8.1          9.1
    -20.651661   -15.712564    -1.527844    -0.989381    -0.743560    -0.664338    -0.427640     0.039590     0.191395

         1.2          2.2          3.2
     -0.594465     0.079070     0.239431

 HOMO      7.1    -0.427640 =     -11.6367eV
 LUMO      8.1     0.039590 =       1.0773eV
 LUMO-HOMO         0.467230 =      12.7140eV


 **********************************************************************************************************************************
 DATASETS  * FILE   NREC   LENGTH (MB)   RECORD NAMES
              1      19      421.29       500      610      700      900      950      970     1000      129      960     1100   
                                          VAR    BASINP    GEOM    SYMINP    ZMAT    AOBASIS   BASIS     P2S    ABASIS      S 
                                         1400     1410     1200     1210     1080     1600     1650     1300     1700   
                                           T        V       H0       H01     AOSYM     SMH    MOLCAS    ERIS     OPER   

              2       4        3.13       700     1000      520     2100   
                                         GEOM     BASIS   MCVARS     RHF  

 PROGRAMS   *        TOTAL        HF       INT
 CPU TIMES  *         8.48      4.46      3.92
 REAL TIME  *        11.12 SEC
 DISK USED  *         1.33 GB      
 **********************************************************************************************************************************


 PROGRAM * CCSD (Closed-shell coupled cluster)     Authors: C. Hampel, H.-J. Werner, 1991, M. Deegan, P.J. Knowles, 1992


 Convergence thresholds:  THRVAR = 1.00D-08  THRDEN = 1.00D-12

 CCSD(T)     terms to be evaluated (factor= 1.000)


 Number of core orbitals:           2 (   2   0 )
 Number of closed-shell orbitals:   6 (   5   1 )
 Number of external orbitals:     163 ( 107  56 )

 Molecular orbitals read from record     2100.2  Type=RHF/CANONICAL (state 1.1)

 Number of N-1 electron functions:               6
 Number of N-2 electron functions:              21
 Number of singly external CSFs:               591
 Number of doubly external CSFs:            250014
 Total number of CSFs:                      250606

 Length of J-op  integral file:               0.00 MB
 Length of K-op  integral file:               1.15 MB
 Length of 3-ext integral record:             0.00 MB

 Memory could be reduced to 19.93 Mwords without degradation in triples

 Integral transformation finished. Total CPU:   0.68 sec, npass=  1  Memory used:   5.10 MW

 Reference energy:                   -129.83919490

 MP2 singlet pair energy:              -0.28720628
 MP2 triplet pair energy:              -0.16738266
 MP2 correlation energy:               -0.45458894
 MP2 total energy:                   -130.29378384

 SCS-MP2 correlation energy:           -0.44879675   (PS=  1.200000  PT=  0.333333)
 SCS-MP2 total energy:               -130.28799165

 ITER.      SQ.NORM     CORR.ENERGY   TOTAL ENERGY   ENERGY CHANGE        DEN1      VAR(S)    VAR(P)  DIIS     TIME  TIME/IT
   1      1.11931218    -0.45669175  -130.29588665    -0.00210281     0.01479642  0.33D-02  0.31D-02  1  1     1.26     0.67
   2      1.12993465    -0.45660098  -130.29579588     0.00009077    -0.01259391  0.12D-03  0.50D-03  2  2     1.86     0.68
   3      1.13659461    -0.45698455  -130.29617945    -0.00038357    -0.00340156  0.46D-04  0.58D-04  3  3     2.48     0.69
   4      1.13949985    -0.45701455  -130.29620946    -0.00003000    -0.00095855  0.47D-05  0.99D-05  4  4     3.09     0.69
   5      1.14060592    -0.45704820  -130.29624310    -0.00003364    -0.00022491  0.15D-05  0.17D-05  5  5     3.67     0.69
   6      1.14101296    -0.45703217  -130.29622707     0.00001602    -0.00006727  0.14D-06  0.42D-06  6  6     4.30     0.70
   7      1.14108930    -0.45703345  -130.29622835    -0.00000127     0.00000831  0.21D-07  0.92D-07  6  1     4.90     0.70
   8      1.14112526    -0.45703296  -130.29622786     0.00000049    -0.00000480  0.48D-08  0.15D-07  6  2     5.53     0.70
   9      1.14113151    -0.45703278  -130.29622768     0.00000017     0.00000082  0.22D-08  0.17D-08  6  3     6.13     0.70
  10      1.14113195    -0.45703312  -130.29622802    -0.00000034    -0.00000019  0.49D-09  0.26D-09  6  4     6.74     0.70
  11      1.14113041    -0.45703326  -130.29622816    -0.00000014     0.00000035  0.12D-09  0.27D-10  6  5     7.34     0.70
  12      1.14112920    -0.45703342  -130.29622832    -0.00000015     0.00000049  0.17D-10  0.79D-11  6  6     7.93     0.70
  13      1.14112852    -0.45703344  -130.29622834    -0.00000002     0.00000013  0.65D-11  0.14D-11  6  1     8.57     0.70
  14      1.14112798    -0.45703346  -130.29622836    -0.00000003     0.00000012  0.58D-12  0.46D-12  6  3     9.19     0.70
  15      1.14112782    -0.45703346  -130.29622836     0.00000000     0.00000001  0.15D-12  0.32D-13  6  2     9.78     0.70
  16      1.14112776    -0.45703347  -130.29622837    -0.00000000     0.00000001  0.35D-13  0.80D-14  6  4    10.37     0.70
  17      1.14112774    -0.45703347  -130.29622837    -0.00000000     0.00000001  0.43D-14  0.13D-14  6  5    10.98     0.70
  18      1.14112774    -0.45703347  -130.29622837     0.00000000     0.00000000  0.46D-15  0.35D-15  6  6    11.69     0.70
  19      1.14112775    -0.45703347  -130.29622837     0.00000000    -0.00000000  0.64D-16  0.42D-16  6  1    12.32     0.70
  20      1.14112775    -0.45703347  -130.29622837     0.00000000    -0.00000000  0.36D-17  0.95D-17  6  3    12.93     0.70
  21      1.14112775    -0.45703347  -130.29622837     0.00000000    -0.00000000  0.53D-18  0.20D-17  6  4    13.56     0.70
  22      1.14112775    -0.45703347  -130.29622837     0.00000000    -0.00000000  0.18D-19  0.69D-18  6  2    14.17     0.70
  23      1.14112775    -0.45703347  -130.29622837    -0.00000000     0.00000000  0.40D-19  0.15D-18  6  5    14.77     0.70
  24      1.14112775    -0.45703347  -130.29622837    -0.00000000     0.00000000  0.45D-20  0.14D-19  6  1    15.35     0.70
  25      1.14112775    -0.45703347  -130.29622837     0.00000000    -0.00000000  0.18D-20  0.93D-21  6  6    15.95     0.70

 Norm of t1 vector:      0.07804576      S-energy:     0.00000000      T1 diagnostic:  0.01593102
                                                                       D1 diagnostic:  0.04304057

 Doubles amplitudes (print threshold =  0.500E-01):

         I         J         SYM. A    SYM. B    A         B      T(IJ, AB)

         6         6         2         2         1         1     -0.13521126


 Total CPU time for triples:      6.77 sec


 RESULTS
 =======

  Reference energy                   -129.839194900799
  CCSD singlet pair energy             -0.313976662160
  CCSD triplet pair energy             -0.143056804425
  CCSD correlation energy              -0.457033466583

  Triples (T) contribution             -0.021300111614
  Total correlation energy             -0.478333578197

  CCSD total energy                  -130.296228367382
  CCSD[T] energy                     -130.318641886715
  CCSD-T energy                      -130.317107897839
 !CCSD(T) total energy               -130.317528478996

 Timing summary (sec):

 STEP                 CPU(USER)    SYS     CPU(TOT)    WALL
 Transformation          0.69      0.16      0.85      0.85
 CCSD iterations        15.26      2.17     17.43     17.45
 Triples                 6.77      0.24      7.01      7.00

 Program statistics:

 Available memory in ccsd:               994999756
 Min. memory needed in ccsd:                887758
 Max. memory used in ccsd:                 1088212
 Max. memory used in cckext:               1535578 (25 integral passes)



 **********************************************************************************************************************************
 DATASETS  * FILE   NREC   LENGTH (MB)   RECORD NAMES
              1      20      479.24       500      610      700      900      950      970     1000      129      960     1100   
                                          VAR    BASINP    GEOM    SYMINP    ZMAT    AOBASIS   BASIS     P2S    ABASIS      S 
                                         1400     1410     1200     1210     1080     1600     1650     1300     1700     1380   
                                           T        V       H0       H01     AOSYM     SMH    MOLCAS    ERIS     OPER     JKOP   

              2       4        3.13       700     1000      520     2100   
                                         GEOM     BASIS   MCVARS     RHF  

 PROGRAMS   *        TOTAL   CCSD(T)        HF       INT
 CPU TIMES  *        31.23     22.75      4.46      3.92
 REAL TIME  *        36.54 SEC
 DISK USED  *         1.33 GB      
 **********************************************************************************************************************************

 CCSD(T)/USERDEF energy=   -130.317528478996

        CCSD(T)         HF-SCF  
   -130.31752848   -129.83919490
 **********************************************************************************************************************************
 Molpro calculation terminated
 Variable memory released
