
 Primary working directories    : /tmp/r2666/282283.maple
 Secondary working directories  : /tmp/r2666/282283.maple
 Wavefunction directory         : /ddn/home4/r2666/wfu/
 Main file repository           : /tmp/r2666/282283.maple/

 SHA1      : d5ffa45e93fdbca01ffc919aa182cfdae0147319
 NAME      : 2015.1.35
 ARCHNAME  : linux/x86_64
 FC        : /opt/intel/composer_xe_2015.1.133/bin/intel64/ifort
 BLASLIB   : -Wl,-_start-group /opt/intel/mkl/lib/intel64/libmkl_intel_ilp64.a /opt/intel/mkl/lib/intel64/libmkl_intel_thread.a /opt/intel/mkl/lib/intel64/libmkl_core.a -Wl,-_end-group
 id        : olemiss

 Nodes     nprocs
 cn075        1

 Using customized tuning parameters: mindgm=1; mindgv=20; mindgc=4; mindgr=1; noblas=0; minvec=7
 default implementation of scratch files=df  

 ***,hno CCSD(T)/TZ-F12 QFF
 memory, 995, m;
 gthresh,energy=1.d-12,zero=1.d-22,oneint=1.d-22,twoint=1.d-22;
 gthresh,optgrad=1.d-8,optstep=1.d-8;
 nocompress;
 geomtyp=xyz
 bohr
 geometry={
 3
         51        51
 H        0.0000000000        1.6650243097       -1.9213150022
 N        0.0000000000       -0.1638476599       -1.1418309818
 O        0.0000000000        0.0405911403        1.1125563930
 }
 
 basis={
 default=aug-cc-pvtz
 s,C,8236.0,1235.0,280.8, 79.27,25.59, 8.997,3.319
 s,C,0.9059,0.3643,0.1285000
 p,C,56.0,18.71,4.133,0.2827,0.3827,0.1209
 d,C,30.0,10.0,3.3,1.097,0.318
 f,C,7.0,2.3,0.7610
 s,N,11420.0,1712.0,389.3,110.0,35.57,12.54,4.644
 s,N,1.293,0.5118,0.1787
 p,N,79.89,26.63,5.948,1.742,0.555,0.1725
 d,N,45.0,15.0,5.0,1.654,0.469
 f,N,9.9,3.3,1.093
 s,O,15330.0,2299.0,522.4,147.3,47.55,16.76,6.207
 s,O,1.752,0.6882,0.2384
 p,O,103.5,34.46,7.749,2.28,0.7156,0.214
 d,O,63.0,21.0,7.0,2.314,0.645
 f,O,12.9,4.3,1.428
 s,mg,164900.0,24710.0,5628.0,1596.0,521.0;
 s,mg,188.0,73.01,29.90,12.54,4.306,1.826;
 s,mg,0.7417,0.0761,0.145,0.033,0.0129;
 p,mg,950.70,316.90,74.86,23.72,8.669,3.363;
 p,mg,1.310,0.4911,0.2364,0.08733,0.03237,0.00745;
 d,mg,1.601,0.686,0.126,0.294,0.0468;
 f,mg,1.372,0.588,0.094,0.252;
 }
   {hf,maxit=500;accu,20;}
 {ccsd(t),nocheck,maxit=250;orbital,IGNORE_ERROR;}

 Variables initialized (889), CPU time= 0.01 sec
 Commands  initialized (702), CPU time= 0.01 sec, 572 directives.
 Default parameters read. Elapsed time= 0.05 sec

 Checking input...
 Passed
1


                                         ***  PROGRAM SYSTEM MOLPRO  ***
                                       Copyright, TTI GmbH Stuttgart, 2015
                                    Version 2015.1 linked Jul  9 2018 13:16:40


 **********************************************************************************************************************************
 LABEL *   hno CCSD(T)/TZ-F12 QFF                                                        
  64 bit serial version                                                                  DATE: 04-Mar-20          TIME: 13:47:33  
 **********************************************************************************************************************************

 SHA1:             d5ffa45e93fdbca01ffc919aa182cfdae0147319
 **********************************************************************************************************************************

 THRESHOLDS:

 ZERO    =  1.00D-22  ONEINT  =  1.00D-22  TWOINT  =  1.00D-22  PREFAC  =  1.00D-14  LOCALI  =  1.00D-09  EORDER  =  1.00D-04
 ENERGY  =  1.00D-12  ETEST   =  0.00D+00  EDENS   =  0.00D+00  THRDEDEF=  1.00D-06  GRADIENT=  1.00D-02  STEP    =  1.00D-03
 ORBITAL =  1.00D-05  CIVEC   =  1.00D-05  COEFF   =  1.00D-04  PRINTCI =  5.00D-02  PUNCHCI =  9.90D+01  OPTGRAD =  3.00D-04
 OPTENERG=  1.00D-06  OPTSTEP =  3.00D-04  THRGRAD =  1.00D-10  COMPRESS=  1.00D-11  VARMIN  =  1.00D-07  VARMAX  =  1.00D-03
 THRDOUB =  0.00D+00  THRDIV  =  1.00D-05  THRRED  =  1.00D-07  THRPSP  =  1.00D+00  THRDC   =  1.00D-10  THRCS   =  1.00D-10
 THRNRM  =  1.00D-08  THREQ   =  0.00D+00  THRDE   =  1.00D+00  THRREF  =  1.00D-05  SPARFAC =  1.00D+00  THRDLP  =  1.00D-07
 THRDIA  =  1.00D-10  THRDLS  =  1.00D-07  THRGPS  =  0.00D+00  THRKEX  =  0.00D+00  THRDIS  =  2.00D-01  THRVAR  =  1.00D-10
 THRLOC  =  1.00D-06  THRGAP  =  1.00D-06  THRLOCT = -1.00D+00  THRGAPT = -1.00D+00  THRORB  =  1.00D-06  THRMLTP =  0.00D+00
 THRCPQCI=  1.00D-10  KEXTA   =  0.00D+00  THRCOARS=  0.00D+00  SYMTOL  =  1.00D-06  GRADTOL =  1.00D-06  THROVL  =  1.00D-08
 THRORTH =  1.00D-08  GRID    =  1.00D-06  GRIDMAX =  1.00D-03  DTMAX   =  0.00D+00  THROCCDE=  1.00D-01  THROCCDE=  1.00D-01



 THRESHOLDS:

 ZERO    =  1.00D-22  ONEINT  =  1.00D-22  TWOINT  =  1.00D-22  PREFAC  =  1.00D-14  LOCALI  =  1.00D-09  EORDER  =  1.00D-04
 ENERGY  =  1.00D-12  ETEST   =  0.00D+00  EDENS   =  0.00D+00  THRDEDEF=  1.00D-06  GRADIENT=  1.00D-02  STEP    =  1.00D-03
 ORBITAL =  1.00D-05  CIVEC   =  1.00D-05  COEFF   =  1.00D-04  PRINTCI =  5.00D-02  PUNCHCI =  9.90D+01  OPTGRAD =  1.00D-08
 OPTENERG=  1.00D-06  OPTSTEP =  1.00D-08  THRGRAD =  1.00D-10  COMPRESS=  1.00D-11  VARMIN  =  1.00D-07  VARMAX  =  1.00D-03
 THRDOUB =  0.00D+00  THRDIV  =  1.00D-05  THRRED  =  1.00D-07  THRPSP  =  1.00D+00  THRDC   =  1.00D-10  THRCS   =  1.00D-10
 THRNRM  =  1.00D-08  THREQ   =  0.00D+00  THRDE   =  1.00D+00  THRREF  =  1.00D-05  SPARFAC =  1.00D+00  THRDLP  =  1.00D-07
 THRDIA  =  1.00D-10  THRDLS  =  1.00D-07  THRGPS  =  0.00D+00  THRKEX  =  0.00D+00  THRDIS  =  2.00D-01  THRVAR  =  1.00D-10
 THRLOC  =  1.00D-06  THRGAP  =  1.00D-06  THRLOCT = -1.00D+00  THRGAPT = -1.00D+00  THRORB  =  1.00D-06  THRMLTP =  0.00D+00
 THRCPQCI=  1.00D-10  KEXTA   =  0.00D+00  THRCOARS=  0.00D+00  SYMTOL  =  1.00D-06  GRADTOL =  1.00D-06  THROVL  =  1.00D-08
 THRORTH =  1.00D-08  GRID    =  1.00D-06  GRIDMAX =  1.00D-03  DTMAX   =  0.00D+00  THROCCDE=  1.00D-01  THROCCDE=  1.00D-01



 Input parameters for SORTINT:

 COMPRESS =    0.000000
 C_FINAL  =    1.000000
 DEBUG    =   -1.000000
 C_SORT1  =    0.000000
 C_SEWARD =    0.000000
 THRESH   =    0.000000
 IO       =  molpro                                                          
 SPRI     =    0.000000
 SETTING GEOMTYP        =    XYZ
 ZUNIT=BOHR
 

 Variable memory set to  995000000 words,  buffer space   230000 words

 SETTING BASIS          =    USERDEF


 Recomputing integrals since basis changed


 Using spherical harmonics

 Library entry H      S aug-cc-pVTZ          selected for orbital group  1
 Library entry H      P aug-cc-pVTZ          selected for orbital group  1
 Library entry H      D aug-cc-pVTZ          selected for orbital group  1


 PROGRAM * SEWARD (Integral evaluation for generally contracted gaussian basis sets)     Author: Roland Lindh, 1990

 Geometry written to block  1 of record 700


 Point group  Cs  



 ATOMIC COORDINATES

 NR  ATOM    CHARGE       X              Y              Z

   1  H       1.00    0.000000000    1.665024310   -1.921315002
   2  N       7.00    0.000000000   -0.163847660   -1.141830982
   3  O       8.00    0.000000000    0.040591140    1.112556393

 Bond lengths in Bohr (Angstrom)

 1-2  1.988056342  2-3  2.263638147
     ( 1.052034110)     ( 1.197865721)

 Bond angles

  1-2-3  107.90251459

 NUCLEAR CHARGE:                   16
 NUMBER OF PRIMITIVE AOS:         203
 NUMBER OF SYMMETRY AOS:          173
 NUMBER OF CONTRACTIONS:          171   ( 114A'  +  57A"  )
 NUMBER OF CORE ORBITALS:           2   (   2A'  +   0A"  )
 NUMBER OF VALENCE ORBITALS:        9   (   7A'  +   2A"  )


 NUCLEAR REPULSION ENERGY   30.58460601


 Eigenvalues of metric

         1 0.103E-02 0.241E-02 0.329E-02 0.631E-02 0.985E-02 0.136E-01 0.144E-01 0.228E-01
         2 0.363E-01 0.516E-01 0.694E-01 0.939E-01 0.131E+00 0.134E+00 0.140E+00 0.142E+00


 Contracted 2-electron integrals neglected if value below      1.0D-22

       46229105. INTEGRALS WRITTEN OUT IN   11290 BLOCKS ON RECORD 1290 OF FILE 1


 NUMBER OF SORTED TWO-ELECTRON INTEGRALS:   55360566.     BUFFER LENGTH:  32768
 NUMBER OF SEGMENTS:   4  SEGMENT LENGTH:   15997996      RECORD LENGTH: 524288

 Memory used in sort:      16.56 MW

 SORT1 READ    46229105. AND WROTE    46667380. INTEGRALS IN    136 RECORDS. CPU TIME:     0.72 SEC, REAL TIME:     1.03 SEC
 SORT2 READ    46667380. AND WROTE    55360566. INTEGRALS IN      4 RECORDS. CPU TIME:     0.60 SEC, REAL TIME:     0.83 SEC

 FILE SIZES:   FILE 1:   760.6 MBYTE,  FILE 4:   570.5 MBYTE,   TOTAL:   1331.1 MBYTE

 OPERATOR DM      FOR CENTER  0  COORDINATES:    0.000000    0.000000    0.000000


 **********************************************************************************************************************************
 DATASETS  * FILE   NREC   LENGTH (MB)   RECORD NAMES
              1      19      421.80       500      610      700      900      950      970     1000      129      960     1100   
                                          VAR    BASINP    GEOM    SYMINP    ZMAT    AOBASIS   BASIS     P2S    ABASIS      S 
                                         1400     1410     1200     1210     1080     1600     1650     1300     1700   
                                           T        V       H0       H01     AOSYM     SMH    MOLCAS    ERIS     OPER   

 PROGRAMS   *        TOTAL       INT
 CPU TIMES  *         3.96      3.85
 REAL TIME  *         5.67 SEC
 DISK USED  *         1.33 GB      
 **********************************************************************************************************************************


 PROGRAM * RHF-SCF (CLOSED SHELL)       Authors: W. Meyer, H.-J. Werner


 NUMBER OF ELECTRONS:       8+    8-
 CONVERGENCE THRESHOLDS:    1.00E-10 (Density)    1.00E-13 (Energy)
 MAX. NUMBER OF ITERATIONS:      500
 INTERPOLATION TYPE:            DIIS
 INTERPOLATION STEPS:              2 (START)      1 (STEP)
 LEVEL SHIFTS:                  0.00 (CLOSED)  0.00 (OPEN) 



 Orbital guess generated from atomic densities. Full valence occupancy:    9   2

 Molecular orbital dump at record        2100.2

 Initial occupancy:   7   1

 ITERATION    DDIFF          GRAD             ENERGY        2-EL.EN.            DIPOLE MOMENTS         DIIS   ORB.
    1      0.000D+00      0.000D+00      -129.79193575    154.447748    0.00000    0.56240   -0.98064    0    start
    2      0.000D+00      0.869D-02      -129.81913034    155.639565    0.00000    0.59111   -0.19977    1    diag
    3      0.359D-02      0.646D-02      -129.84030610    155.739031    0.00000    0.54035   -0.56761    2    diag
    4      0.137D-02      0.102D-02      -129.84106723    155.472076    0.00000    0.54883   -0.50712    3    diag
    5      0.327D-03      0.332D-03      -129.84118397    155.559169    0.00000    0.55483   -0.50971    4    diag
    6      0.152D-03      0.975D-04      -129.84120295    155.543211    0.00000    0.55544   -0.50576    5    diag
    7      0.603D-04      0.484D-04      -129.84120839    155.545854    0.00000    0.55680   -0.50339    6    diag
    8      0.406D-04      0.160D-04      -129.84120893    155.545071    0.00000    0.55686   -0.50255    7    diag
    9      0.134D-04      0.296D-05      -129.84120895    155.544967    0.00000    0.55681   -0.50239    8    diag
   10      0.265D-05      0.688D-06      -129.84120895    155.544953    0.00000    0.55677   -0.50236    9    orth
   11      0.827D-06      0.139D-06      -129.84120895    155.544949    0.00000    0.55677   -0.50236    9    diag
   12      0.200D-06      0.284D-07      -129.84120895    155.544949    0.00000    0.55676   -0.50235    9    diag
   13      0.487D-07      0.740D-08      -129.84120895    155.544948    0.00000    0.55676   -0.50235    9    diag
   14      0.111D-07      0.134D-08      -129.84120895    155.544948    0.00000    0.55676   -0.50235    9    diag
   15      0.152D-08      0.374D-09      -129.84120895    155.544948    0.00000    0.55676   -0.50235    9    diag
   16      0.335D-09      0.116D-09      -129.84120895    155.544948    0.00000    0.55676   -0.50235    9    diag
   17      0.904D-10      0.342D-10      -129.84120895    155.544948    0.00000    0.55676   -0.50235    9    diag
   18      0.301D-10      0.110D-10      -129.84120895    155.544948    0.00000    0.55676   -0.50235    0    orth

 Final occupancy:   7   1

 !RHF STATE 1.1 Energy               -129.841208953736
 Nuclear energy                        30.58460601
 One-electron energy                 -238.19828907
 Two-electron energy                   77.77247411
 Virial quotient                       -1.00131532
 !RHF STATE 1.1 Dipole moment           0.00000000     0.55676396    -0.50235343
 Dipole moment /Debye                   0.00000000     1.41506016    -1.27677144

 Orbital energies:

         1.1          2.1          3.1          4.1          5.1          6.1          7.1          8.1          9.1
    -20.650273   -15.708967    -1.536576    -0.990410    -0.748359    -0.667118    -0.425848     0.039897     0.193349

         1.2          2.2          3.2
     -0.599119     0.082707     0.239848

 HOMO      7.1    -0.425848 =     -11.5879eV
 LUMO      8.1     0.039897 =       1.0857eV
 LUMO-HOMO         0.465745 =      12.6736eV


 **********************************************************************************************************************************
 DATASETS  * FILE   NREC   LENGTH (MB)   RECORD NAMES
              1      19      421.80       500      610      700      900      950      970     1000      129      960     1100   
                                          VAR    BASINP    GEOM    SYMINP    ZMAT    AOBASIS   BASIS     P2S    ABASIS      S 
                                         1400     1410     1200     1210     1080     1600     1650     1300     1700   
                                           T        V       H0       H01     AOSYM     SMH    MOLCAS    ERIS     OPER   

              2       4        3.13       700     1000      520     2100   
                                         GEOM     BASIS   MCVARS     RHF  

 PROGRAMS   *        TOTAL        HF       INT
 CPU TIMES  *         8.67      4.71      3.85
 REAL TIME  *        11.25 SEC
 DISK USED  *         1.33 GB      
 **********************************************************************************************************************************


 PROGRAM * CCSD (Closed-shell coupled cluster)     Authors: C. Hampel, H.-J. Werner, 1991, M. Deegan, P.J. Knowles, 1992


 Convergence thresholds:  THRVAR = 1.00D-08  THRDEN = 1.00D-12

 CCSD(T)     terms to be evaluated (factor= 1.000)


 Number of core orbitals:           2 (   2   0 )
 Number of closed-shell orbitals:   6 (   5   1 )
 Number of external orbitals:     163 ( 107  56 )

 Molecular orbitals read from record     2100.2  Type=RHF/CANONICAL (state 1.1)

 Number of N-1 electron functions:               6
 Number of N-2 electron functions:              21
 Number of singly external CSFs:               591
 Number of doubly external CSFs:            250014
 Total number of CSFs:                      250606

 Length of J-op  integral file:               0.00 MB
 Length of K-op  integral file:               1.15 MB
 Length of 3-ext integral record:             0.00 MB

 Memory could be reduced to 19.93 Mwords without degradation in triples

 Integral transformation finished. Total CPU:   0.66 sec, npass=  1  Memory used:   5.10 MW

 Reference energy:                   -129.84120895

 MP2 singlet pair energy:              -0.28586008
 MP2 triplet pair energy:              -0.16651652
 MP2 correlation energy:               -0.45237660
 MP2 total energy:                   -130.29358555

 SCS-MP2 correlation energy:           -0.44664237   (PS=  1.200000  PT=  0.333333)
 SCS-MP2 total energy:               -130.28785133

 ITER.      SQ.NORM     CORR.ENERGY   TOTAL ENERGY   ENERGY CHANGE        DEN1      VAR(S)    VAR(P)  DIIS     TIME  TIME/IT
   1      1.11771687    -0.45488432  -130.29609327    -0.00250772     0.01381524  0.31D-02  0.30D-02  1  1     1.24     0.66
   2      1.12798216    -0.45488626  -130.29609521    -0.00000194    -0.01225195  0.11D-03  0.48D-03  2  2     1.88     0.67
   3      1.13433808    -0.45524444  -130.29645340    -0.00035819    -0.00330234  0.41D-04  0.55D-04  3  3     2.49     0.68
   4      1.13708450    -0.45527552  -130.29648448    -0.00003108    -0.00091286  0.41D-05  0.92D-05  4  4     3.07     0.68
   5      1.13809537    -0.45530576  -130.29651471    -0.00003023    -0.00020693  0.13D-05  0.17D-05  5  5     3.67     0.68
   6      1.13847242    -0.45529116  -130.29650011     0.00001460    -0.00006242  0.12D-06  0.42D-06  6  6     4.29     0.69
   7      1.13854484    -0.45529255  -130.29650151    -0.00000139     0.00000783  0.17D-07  0.88D-07  6  1     4.92     0.69
   8      1.13857861    -0.45529223  -130.29650118     0.00000032    -0.00000434  0.48D-08  0.13D-07  6  2     5.51     0.69
   9      1.13858389    -0.45529213  -130.29650108     0.00000010     0.00000076  0.20D-08  0.15D-08  6  3     6.14     0.69
  10      1.13858419    -0.45529244  -130.29650140    -0.00000032    -0.00000017  0.45D-09  0.22D-09  6  4     6.78     0.69
  11      1.13858272    -0.45529257  -130.29650153    -0.00000013     0.00000033  0.11D-09  0.23D-10  6  5     7.42     0.69
  12      1.13858162    -0.45529271  -130.29650166    -0.00000014     0.00000045  0.14D-10  0.67D-11  6  6     8.06     0.69
  13      1.13858101    -0.45529273  -130.29650168    -0.00000002     0.00000012  0.55D-11  0.12D-11  6  1     8.71     0.69
  14      1.13858053    -0.45529275  -130.29650171    -0.00000003     0.00000011  0.53D-12  0.39D-12  6  3     9.34     0.69
  15      1.13858039    -0.45529275  -130.29650171    -0.00000000     0.00000001  0.13D-12  0.27D-13  6  2     9.99     0.69
  16      1.13858034    -0.45529275  -130.29650171    -0.00000000     0.00000001  0.30D-13  0.68D-14  6  4    10.62     0.69
  17      1.13858032    -0.45529276  -130.29650171    -0.00000000     0.00000001  0.35D-14  0.11D-14  6  5    11.25     0.70
  18      1.13858032    -0.45529276  -130.29650171     0.00000000     0.00000000  0.38D-15  0.29D-15  6  6    11.87     0.70
  19      1.13858033    -0.45529276  -130.29650171     0.00000000    -0.00000000  0.50D-16  0.32D-16  6  1    12.50     0.70
  20      1.13858033    -0.45529275  -130.29650171     0.00000000    -0.00000000  0.27D-17  0.72D-17  6  3    13.13     0.70
  21      1.13858033    -0.45529275  -130.29650171     0.00000000    -0.00000000  0.44D-18  0.15D-17  6  4    13.78     0.70
  22      1.13858033    -0.45529275  -130.29650171     0.00000000    -0.00000000  0.14D-19  0.51D-18  6  2    14.43     0.70
  23      1.13858033    -0.45529275  -130.29650171    -0.00000000     0.00000000  0.31D-19  0.11D-18  6  5    15.07     0.70
  24      1.13858033    -0.45529275  -130.29650171    -0.00000000     0.00000000  0.41D-20  0.10D-19  6  1    15.69     0.70
  25      1.13858033    -0.45529275  -130.29650171     0.00000000    -0.00000000  0.16D-20  0.69D-21  6  6    16.31     0.70

 Norm of t1 vector:      0.07556440      S-energy:     0.00000000      T1 diagnostic:  0.01542452
                                                                       D1 diagnostic:  0.04167789

 Doubles amplitudes (print threshold =  0.500E-01):

         I         J         SYM. A    SYM. B    A         B      T(IJ, AB)

         6         6         2         2         1         1     -0.13241096


 Total CPU time for triples:      7.61 sec


 RESULTS
 =======

  Reference energy                   -129.841208953736
  CCSD singlet pair energy             -0.312458249357
  CCSD triplet pair energy             -0.142834505592
  CCSD correlation energy              -0.455292754948

  Triples (T) contribution             -0.020888848497
  Total correlation energy             -0.476181603445

  CCSD total energy                  -130.296501708684
  CCSD[T] energy                     -130.318441308638
  CCSD-T energy                      -130.316988318915
 !CCSD(T) total energy               -130.317390557181

 Timing summary (sec):

 STEP                 CPU(USER)    SYS     CPU(TOT)    WALL
 Transformation          0.67      0.16      0.83      0.83
 CCSD iterations        15.64      1.82     17.46     17.47
 Triples                 7.61      0.25      7.86      7.86

 Program statistics:

 Available memory in ccsd:               994999756
 Min. memory needed in ccsd:                887758
 Max. memory used in ccsd:                 1088212
 Max. memory used in cckext:               1535578 (25 integral passes)



 **********************************************************************************************************************************
 DATASETS  * FILE   NREC   LENGTH (MB)   RECORD NAMES
              1      20      479.76       500      610      700      900      950      970     1000      129      960     1100   
                                          VAR    BASINP    GEOM    SYMINP    ZMAT    AOBASIS   BASIS     P2S    ABASIS      S 
                                         1400     1410     1200     1210     1080     1600     1650     1300     1700     1380   
                                           T        V       H0       H01     AOSYM     SMH    MOLCAS    ERIS     OPER     JKOP   

              2       4        3.13       700     1000      520     2100   
                                         GEOM     BASIS   MCVARS     RHF  

 PROGRAMS   *        TOTAL   CCSD(T)        HF       INT
 CPU TIMES  *        32.62     23.95      4.71      3.85
 REAL TIME  *        37.89 SEC
 DISK USED  *         1.33 GB      
 **********************************************************************************************************************************

 CCSD(T)/USERDEF energy=   -130.317390557181

        CCSD(T)         HF-SCF  
   -130.31739056   -129.84120895
 **********************************************************************************************************************************
 Molpro calculation terminated
 Variable memory released
