
 Primary working directories    : /tmp/r2666/282329.maple
 Secondary working directories  : /tmp/r2666/282329.maple
 Wavefunction directory         : /ddn/home4/r2666/wfu/
 Main file repository           : /tmp/r2666/282329.maple/

 SHA1      : d5ffa45e93fdbca01ffc919aa182cfdae0147319
 NAME      : 2015.1.35
 ARCHNAME  : linux/x86_64
 FC        : /opt/intel/composer_xe_2015.1.133/bin/intel64/ifort
 BLASLIB   : -Wl,-_start-group /opt/intel/mkl/lib/intel64/libmkl_intel_ilp64.a /opt/intel/mkl/lib/intel64/libmkl_intel_thread.a /opt/intel/mkl/lib/intel64/libmkl_core.a -Wl,-_end-group
 id        : olemiss

 Nodes     nprocs
 cn083        1

 Using customized tuning parameters: mindgm=1; mindgv=20; mindgc=4; mindgr=1; noblas=0; minvec=7
 default implementation of scratch files=df  

 ***,hno CCSD(T)/TZ-F12 QFF
 memory, 995, m;
 gthresh,energy=1.d-12,zero=1.d-22,oneint=1.d-22,twoint=1.d-22;
 gthresh,optgrad=1.d-8,optstep=1.d-8;
 nocompress;
 geomtyp=xyz
 bohr
 geometry={
 3
         97        97
 H        0.0000000000        1.6711886084       -1.9292095927
 N        0.0000000000       -0.1669494180       -1.1473690020
 O        0.0000000000        0.0375285995        1.1259890037
 }
 
 basis={
 default=aug-cc-pvtz
 s,C,8236.0,1235.0,280.8, 79.27,25.59, 8.997,3.319
 s,C,0.9059,0.3643,0.1285000
 p,C,56.0,18.71,4.133,0.2827,0.3827,0.1209
 d,C,30.0,10.0,3.3,1.097,0.318
 f,C,7.0,2.3,0.7610
 s,N,11420.0,1712.0,389.3,110.0,35.57,12.54,4.644
 s,N,1.293,0.5118,0.1787
 p,N,79.89,26.63,5.948,1.742,0.555,0.1725
 d,N,45.0,15.0,5.0,1.654,0.469
 f,N,9.9,3.3,1.093
 s,O,15330.0,2299.0,522.4,147.3,47.55,16.76,6.207
 s,O,1.752,0.6882,0.2384
 p,O,103.5,34.46,7.749,2.28,0.7156,0.214
 d,O,63.0,21.0,7.0,2.314,0.645
 f,O,12.9,4.3,1.428
 s,mg,164900.0,24710.0,5628.0,1596.0,521.0;
 s,mg,188.0,73.01,29.90,12.54,4.306,1.826;
 s,mg,0.7417,0.0761,0.145,0.033,0.0129;
 p,mg,950.70,316.90,74.86,23.72,8.669,3.363;
 p,mg,1.310,0.4911,0.2364,0.08733,0.03237,0.00745;
 d,mg,1.601,0.686,0.126,0.294,0.0468;
 f,mg,1.372,0.588,0.094,0.252;
 }
   {hf,maxit=500;accu,20;}
 {ccsd(t),nocheck,maxit=250;orbital,IGNORE_ERROR;}

 Variables initialized (889), CPU time= 0.01 sec
 Commands  initialized (702), CPU time= 0.01 sec, 572 directives.
 Default parameters read. Elapsed time= 0.05 sec

 Checking input...
 Passed
1


                                         ***  PROGRAM SYSTEM MOLPRO  ***
                                       Copyright, TTI GmbH Stuttgart, 2015
                                    Version 2015.1 linked Jul  9 2018 13:16:40


 **********************************************************************************************************************************
 LABEL *   hno CCSD(T)/TZ-F12 QFF                                                        
  64 bit serial version                                                                  DATE: 04-Mar-20          TIME: 13:48:12  
 **********************************************************************************************************************************

 SHA1:             d5ffa45e93fdbca01ffc919aa182cfdae0147319
 **********************************************************************************************************************************

 THRESHOLDS:

 ZERO    =  1.00D-22  ONEINT  =  1.00D-22  TWOINT  =  1.00D-22  PREFAC  =  1.00D-14  LOCALI  =  1.00D-09  EORDER  =  1.00D-04
 ENERGY  =  1.00D-12  ETEST   =  0.00D+00  EDENS   =  0.00D+00  THRDEDEF=  1.00D-06  GRADIENT=  1.00D-02  STEP    =  1.00D-03
 ORBITAL =  1.00D-05  CIVEC   =  1.00D-05  COEFF   =  1.00D-04  PRINTCI =  5.00D-02  PUNCHCI =  9.90D+01  OPTGRAD =  3.00D-04
 OPTENERG=  1.00D-06  OPTSTEP =  3.00D-04  THRGRAD =  1.00D-10  COMPRESS=  1.00D-11  VARMIN  =  1.00D-07  VARMAX  =  1.00D-03
 THRDOUB =  0.00D+00  THRDIV  =  1.00D-05  THRRED  =  1.00D-07  THRPSP  =  1.00D+00  THRDC   =  1.00D-10  THRCS   =  1.00D-10
 THRNRM  =  1.00D-08  THREQ   =  0.00D+00  THRDE   =  1.00D+00  THRREF  =  1.00D-05  SPARFAC =  1.00D+00  THRDLP  =  1.00D-07
 THRDIA  =  1.00D-10  THRDLS  =  1.00D-07  THRGPS  =  0.00D+00  THRKEX  =  0.00D+00  THRDIS  =  2.00D-01  THRVAR  =  1.00D-10
 THRLOC  =  1.00D-06  THRGAP  =  1.00D-06  THRLOCT = -1.00D+00  THRGAPT = -1.00D+00  THRORB  =  1.00D-06  THRMLTP =  0.00D+00
 THRCPQCI=  1.00D-10  KEXTA   =  0.00D+00  THRCOARS=  0.00D+00  SYMTOL  =  1.00D-06  GRADTOL =  1.00D-06  THROVL  =  1.00D-08
 THRORTH =  1.00D-08  GRID    =  1.00D-06  GRIDMAX =  1.00D-03  DTMAX   =  0.00D+00  THROCCDE=  1.00D-01  THROCCDE=  1.00D-01



 THRESHOLDS:

 ZERO    =  1.00D-22  ONEINT  =  1.00D-22  TWOINT  =  1.00D-22  PREFAC  =  1.00D-14  LOCALI  =  1.00D-09  EORDER  =  1.00D-04
 ENERGY  =  1.00D-12  ETEST   =  0.00D+00  EDENS   =  0.00D+00  THRDEDEF=  1.00D-06  GRADIENT=  1.00D-02  STEP    =  1.00D-03
 ORBITAL =  1.00D-05  CIVEC   =  1.00D-05  COEFF   =  1.00D-04  PRINTCI =  5.00D-02  PUNCHCI =  9.90D+01  OPTGRAD =  1.00D-08
 OPTENERG=  1.00D-06  OPTSTEP =  1.00D-08  THRGRAD =  1.00D-10  COMPRESS=  1.00D-11  VARMIN  =  1.00D-07  VARMAX  =  1.00D-03
 THRDOUB =  0.00D+00  THRDIV  =  1.00D-05  THRRED  =  1.00D-07  THRPSP  =  1.00D+00  THRDC   =  1.00D-10  THRCS   =  1.00D-10
 THRNRM  =  1.00D-08  THREQ   =  0.00D+00  THRDE   =  1.00D+00  THRREF  =  1.00D-05  SPARFAC =  1.00D+00  THRDLP  =  1.00D-07
 THRDIA  =  1.00D-10  THRDLS  =  1.00D-07  THRGPS  =  0.00D+00  THRKEX  =  0.00D+00  THRDIS  =  2.00D-01  THRVAR  =  1.00D-10
 THRLOC  =  1.00D-06  THRGAP  =  1.00D-06  THRLOCT = -1.00D+00  THRGAPT = -1.00D+00  THRORB  =  1.00D-06  THRMLTP =  0.00D+00
 THRCPQCI=  1.00D-10  KEXTA   =  0.00D+00  THRCOARS=  0.00D+00  SYMTOL  =  1.00D-06  GRADTOL =  1.00D-06  THROVL  =  1.00D-08
 THRORTH =  1.00D-08  GRID    =  1.00D-06  GRIDMAX =  1.00D-03  DTMAX   =  0.00D+00  THROCCDE=  1.00D-01  THROCCDE=  1.00D-01



 Input parameters for SORTINT:

 COMPRESS =    0.000000
 C_FINAL  =    1.000000
 DEBUG    =   -1.000000
 C_SORT1  =    0.000000
 C_SEWARD =    0.000000
 THRESH   =    0.000000
 IO       =  molpro                                                          
 SPRI     =    0.000000
 SETTING GEOMTYP        =    XYZ
 ZUNIT=BOHR
 

 Variable memory set to  995000000 words,  buffer space   230000 words

 SETTING BASIS          =    USERDEF


 Recomputing integrals since basis changed


 Using spherical harmonics

 Library entry H      S aug-cc-pVTZ          selected for orbital group  1
 Library entry H      P aug-cc-pVTZ          selected for orbital group  1
 Library entry H      D aug-cc-pVTZ          selected for orbital group  1


 PROGRAM * SEWARD (Integral evaluation for generally contracted gaussian basis sets)     Author: Roland Lindh, 1990

 Geometry written to block  1 of record 700


 Point group  Cs  



 ATOMIC COORDINATES

 NR  ATOM    CHARGE       X              Y              Z

   1  H       1.00    0.000000000    1.671188608   -1.929209593
   2  N       7.00    0.000000000   -0.166949418   -1.147369002
   3  O       8.00    0.000000000    0.037528600    1.125989004

 Bond lengths in Bohr (Angstrom)

 1-2  1.997504972  2-3  2.282535406
     ( 1.057034110)     ( 1.207865720)

 Bond angles

  1-2-3  107.90251459

 NUCLEAR CHARGE:                   16
 NUMBER OF PRIMITIVE AOS:         203
 NUMBER OF SYMMETRY AOS:          173
 NUMBER OF CONTRACTIONS:          171   ( 114A'  +  57A"  )
 NUMBER OF CORE ORBITALS:           2   (   2A'  +   0A"  )
 NUMBER OF VALENCE ORBITALS:        9   (   7A'  +   2A"  )


 NUCLEAR REPULSION ENERGY   30.34759724


 Eigenvalues of metric

         1 0.105E-02 0.249E-02 0.335E-02 0.639E-02 0.100E-01 0.137E-01 0.145E-01 0.232E-01
         2 0.370E-01 0.532E-01 0.703E-01 0.941E-01 0.131E+00 0.134E+00 0.141E+00 0.142E+00


 Contracted 2-electron integrals neglected if value below      1.0D-22

       46153283. INTEGRALS WRITTEN OUT IN   11271 BLOCKS ON RECORD 1290 OF FILE 1


 NUMBER OF SORTED TWO-ELECTRON INTEGRALS:   55360566.     BUFFER LENGTH:  32768
 NUMBER OF SEGMENTS:   4  SEGMENT LENGTH:   15997996      RECORD LENGTH: 524288

 Memory used in sort:      16.56 MW

 SORT1 READ    46153283. AND WROTE    46590796. INTEGRALS IN    136 RECORDS. CPU TIME:     0.79 SEC, REAL TIME:     1.08 SEC
 SORT2 READ    46590796. AND WROTE    55360566. INTEGRALS IN      4 RECORDS. CPU TIME:     0.70 SEC, REAL TIME:     0.91 SEC

 FILE SIZES:   FILE 1:   759.4 MBYTE,  FILE 4:   570.5 MBYTE,   TOTAL:   1329.8 MBYTE

 OPERATOR DM      FOR CENTER  0  COORDINATES:    0.000000    0.000000    0.000000


 **********************************************************************************************************************************
 DATASETS  * FILE   NREC   LENGTH (MB)   RECORD NAMES
              1      19      421.30       500      610      700      900      950      970     1000      129      960     1100   
                                          VAR    BASINP    GEOM    SYMINP    ZMAT    AOBASIS   BASIS     P2S    ABASIS      S 
                                         1400     1410     1200     1210     1080     1600     1650     1300     1700   
                                           T        V       H0       H01     AOSYM     SMH    MOLCAS    ERIS     OPER   

 PROGRAMS   *        TOTAL       INT
 CPU TIMES  *         4.43      4.33
 REAL TIME  *         6.34 SEC
 DISK USED  *         1.33 GB      
 **********************************************************************************************************************************


 PROGRAM * RHF-SCF (CLOSED SHELL)       Authors: W. Meyer, H.-J. Werner


 NUMBER OF ELECTRONS:       8+    8-
 CONVERGENCE THRESHOLDS:    1.00E-10 (Density)    1.00E-13 (Energy)
 MAX. NUMBER OF ITERATIONS:      500
 INTERPOLATION TYPE:            DIIS
 INTERPOLATION STEPS:              2 (START)      1 (STEP)
 LEVEL SHIFTS:                  0.00 (CLOSED)  0.00 (OPEN) 



 Orbital guess generated from atomic densities. Full valence occupancy:    9   2

 Molecular orbital dump at record        2100.2

 Initial occupancy:   7   1

 ITERATION    DDIFF          GRAD             ENERGY        2-EL.EN.            DIPOLE MOMENTS         DIIS   ORB.
    1      0.000D+00      0.000D+00      -129.78884191    154.020329    0.00000    0.56370   -1.01327    0    start
    2      0.000D+00      0.881D-02      -129.81575578    155.199378    0.00000    0.59714   -0.19301    1    diag
    3      0.363D-02      0.671D-02      -129.83876599    155.318874    0.00000    0.54348   -0.58182    2    diag
    4      0.142D-02      0.104D-02      -129.83954945    155.043827    0.00000    0.55170   -0.51955    3    diag
    5      0.330D-03      0.338D-03      -129.83967088    155.132196    0.00000    0.55777   -0.52197    4    diag
    6      0.153D-03      0.995D-04      -129.83969078    155.116028    0.00000    0.55833   -0.51783    5    diag
    7      0.609D-04      0.498D-04      -129.83969663    155.118596    0.00000    0.55968   -0.51532    6    diag
    8      0.413D-04      0.171D-04      -129.83969726    155.117763    0.00000    0.55973   -0.51441    7    diag
    9      0.143D-04      0.319D-05      -129.83969728    155.117649    0.00000    0.55968   -0.51422    8    diag
   10      0.291D-05      0.725D-06      -129.83969728    155.117635    0.00000    0.55964   -0.51420    9    orth
   11      0.861D-06      0.145D-06      -129.83969728    155.117630    0.00000    0.55964   -0.51419    9    diag
   12      0.205D-06      0.301D-07      -129.83969728    155.117630    0.00000    0.55963   -0.51419    9    diag
   13      0.504D-07      0.797D-08      -129.83969728    155.117629    0.00000    0.55963   -0.51419    9    diag
   14      0.117D-07      0.141D-08      -129.83969728    155.117629    0.00000    0.55963   -0.51419    9    diag
   15      0.150D-08      0.380D-09      -129.83969728    155.117629    0.00000    0.55963   -0.51419    9    diag
   16      0.333D-09      0.112D-09      -129.83969728    155.117629    0.00000    0.55963   -0.51419    9    diag
   17      0.791D-10      0.317D-10      -129.83969728    155.117629    0.00000    0.55963   -0.51419    9    diag
   18      0.252D-10      0.106D-10      -129.83969728    155.117629    0.00000    0.55963   -0.51419    0    orth

 Final occupancy:   7   1

 !RHF STATE 1.1 Energy               -129.839697284391
 Nuclear energy                        30.34759724
 One-electron energy                 -237.74610919
 Two-electron energy                   77.55881466
 Virial quotient                       -1.00168126
 !RHF STATE 1.1 Dipole moment           0.00000000     0.55963438    -0.51419087
 Dipole moment /Debye                   0.00000000     1.42235556    -1.30685724

 Orbital energies:

         1.1          2.1          3.1          4.1          5.1          6.1          7.1          8.1          9.1
    -20.651306   -15.711324    -1.528222    -0.991475    -0.744698    -0.664216    -0.428622     0.039709     0.192378

         1.2          2.2          3.2
     -0.594376     0.079198     0.239466

 HOMO      7.1    -0.428622 =     -11.6634eV
 LUMO      8.1     0.039709 =       1.0805eV
 LUMO-HOMO         0.468330 =      12.7439eV


 **********************************************************************************************************************************
 DATASETS  * FILE   NREC   LENGTH (MB)   RECORD NAMES
              1      19      421.30       500      610      700      900      950      970     1000      129      960     1100   
                                          VAR    BASINP    GEOM    SYMINP    ZMAT    AOBASIS   BASIS     P2S    ABASIS      S 
                                         1400     1410     1200     1210     1080     1600     1650     1300     1700   
                                           T        V       H0       H01     AOSYM     SMH    MOLCAS    ERIS     OPER   

              2       4        3.13       700     1000      520     2100   
                                         GEOM     BASIS   MCVARS     RHF  

 PROGRAMS   *        TOTAL        HF       INT
 CPU TIMES  *         9.17      4.74      4.33
 REAL TIME  *        12.37 SEC
 DISK USED  *         1.33 GB      
 **********************************************************************************************************************************


 PROGRAM * CCSD (Closed-shell coupled cluster)     Authors: C. Hampel, H.-J. Werner, 1991, M. Deegan, P.J. Knowles, 1992


 Convergence thresholds:  THRVAR = 1.00D-08  THRDEN = 1.00D-12

 CCSD(T)     terms to be evaluated (factor= 1.000)


 Number of core orbitals:           2 (   2   0 )
 Number of closed-shell orbitals:   6 (   5   1 )
 Number of external orbitals:     163 ( 107  56 )

 Molecular orbitals read from record     2100.2  Type=RHF/CANONICAL (state 1.1)

 Number of N-1 electron functions:               6
 Number of N-2 electron functions:              21
 Number of singly external CSFs:               591
 Number of doubly external CSFs:            250014
 Total number of CSFs:                      250606

 Length of J-op  integral file:               0.00 MB
 Length of K-op  integral file:               1.15 MB
 Length of 3-ext integral record:             0.00 MB

 Memory could be reduced to 19.93 Mwords without degradation in triples

 Integral transformation finished. Total CPU:   0.72 sec, npass=  1  Memory used:   5.10 MW

 Reference energy:                   -129.83969728

 MP2 singlet pair energy:              -0.28697569
 MP2 triplet pair energy:              -0.16724755
 MP2 correlation energy:               -0.45422324
 MP2 total energy:                   -130.29392053

 SCS-MP2 correlation energy:           -0.44843597   (PS=  1.200000  PT=  0.333333)
 SCS-MP2 total energy:               -130.28813326

 ITER.      SQ.NORM     CORR.ENERGY   TOTAL ENERGY   ENERGY CHANGE        DEN1      VAR(S)    VAR(P)  DIIS     TIME  TIME/IT
   1      1.11895194    -0.45634908  -130.29604637    -0.00212584     0.01466741  0.32D-02  0.31D-02  1  1     1.34     0.69
   2      1.12949588    -0.45626677  -130.29596405     0.00008231    -0.01252983  0.12D-03  0.50D-03  2  2     1.95     0.70
   3      1.13607851    -0.45664167  -130.29633895    -0.00037490    -0.00337714  0.44D-04  0.57D-04  3  3     2.60     0.71
   4      1.13895100    -0.45667324  -130.29637052    -0.00003157    -0.00094759  0.45D-05  0.97D-05  4  4     3.27     0.71
   5      1.14003175    -0.45670582  -130.29640310    -0.00003258    -0.00022086  0.14D-05  0.17D-05  5  5     3.90     0.72
   6      1.14042860    -0.45669008  -130.29638736     0.00001574    -0.00006585  0.13D-06  0.42D-06  6  6     4.53     0.72
   7      1.14050178    -0.45669150  -130.29638878    -0.00000142     0.00000844  0.18D-07  0.91D-07  6  1     5.20     0.72
   8      1.14053663    -0.45669105  -130.29638833     0.00000045    -0.00000467  0.48D-08  0.14D-07  6  2     5.87     0.72
   9      1.14054217    -0.45669092  -130.29638820     0.00000013     0.00000091  0.21D-08  0.16D-08  6  3     6.55     0.72
  10      1.14054260    -0.45669124  -130.29638853    -0.00000033    -0.00000023  0.48D-09  0.25D-09  6  4     7.21     0.73
  11      1.14054109    -0.45669138  -130.29638866    -0.00000014     0.00000034  0.12D-09  0.25D-10  6  5     7.87     0.73
  12      1.14053994    -0.45669153  -130.29638881    -0.00000015     0.00000047  0.15D-10  0.74D-11  6  6     8.50     0.73
  13      1.14053928    -0.45669155  -130.29638883    -0.00000002     0.00000012  0.59D-11  0.13D-11  6  1     9.17     0.73
  14      1.14053877    -0.45669157  -130.29638886    -0.00000003     0.00000012  0.55D-12  0.43D-12  6  3     9.82     0.73
  15      1.14053862    -0.45669157  -130.29638886     0.00000000     0.00000001  0.14D-12  0.30D-13  6  2    10.47     0.73
  16      1.14053857    -0.45669158  -130.29638886    -0.00000000     0.00000001  0.33D-13  0.75D-14  6  4    11.12     0.73
  17      1.14053855    -0.45669158  -130.29638886    -0.00000000     0.00000001  0.41D-14  0.12D-14  6  5    11.76     0.73
  18      1.14053855    -0.45669158  -130.29638886     0.00000000     0.00000000  0.44D-15  0.32D-15  6  6    12.40     0.73
  19      1.14053855    -0.45669158  -130.29638886     0.00000000    -0.00000000  0.60D-16  0.40D-16  6  1    13.05     0.73
  20      1.14053855    -0.45669158  -130.29638886     0.00000000    -0.00000000  0.32D-17  0.94D-17  6  3    13.69     0.73
  21      1.14053855    -0.45669158  -130.29638886     0.00000000    -0.00000000  0.50D-18  0.20D-17  6  4    14.33     0.73
  22      1.14053855    -0.45669158  -130.29638886     0.00000000    -0.00000000  0.15D-19  0.70D-18  6  2    14.98     0.73
  23      1.14053855    -0.45669158  -130.29638886    -0.00000000     0.00000000  0.28D-19  0.13D-18  6  4    15.65     0.73
  24      1.14053855    -0.45669158  -130.29638886     0.00000000    -0.00000000  0.31D-20  0.61D-20  6  5    16.33     0.73
  25      1.14053855    -0.45669158  -130.29638886    -0.00000000     0.00000000  0.33D-21  0.51D-21  6  6    16.97     0.73
  26      1.14053855    -0.45669158  -130.29638886     0.00000000    -0.00000000  0.13D-21  0.56D-22  6  1    17.62     0.73
  27      1.14053855    -0.45669158  -130.29638886     0.00000000    -0.00000000  0.50D-22  0.15D-22  6  3    18.28     0.73

 Norm of t1 vector:      0.07734763      S-energy:     0.00000000      T1 diagnostic:  0.01578852
                                                                       D1 diagnostic:  0.04295976

 Doubles amplitudes (print threshold =  0.500E-01):

         I         J         SYM. A    SYM. B    A         B      T(IJ, AB)

         6         6         2         2         1         1     -0.13538891


 Total CPU time for triples:      8.42 sec


 RESULTS
 =======

  Reference energy                   -129.839697284391
  CCSD singlet pair energy             -0.313680918128
  CCSD triplet pair energy             -0.143010658142
  CCSD correlation energy              -0.456691576269

  Triples (T) contribution             -0.021225670484
  Total correlation energy             -0.477917246753

  CCSD total energy                  -130.296388860660
  CCSD[T] energy                     -130.318713408816
  CCSD-T energy                      -130.317199038402
 !CCSD(T) total energy               -130.317614531145

 Timing summary (sec):

 STEP                 CPU(USER)    SYS     CPU(TOT)    WALL
 Transformation          0.73      0.13      0.86      0.93
 CCSD iterations        17.56      2.15     19.71     19.71
 Triples                 8.42      0.27      8.69      8.69

 Program statistics:

 Available memory in ccsd:               994999756
 Min. memory needed in ccsd:                887758
 Max. memory used in ccsd:                 1088212
 Max. memory used in cckext:               1535578 (27 integral passes)



 **********************************************************************************************************************************
 DATASETS  * FILE   NREC   LENGTH (MB)   RECORD NAMES
              1      20      479.26       500      610      700      900      950      970     1000      129      960     1100   
                                          VAR    BASINP    GEOM    SYMINP    ZMAT    AOBASIS   BASIS     P2S    ABASIS      S 
                                         1400     1410     1200     1210     1080     1600     1650     1300     1700     1380   
                                           T        V       H0       H01     AOSYM     SMH    MOLCAS    ERIS     OPER     JKOP   

              2       4        3.13       700     1000      520     2100   
                                         GEOM     BASIS   MCVARS     RHF  

 PROGRAMS   *        TOTAL   CCSD(T)        HF       INT
 CPU TIMES  *        35.93     26.75      4.74      4.33
 REAL TIME  *        42.24 SEC
 DISK USED  *         1.33 GB      
 **********************************************************************************************************************************

 CCSD(T)/USERDEF energy=   -130.317614531145

        CCSD(T)         HF-SCF  
   -130.31761453   -129.83969728
 **********************************************************************************************************************************
 Molpro calculation terminated
 Variable memory released
