
 Primary working directories    : /tmp/r2666/282237.maple
 Secondary working directories  : /tmp/r2666/282237.maple
 Wavefunction directory         : /ddn/home4/r2666/wfu/
 Main file repository           : /tmp/r2666/282237.maple/

 SHA1      : d5ffa45e93fdbca01ffc919aa182cfdae0147319
 NAME      : 2015.1.35
 ARCHNAME  : linux/x86_64
 FC        : /opt/intel/composer_xe_2015.1.133/bin/intel64/ifort
 BLASLIB   : -Wl,-_start-group /opt/intel/mkl/lib/intel64/libmkl_intel_ilp64.a /opt/intel/mkl/lib/intel64/libmkl_intel_thread.a /opt/intel/mkl/lib/intel64/libmkl_core.a -Wl,-_end-group
 id        : olemiss

 Nodes     nprocs
 cn083        1

 Using customized tuning parameters: mindgm=1; mindgv=20; mindgc=4; mindgr=1; noblas=0; minvec=7
 default implementation of scratch files=df  

 ***,hno CCSD(T)/TZ-F12 QFF
 memory, 995, m;
 gthresh,energy=1.d-12,zero=1.d-22,oneint=1.d-22,twoint=1.d-22;
 gthresh,optgrad=1.d-8,optstep=1.d-8;
 nocompress;
 geomtyp=xyz
 bohr
 geometry={
 3
          5         5
 H        0.0000000000        1.6531870083       -1.9184273249
 N        0.0000000000       -0.1510139152       -1.1533625669
 O        0.0000000000        0.0395946969        1.1212003007
 }
 
 basis={
 default=aug-cc-pvtz
 s,C,8236.0,1235.0,280.8, 79.27,25.59, 8.997,3.319
 s,C,0.9059,0.3643,0.1285000
 p,C,56.0,18.71,4.133,0.2827,0.3827,0.1209
 d,C,30.0,10.0,3.3,1.097,0.318
 f,C,7.0,2.3,0.7610
 s,N,11420.0,1712.0,389.3,110.0,35.57,12.54,4.644
 s,N,1.293,0.5118,0.1787
 p,N,79.89,26.63,5.948,1.742,0.555,0.1725
 d,N,45.0,15.0,5.0,1.654,0.469
 f,N,9.9,3.3,1.093
 s,O,15330.0,2299.0,522.4,147.3,47.55,16.76,6.207
 s,O,1.752,0.6882,0.2384
 p,O,103.5,34.46,7.749,2.28,0.7156,0.214
 d,O,63.0,21.0,7.0,2.314,0.645
 f,O,12.9,4.3,1.428
 s,mg,164900.0,24710.0,5628.0,1596.0,521.0;
 s,mg,188.0,73.01,29.90,12.54,4.306,1.826;
 s,mg,0.7417,0.0761,0.145,0.033,0.0129;
 p,mg,950.70,316.90,74.86,23.72,8.669,3.363;
 p,mg,1.310,0.4911,0.2364,0.08733,0.03237,0.00745;
 d,mg,1.601,0.686,0.126,0.294,0.0468;
 f,mg,1.372,0.588,0.094,0.252;
 }
   {hf,maxit=500;accu,20;}
 {ccsd(t),nocheck,maxit=250;orbital,IGNORE_ERROR;}

 Variables initialized (889), CPU time= 0.01 sec
 Commands  initialized (702), CPU time= 0.01 sec, 572 directives.
 Default parameters read. Elapsed time= 0.05 sec

 Checking input...
 Passed
1


                                         ***  PROGRAM SYSTEM MOLPRO  ***
                                       Copyright, TTI GmbH Stuttgart, 2015
                                    Version 2015.1 linked Jul  9 2018 13:16:40


 **********************************************************************************************************************************
 LABEL *   hno CCSD(T)/TZ-F12 QFF                                                        
  64 bit serial version                                                                  DATE: 04-Mar-20          TIME: 13:46:50  
 **********************************************************************************************************************************

 SHA1:             d5ffa45e93fdbca01ffc919aa182cfdae0147319
 **********************************************************************************************************************************

 THRESHOLDS:

 ZERO    =  1.00D-22  ONEINT  =  1.00D-22  TWOINT  =  1.00D-22  PREFAC  =  1.00D-14  LOCALI  =  1.00D-09  EORDER  =  1.00D-04
 ENERGY  =  1.00D-12  ETEST   =  0.00D+00  EDENS   =  0.00D+00  THRDEDEF=  1.00D-06  GRADIENT=  1.00D-02  STEP    =  1.00D-03
 ORBITAL =  1.00D-05  CIVEC   =  1.00D-05  COEFF   =  1.00D-04  PRINTCI =  5.00D-02  PUNCHCI =  9.90D+01  OPTGRAD =  3.00D-04
 OPTENERG=  1.00D-06  OPTSTEP =  3.00D-04  THRGRAD =  1.00D-10  COMPRESS=  1.00D-11  VARMIN  =  1.00D-07  VARMAX  =  1.00D-03
 THRDOUB =  0.00D+00  THRDIV  =  1.00D-05  THRRED  =  1.00D-07  THRPSP  =  1.00D+00  THRDC   =  1.00D-10  THRCS   =  1.00D-10
 THRNRM  =  1.00D-08  THREQ   =  0.00D+00  THRDE   =  1.00D+00  THRREF  =  1.00D-05  SPARFAC =  1.00D+00  THRDLP  =  1.00D-07
 THRDIA  =  1.00D-10  THRDLS  =  1.00D-07  THRGPS  =  0.00D+00  THRKEX  =  0.00D+00  THRDIS  =  2.00D-01  THRVAR  =  1.00D-10
 THRLOC  =  1.00D-06  THRGAP  =  1.00D-06  THRLOCT = -1.00D+00  THRGAPT = -1.00D+00  THRORB  =  1.00D-06  THRMLTP =  0.00D+00
 THRCPQCI=  1.00D-10  KEXTA   =  0.00D+00  THRCOARS=  0.00D+00  SYMTOL  =  1.00D-06  GRADTOL =  1.00D-06  THROVL  =  1.00D-08
 THRORTH =  1.00D-08  GRID    =  1.00D-06  GRIDMAX =  1.00D-03  DTMAX   =  0.00D+00  THROCCDE=  1.00D-01  THROCCDE=  1.00D-01



 THRESHOLDS:

 ZERO    =  1.00D-22  ONEINT  =  1.00D-22  TWOINT  =  1.00D-22  PREFAC  =  1.00D-14  LOCALI  =  1.00D-09  EORDER  =  1.00D-04
 ENERGY  =  1.00D-12  ETEST   =  0.00D+00  EDENS   =  0.00D+00  THRDEDEF=  1.00D-06  GRADIENT=  1.00D-02  STEP    =  1.00D-03
 ORBITAL =  1.00D-05  CIVEC   =  1.00D-05  COEFF   =  1.00D-04  PRINTCI =  5.00D-02  PUNCHCI =  9.90D+01  OPTGRAD =  1.00D-08
 OPTENERG=  1.00D-06  OPTSTEP =  1.00D-08  THRGRAD =  1.00D-10  COMPRESS=  1.00D-11  VARMIN  =  1.00D-07  VARMAX  =  1.00D-03
 THRDOUB =  0.00D+00  THRDIV  =  1.00D-05  THRRED  =  1.00D-07  THRPSP  =  1.00D+00  THRDC   =  1.00D-10  THRCS   =  1.00D-10
 THRNRM  =  1.00D-08  THREQ   =  0.00D+00  THRDE   =  1.00D+00  THRREF  =  1.00D-05  SPARFAC =  1.00D+00  THRDLP  =  1.00D-07
 THRDIA  =  1.00D-10  THRDLS  =  1.00D-07  THRGPS  =  0.00D+00  THRKEX  =  0.00D+00  THRDIS  =  2.00D-01  THRVAR  =  1.00D-10
 THRLOC  =  1.00D-06  THRGAP  =  1.00D-06  THRLOCT = -1.00D+00  THRGAPT = -1.00D+00  THRORB  =  1.00D-06  THRMLTP =  0.00D+00
 THRCPQCI=  1.00D-10  KEXTA   =  0.00D+00  THRCOARS=  0.00D+00  SYMTOL  =  1.00D-06  GRADTOL =  1.00D-06  THROVL  =  1.00D-08
 THRORTH =  1.00D-08  GRID    =  1.00D-06  GRIDMAX =  1.00D-03  DTMAX   =  0.00D+00  THROCCDE=  1.00D-01  THROCCDE=  1.00D-01



 Input parameters for SORTINT:

 COMPRESS =    0.000000
 C_FINAL  =    1.000000
 DEBUG    =   -1.000000
 C_SORT1  =    0.000000
 C_SEWARD =    0.000000
 THRESH   =    0.000000
 IO       =  molpro                                                          
 SPRI     =    0.000000
 SETTING GEOMTYP        =    XYZ
 ZUNIT=BOHR
 

 Variable memory set to  995000000 words,  buffer space   230000 words

 SETTING BASIS          =    USERDEF


 Recomputing integrals since basis changed


 Using spherical harmonics

 Library entry H      S aug-cc-pVTZ          selected for orbital group  1
 Library entry H      P aug-cc-pVTZ          selected for orbital group  1
 Library entry H      D aug-cc-pVTZ          selected for orbital group  1


 PROGRAM * SEWARD (Integral evaluation for generally contracted gaussian basis sets)     Author: Roland Lindh, 1990

 Geometry written to block  1 of record 700


 Point group  Cs  



 ATOMIC COORDINATES

 NR  ATOM    CHARGE       X              Y              Z

   1  H       1.00    0.000000000    1.653187008   -1.918427325
   2  N       7.00    0.000000000   -0.151013915   -1.153362567
   3  O       8.00    0.000000000    0.039594697    1.121200301

 Bond lengths in Bohr (Angstrom)

 1-2  1.959710452  2-3  2.282535406
     ( 1.037034111)     ( 1.207865720)

 Bond angles

  1-2-3  108.18899349

 NUCLEAR CHARGE:                   16
 NUMBER OF PRIMITIVE AOS:         203
 NUMBER OF SYMMETRY AOS:          173
 NUMBER OF CONTRACTIONS:          171   ( 114A'  +  57A"  )
 NUMBER OF CORE ORBITALS:           2   (   2A'  +   0A"  )
 NUMBER OF VALENCE ORBITALS:        9   (   7A'  +   2A"  )


 NUCLEAR REPULSION ENERGY   30.43073401


 Eigenvalues of metric

         1 0.101E-02 0.248E-02 0.327E-02 0.625E-02 0.936E-02 0.136E-01 0.144E-01 0.224E-01
         2 0.346E-01 0.530E-01 0.688E-01 0.940E-01 0.131E+00 0.134E+00 0.139E+00 0.142E+00


 Contracted 2-electron integrals neglected if value below      1.0D-22

       46151732. INTEGRALS WRITTEN OUT IN   11271 BLOCKS ON RECORD 1290 OF FILE 1


 NUMBER OF SORTED TWO-ELECTRON INTEGRALS:   55360566.     BUFFER LENGTH:  32768
 NUMBER OF SEGMENTS:   4  SEGMENT LENGTH:   15997996      RECORD LENGTH: 524288

 Memory used in sort:      16.56 MW

 SORT1 READ    46151732. AND WROTE    46589217. INTEGRALS IN    136 RECORDS. CPU TIME:     0.74 SEC, REAL TIME:     1.08 SEC
 SORT2 READ    46589217. AND WROTE    55360566. INTEGRALS IN      4 RECORDS. CPU TIME:     0.67 SEC, REAL TIME:     0.89 SEC

 FILE SIZES:   FILE 1:   759.4 MBYTE,  FILE 4:   570.5 MBYTE,   TOTAL:   1329.8 MBYTE

 OPERATOR DM      FOR CENTER  0  COORDINATES:    0.000000    0.000000    0.000000


 **********************************************************************************************************************************
 DATASETS  * FILE   NREC   LENGTH (MB)   RECORD NAMES
              1      19      421.29       500      610      700      900      950      970     1000      129      960     1100   
                                          VAR    BASINP    GEOM    SYMINP    ZMAT    AOBASIS   BASIS     P2S    ABASIS      S 
                                         1400     1410     1200     1210     1080     1600     1650     1300     1700   
                                           T        V       H0       H01     AOSYM     SMH    MOLCAS    ERIS     OPER   

 PROGRAMS   *        TOTAL       INT
 CPU TIMES  *         4.24      4.15
 REAL TIME  *         5.96 SEC
 DISK USED  *         1.33 GB      
 **********************************************************************************************************************************


 PROGRAM * RHF-SCF (CLOSED SHELL)       Authors: W. Meyer, H.-J. Werner


 NUMBER OF ELECTRONS:       8+    8-
 CONVERGENCE THRESHOLDS:    1.00E-10 (Density)    1.00E-13 (Energy)
 MAX. NUMBER OF ITERATIONS:      500
 INTERPOLATION TYPE:            DIIS
 INTERPOLATION STEPS:              2 (START)      1 (STEP)
 LEVEL SHIFTS:                  0.00 (CLOSED)  0.00 (OPEN) 



 Orbital guess generated from atomic densities. Full valence occupancy:    9   2

 Molecular orbital dump at record        2100.2

 Initial occupancy:   7   1

 ITERATION    DDIFF          GRAD             ENERGY        2-EL.EN.            DIPOLE MOMENTS         DIIS   ORB.
    1      0.000D+00      0.000D+00      -129.79039585    154.181826    0.00000    0.57918   -1.01107    0    start
    2      0.000D+00      0.872D-02      -129.81732161    155.339819    0.00000    0.59896   -0.20249    1    diag
    3      0.367D-02      0.658D-02      -129.83939548    155.464152    0.00000    0.55166   -0.58500    2    diag
    4      0.140D-02      0.104D-02      -129.84017625    155.191672    0.00000    0.55985   -0.52259    3    diag
    5      0.333D-03      0.335D-03      -129.84029382    155.278521    0.00000    0.56566   -0.52493    4    diag
    6      0.153D-03      0.974D-04      -129.84031281    155.262638    0.00000    0.56623   -0.52085    5    diag
    7      0.603D-04      0.490D-04      -129.84031844    155.265094    0.00000    0.56752   -0.51833    6    diag
    8      0.410D-04      0.167D-04      -129.84031904    155.264280    0.00000    0.56757   -0.51743    7    diag
    9      0.141D-04      0.309D-05      -129.84031907    155.264173    0.00000    0.56752   -0.51725    8    diag
   10      0.287D-05      0.706D-06      -129.84031907    155.264161    0.00000    0.56748   -0.51722    9    orth
   11      0.868D-06      0.140D-06      -129.84031907    155.264157    0.00000    0.56748   -0.51722    9    diag
   12      0.203D-06      0.289D-07      -129.84031907    155.264157    0.00000    0.56747   -0.51722    9    diag
   13      0.486D-07      0.759D-08      -129.84031907    155.264156    0.00000    0.56747   -0.51722    9    diag
   14      0.110D-07      0.133D-08      -129.84031907    155.264156    0.00000    0.56747   -0.51722    9    diag
   15      0.139D-08      0.356D-09      -129.84031907    155.264156    0.00000    0.56747   -0.51722    9    diag
   16      0.313D-09      0.104D-09      -129.84031907    155.264156    0.00000    0.56747   -0.51722    9    diag
   17      0.682D-10      0.274D-10      -129.84031907    155.264156    0.00000    0.56747   -0.51722    9    diag
   18      0.204D-10      0.907D-11      -129.84031907    155.264156    0.00000    0.56747   -0.51722    9    diag
   19      0.815D-11      0.209D-11      -129.84031907    155.264156    0.00000    0.56747   -0.51722    9    fixocc
   20      0.201D-11      0.686D-12      -129.84031907    155.264156    0.00000    0.56747   -0.51722    9    orth
   21      0.267D-12      0.450D-12      -129.84031907    155.264156    0.00000    0.56747   -0.51722    9    diag
   22      0.139D-12      0.555D-12      -129.84031907    155.264156    0.00000    0.56747   -0.51722    0    orth

 Final occupancy:   7   1

 !RHF STATE 1.1 Energy               -129.840319071417
 Nuclear energy                        30.43073401
 One-electron energy                 -237.90313121
 Two-electron energy                   77.63207813
 Virial quotient                       -1.00144731
 !RHF STATE 1.1 Dipole moment           0.00000000     0.56747317    -0.51721846
 Dipole moment /Debye                   0.00000000     1.44227846    -1.31455208

 Orbital energies:

         1.1          2.1          3.1          4.1          5.1          6.1          7.1          8.1          9.1
    -20.651000   -15.708564    -1.528333    -0.996771    -0.746875    -0.664277    -0.429617     0.039796     0.194137

         1.2          2.2          3.2
     -0.594051     0.079082     0.239660

 HOMO      7.1    -0.429617 =     -11.6905eV
 LUMO      8.1     0.039796 =       1.0829eV
 LUMO-HOMO         0.469413 =      12.7734eV


 **********************************************************************************************************************************
 DATASETS  * FILE   NREC   LENGTH (MB)   RECORD NAMES
              1      19      421.29       500      610      700      900      950      970     1000      129      960     1100   
                                          VAR    BASINP    GEOM    SYMINP    ZMAT    AOBASIS   BASIS     P2S    ABASIS      S 
                                         1400     1410     1200     1210     1080     1600     1650     1300     1700   
                                           T        V       H0       H01     AOSYM     SMH    MOLCAS    ERIS     OPER   

              2       4        3.13       700     1000      520     2100   
                                         GEOM     BASIS   MCVARS     RHF  

 PROGRAMS   *        TOTAL        HF       INT
 CPU TIMES  *         9.81      5.57      4.15
 REAL TIME  *        13.01 SEC
 DISK USED  *         1.33 GB      
 **********************************************************************************************************************************


 PROGRAM * CCSD (Closed-shell coupled cluster)     Authors: C. Hampel, H.-J. Werner, 1991, M. Deegan, P.J. Knowles, 1992


 Convergence thresholds:  THRVAR = 1.00D-08  THRDEN = 1.00D-12

 CCSD(T)     terms to be evaluated (factor= 1.000)


 Number of core orbitals:           2 (   2   0 )
 Number of closed-shell orbitals:   6 (   5   1 )
 Number of external orbitals:     163 ( 107  56 )

 Molecular orbitals read from record     2100.2  Type=RHF/CANONICAL (state 1.1)

 Number of N-1 electron functions:               6
 Number of N-2 electron functions:              21
 Number of singly external CSFs:               591
 Number of doubly external CSFs:            250014
 Total number of CSFs:                      250606

 Length of J-op  integral file:               0.00 MB
 Length of K-op  integral file:               1.15 MB
 Length of 3-ext integral record:             0.00 MB

 Memory could be reduced to 19.93 Mwords without degradation in triples

 Integral transformation finished. Total CPU:   0.73 sec, npass=  1  Memory used:   5.10 MW

 Reference energy:                   -129.84031907

 MP2 singlet pair energy:              -0.28652758
 MP2 triplet pair energy:              -0.16698621
 MP2 correlation energy:               -0.45351379
 MP2 total energy:                   -130.29383286

 SCS-MP2 correlation energy:           -0.44773562   (PS=  1.200000  PT=  0.333333)
 SCS-MP2 total energy:               -130.28805469

 ITER.      SQ.NORM     CORR.ENERGY   TOTAL ENERGY   ENERGY CHANGE        DEN1      VAR(S)    VAR(P)  DIIS     TIME  TIME/IT
   1      1.11829098    -0.45568713  -130.29600620    -0.00217334     0.01444762  0.32D-02  0.30D-02  1  1     1.32     0.68
   2      1.12871087    -0.45561593  -130.29593500     0.00007120    -0.01242324  0.12D-03  0.49D-03  2  2     1.98     0.70
   3      1.13517729    -0.45597824  -130.29629731    -0.00036231    -0.00333329  0.42D-04  0.57D-04  3  3     2.62     0.70
   4      1.13801086    -0.45601203  -130.29633110    -0.00003379    -0.00093250  0.41D-05  0.95D-05  4  4     3.24     0.71
   5      1.13906371    -0.45604303  -130.29636210    -0.00003101    -0.00021597  0.12D-05  0.18D-05  5  5     3.87     0.71
   6      1.13945089    -0.45602765  -130.29634672     0.00001538    -0.00006432  0.11D-06  0.43D-06  6  6     4.51     0.72
   7      1.13952114    -0.45602937  -130.29634844    -0.00000172     0.00000863  0.14D-07  0.94D-07  6  1     5.18     0.72
   8      1.13955488    -0.45602901  -130.29634808     0.00000036    -0.00000451  0.51D-08  0.14D-07  6  2     5.83     0.72
   9      1.13955959    -0.45602893  -130.29634800     0.00000007     0.00000102  0.21D-08  0.16D-08  6  3     6.52     0.72
  10      1.13955997    -0.45602925  -130.29634832    -0.00000032    -0.00000027  0.49D-09  0.25D-09  6  4     7.17     0.73
  11      1.13955849    -0.45602938  -130.29634845    -0.00000013     0.00000034  0.11D-09  0.25D-10  6  5     7.80     0.73
  12      1.13955739    -0.45602953  -130.29634860    -0.00000014     0.00000045  0.14D-10  0.70D-11  6  6     8.44     0.73
  13      1.13955677    -0.45602954  -130.29634862    -0.00000002     0.00000012  0.53D-11  0.13D-11  6  1     9.09     0.73
  14      1.13955629    -0.45602957  -130.29634864    -0.00000003     0.00000011  0.50D-12  0.41D-12  6  3     9.70     0.73
  15      1.13955614    -0.45602957  -130.29634864     0.00000000     0.00000001  0.12D-12  0.29D-13  6  2    10.34     0.73
  16      1.13955609    -0.45602957  -130.29634864    -0.00000000     0.00000001  0.29D-13  0.69D-14  6  4    10.98     0.73
  17      1.13955607    -0.45602957  -130.29634865    -0.00000000     0.00000001  0.38D-14  0.11D-14  6  5    11.61     0.73
  18      1.13955607    -0.45602957  -130.29634865     0.00000000     0.00000000  0.44D-15  0.29D-15  6  6    12.22     0.73
  19      1.13955607    -0.45602957  -130.29634865     0.00000000    -0.00000000  0.57D-16  0.38D-16  6  1    12.85     0.73
  20      1.13955607    -0.45602957  -130.29634864     0.00000000    -0.00000000  0.28D-17  0.89D-17  6  3    13.48     0.73
  21      1.13955607    -0.45602957  -130.29634864     0.00000000    -0.00000000  0.47D-18  0.19D-17  6  4    14.09     0.73
  22      1.13955607    -0.45602957  -130.29634864     0.00000000    -0.00000000  0.25D-19  0.67D-18  6  2    14.73     0.73
  23      1.13955607    -0.45602957  -130.29634864    -0.00000000     0.00000000  0.31D-19  0.12D-18  6  4    15.35     0.73
  24      1.13955607    -0.45602957  -130.29634864     0.00000000    -0.00000000  0.29D-20  0.58D-20  6  5    15.99     0.73
  25      1.13955607    -0.45602957  -130.29634864    -0.00000000     0.00000000  0.41D-21  0.48D-21  6  6    16.63     0.73
  26      1.13955607    -0.45602957  -130.29634864     0.00000000    -0.00000000  0.17D-21  0.60D-22  6  1    17.29     0.73
  27      1.13955607    -0.45602957  -130.29634864     0.00000000    -0.00000000  0.65D-22  0.18D-22  6  3    17.94     0.73

 Norm of t1 vector:      0.07645789      S-energy:    -0.00000000      T1 diagnostic:  0.01560690
                                                                       D1 diagnostic:  0.04293097

 Doubles amplitudes (print threshold =  0.500E-01):

         I         J         SYM. A    SYM. B    A         B      T(IJ, AB)

         6         6         2         2         1         1     -0.13553517


 Total CPU time for triples:      7.99 sec


 RESULTS
 =======

  Reference energy                   -129.840319071417
  CCSD singlet pair energy             -0.313111564745
  CCSD triplet pair energy             -0.142918008777
  CCSD correlation energy              -0.456029573523

  Triples (T) contribution             -0.021096710361
  Total correlation energy             -0.477126283884

  CCSD total energy                  -130.296348644940
  CCSD[T] energy                     -130.318524512182
  CCSD-T energy                      -130.317037515956
 !CCSD(T) total energy               -130.317445355301

 Timing summary (sec):

 STEP                 CPU(USER)    SYS     CPU(TOT)    WALL
 Transformation          0.74      0.14      0.88      0.89
 CCSD iterations        17.20      2.46     19.66     19.65
 Triples                 7.99      0.22      8.21      8.22

 Program statistics:

 Available memory in ccsd:               994999756
 Min. memory needed in ccsd:                887758
 Max. memory used in ccsd:                 1088212
 Max. memory used in cckext:               1535578 (27 integral passes)



 **********************************************************************************************************************************
 DATASETS  * FILE   NREC   LENGTH (MB)   RECORD NAMES
              1      20      479.24       500      610      700      900      950      970     1000      129      960     1100   
                                          VAR    BASINP    GEOM    SYMINP    ZMAT    AOBASIS   BASIS     P2S    ABASIS      S 
                                         1400     1410     1200     1210     1080     1600     1650     1300     1700     1380   
                                           T        V       H0       H01     AOSYM     SMH    MOLCAS    ERIS     OPER     JKOP   

              2       4        3.13       700     1000      520     2100   
                                         GEOM     BASIS   MCVARS     RHF  

 PROGRAMS   *        TOTAL   CCSD(T)        HF       INT
 CPU TIMES  *        35.79     25.98      5.57      4.15
 REAL TIME  *        42.07 SEC
 DISK USED  *         1.33 GB      
 **********************************************************************************************************************************

 CCSD(T)/USERDEF energy=   -130.317445355301

        CCSD(T)         HF-SCF  
   -130.31744536   -129.84031907
 **********************************************************************************************************************************
 Molpro calculation terminated
 Variable memory released
