
 Primary working directories    : /tmp/r2666/282353.maple
 Secondary working directories  : /tmp/r2666/282353.maple
 Wavefunction directory         : /ddn/home4/r2666/wfu/
 Main file repository           : /tmp/r2666/282353.maple/

 SHA1      : d5ffa45e93fdbca01ffc919aa182cfdae0147319
 NAME      : 2015.1.35
 ARCHNAME  : linux/x86_64
 FC        : /opt/intel/composer_xe_2015.1.133/bin/intel64/ifort
 BLASLIB   : -Wl,-_start-group /opt/intel/mkl/lib/intel64/libmkl_intel_ilp64.a /opt/intel/mkl/lib/intel64/libmkl_intel_thread.a /opt/intel/mkl/lib/intel64/libmkl_core.a -Wl,-_end-group
 id        : olemiss

 Nodes     nprocs
 cn091        1

 Using customized tuning parameters: mindgm=1; mindgv=20; mindgc=4; mindgr=1; noblas=0; minvec=7
 default implementation of scratch files=df  

 ***,hno CCSD(T)/TZ-F12 QFF
 memory, 995, m;
 gthresh,energy=1.d-12,zero=1.d-22,oneint=1.d-22,twoint=1.d-22;
 gthresh,optgrad=1.d-8,optstep=1.d-8;
 nocompress;
 geomtyp=xyz
 bohr
 geometry={
 3
        121       121
 H        0.0000000000        1.6767635949       -1.9385346468
 N        0.0000000000       -0.1677750491       -1.1476238104
 O        0.0000000000        0.0327792442        1.1355688662
 }
 
 basis={
 default=aug-cc-pvtz
 s,C,8236.0,1235.0,280.8, 79.27,25.59, 8.997,3.319
 s,C,0.9059,0.3643,0.1285000
 p,C,56.0,18.71,4.133,0.2827,0.3827,0.1209
 d,C,30.0,10.0,3.3,1.097,0.318
 f,C,7.0,2.3,0.7610
 s,N,11420.0,1712.0,389.3,110.0,35.57,12.54,4.644
 s,N,1.293,0.5118,0.1787
 p,N,79.89,26.63,5.948,1.742,0.555,0.1725
 d,N,45.0,15.0,5.0,1.654,0.469
 f,N,9.9,3.3,1.093
 s,O,15330.0,2299.0,522.4,147.3,47.55,16.76,6.207
 s,O,1.752,0.6882,0.2384
 p,O,103.5,34.46,7.749,2.28,0.7156,0.214
 d,O,63.0,21.0,7.0,2.314,0.645
 f,O,12.9,4.3,1.428
 s,mg,164900.0,24710.0,5628.0,1596.0,521.0;
 s,mg,188.0,73.01,29.90,12.54,4.306,1.826;
 s,mg,0.7417,0.0761,0.145,0.033,0.0129;
 p,mg,950.70,316.90,74.86,23.72,8.669,3.363;
 p,mg,1.310,0.4911,0.2364,0.08733,0.03237,0.00745;
 d,mg,1.601,0.686,0.126,0.294,0.0468;
 f,mg,1.372,0.588,0.094,0.252;
 }
   {hf,maxit=500;accu,20;}
 {ccsd(t),nocheck,maxit=250;orbital,IGNORE_ERROR;}

 Variables initialized (889), CPU time= 0.00 sec
 Commands  initialized (702), CPU time= 0.01 sec, 572 directives.
 Default parameters read. Elapsed time= 0.05 sec

 Checking input...
 Passed
1


                                         ***  PROGRAM SYSTEM MOLPRO  ***
                                       Copyright, TTI GmbH Stuttgart, 2015
                                    Version 2015.1 linked Jul  9 2018 13:16:40


 **********************************************************************************************************************************
 LABEL *   hno CCSD(T)/TZ-F12 QFF                                                        
  64 bit serial version                                                                  DATE: 04-Mar-20          TIME: 13:48:22  
 **********************************************************************************************************************************

 SHA1:             d5ffa45e93fdbca01ffc919aa182cfdae0147319
 **********************************************************************************************************************************

 THRESHOLDS:

 ZERO    =  1.00D-22  ONEINT  =  1.00D-22  TWOINT  =  1.00D-22  PREFAC  =  1.00D-14  LOCALI  =  1.00D-09  EORDER  =  1.00D-04
 ENERGY  =  1.00D-12  ETEST   =  0.00D+00  EDENS   =  0.00D+00  THRDEDEF=  1.00D-06  GRADIENT=  1.00D-02  STEP    =  1.00D-03
 ORBITAL =  1.00D-05  CIVEC   =  1.00D-05  COEFF   =  1.00D-04  PRINTCI =  5.00D-02  PUNCHCI =  9.90D+01  OPTGRAD =  3.00D-04
 OPTENERG=  1.00D-06  OPTSTEP =  3.00D-04  THRGRAD =  1.00D-10  COMPRESS=  1.00D-11  VARMIN  =  1.00D-07  VARMAX  =  1.00D-03
 THRDOUB =  0.00D+00  THRDIV  =  1.00D-05  THRRED  =  1.00D-07  THRPSP  =  1.00D+00  THRDC   =  1.00D-10  THRCS   =  1.00D-10
 THRNRM  =  1.00D-08  THREQ   =  0.00D+00  THRDE   =  1.00D+00  THRREF  =  1.00D-05  SPARFAC =  1.00D+00  THRDLP  =  1.00D-07
 THRDIA  =  1.00D-10  THRDLS  =  1.00D-07  THRGPS  =  0.00D+00  THRKEX  =  0.00D+00  THRDIS  =  2.00D-01  THRVAR  =  1.00D-10
 THRLOC  =  1.00D-06  THRGAP  =  1.00D-06  THRLOCT = -1.00D+00  THRGAPT = -1.00D+00  THRORB  =  1.00D-06  THRMLTP =  0.00D+00
 THRCPQCI=  1.00D-10  KEXTA   =  0.00D+00  THRCOARS=  0.00D+00  SYMTOL  =  1.00D-06  GRADTOL =  1.00D-06  THROVL  =  1.00D-08
 THRORTH =  1.00D-08  GRID    =  1.00D-06  GRIDMAX =  1.00D-03  DTMAX   =  0.00D+00  THROCCDE=  1.00D-01  THROCCDE=  1.00D-01



 THRESHOLDS:

 ZERO    =  1.00D-22  ONEINT  =  1.00D-22  TWOINT  =  1.00D-22  PREFAC  =  1.00D-14  LOCALI  =  1.00D-09  EORDER  =  1.00D-04
 ENERGY  =  1.00D-12  ETEST   =  0.00D+00  EDENS   =  0.00D+00  THRDEDEF=  1.00D-06  GRADIENT=  1.00D-02  STEP    =  1.00D-03
 ORBITAL =  1.00D-05  CIVEC   =  1.00D-05  COEFF   =  1.00D-04  PRINTCI =  5.00D-02  PUNCHCI =  9.90D+01  OPTGRAD =  1.00D-08
 OPTENERG=  1.00D-06  OPTSTEP =  1.00D-08  THRGRAD =  1.00D-10  COMPRESS=  1.00D-11  VARMIN  =  1.00D-07  VARMAX  =  1.00D-03
 THRDOUB =  0.00D+00  THRDIV  =  1.00D-05  THRRED  =  1.00D-07  THRPSP  =  1.00D+00  THRDC   =  1.00D-10  THRCS   =  1.00D-10
 THRNRM  =  1.00D-08  THREQ   =  0.00D+00  THRDE   =  1.00D+00  THRREF  =  1.00D-05  SPARFAC =  1.00D+00  THRDLP  =  1.00D-07
 THRDIA  =  1.00D-10  THRDLS  =  1.00D-07  THRGPS  =  0.00D+00  THRKEX  =  0.00D+00  THRDIS  =  2.00D-01  THRVAR  =  1.00D-10
 THRLOC  =  1.00D-06  THRGAP  =  1.00D-06  THRLOCT = -1.00D+00  THRGAPT = -1.00D+00  THRORB  =  1.00D-06  THRMLTP =  0.00D+00
 THRCPQCI=  1.00D-10  KEXTA   =  0.00D+00  THRCOARS=  0.00D+00  SYMTOL  =  1.00D-06  GRADTOL =  1.00D-06  THROVL  =  1.00D-08
 THRORTH =  1.00D-08  GRID    =  1.00D-06  GRIDMAX =  1.00D-03  DTMAX   =  0.00D+00  THROCCDE=  1.00D-01  THROCCDE=  1.00D-01



 Input parameters for SORTINT:

 COMPRESS =    0.000000
 C_FINAL  =    1.000000
 DEBUG    =   -1.000000
 C_SORT1  =    0.000000
 C_SEWARD =    0.000000
 THRESH   =    0.000000
 IO       =  molpro                                                          
 SPRI     =    0.000000
 SETTING GEOMTYP        =    XYZ
 ZUNIT=BOHR
 

 Variable memory set to  995000000 words,  buffer space   230000 words

 SETTING BASIS          =    USERDEF


 Recomputing integrals since basis changed


 Using spherical harmonics

 Library entry H      S aug-cc-pVTZ          selected for orbital group  1
 Library entry H      P aug-cc-pVTZ          selected for orbital group  1
 Library entry H      D aug-cc-pVTZ          selected for orbital group  1


 PROGRAM * SEWARD (Integral evaluation for generally contracted gaussian basis sets)     Author: Roland Lindh, 1990

 Geometry written to block  1 of record 700


 Point group  Cs  



 ATOMIC COORDINATES

 NR  ATOM    CHARGE       X              Y              Z

   1  H       1.00    0.000000000    1.676763595   -1.938534647
   2  N       7.00    0.000000000   -0.167775049   -1.147623810
   3  O       8.00    0.000000000    0.032779244    1.135568866

 Bond lengths in Bohr (Angstrom)

 1-2  2.006953602  2-3  2.291984036
     ( 1.062034110)     ( 1.212865720)

 Bond angles

  1-2-3  108.18899349

 NUCLEAR CHARGE:                   16
 NUMBER OF PRIMITIVE AOS:         203
 NUMBER OF SYMMETRY AOS:          173
 NUMBER OF CONTRACTIONS:          171   ( 114A'  +  57A"  )
 NUMBER OF CORE ORBITALS:           2   (   2A'  +   0A"  )
 NUMBER OF VALENCE ORBITALS:        9   (   7A'  +   2A"  )


 NUCLEAR REPULSION ENERGY   30.21569042


 Eigenvalues of metric

         1 0.107E-02 0.254E-02 0.340E-02 0.645E-02 0.102E-01 0.138E-01 0.145E-01 0.236E-01
         2 0.376E-01 0.540E-01 0.709E-01 0.942E-01 0.131E+00 0.135E+00 0.141E+00 0.142E+00


 Contracted 2-electron integrals neglected if value below      1.0D-22

       46129867. INTEGRALS WRITTEN OUT IN   11265 BLOCKS ON RECORD 1290 OF FILE 1


 NUMBER OF SORTED TWO-ELECTRON INTEGRALS:   55360566.     BUFFER LENGTH:  32768
 NUMBER OF SEGMENTS:   4  SEGMENT LENGTH:   15997996      RECORD LENGTH: 524288

 Memory used in sort:      16.56 MW

 SORT1 READ    46129867. AND WROTE    46567189. INTEGRALS IN    136 RECORDS. CPU TIME:     0.89 SEC, REAL TIME:     1.28 SEC
 SORT2 READ    46567189. AND WROTE    55360566. INTEGRALS IN      4 RECORDS. CPU TIME:     0.79 SEC, REAL TIME:     1.12 SEC

 FILE SIZES:   FILE 1:   759.0 MBYTE,  FILE 4:   570.5 MBYTE,   TOTAL:   1329.5 MBYTE

 OPERATOR DM      FOR CENTER  0  COORDINATES:    0.000000    0.000000    0.000000


 **********************************************************************************************************************************
 DATASETS  * FILE   NREC   LENGTH (MB)   RECORD NAMES
              1      19      421.14       500      610      700      900      950      970     1000      129      960     1100   
                                          VAR    BASINP    GEOM    SYMINP    ZMAT    AOBASIS   BASIS     P2S    ABASIS      S 
                                         1400     1410     1200     1210     1080     1600     1650     1300     1700   
                                           T        V       H0       H01     AOSYM     SMH    MOLCAS    ERIS     OPER   

 PROGRAMS   *        TOTAL       INT
 CPU TIMES  *         5.23      5.15
 REAL TIME  *         6.94 SEC
 DISK USED  *         1.33 GB      
 **********************************************************************************************************************************


 PROGRAM * RHF-SCF (CLOSED SHELL)       Authors: W. Meyer, H.-J. Werner


 NUMBER OF ELECTRONS:       8+    8-
 CONVERGENCE THRESHOLDS:    1.00E-10 (Density)    1.00E-13 (Energy)
 MAX. NUMBER OF ITERATIONS:      500
 INTERPOLATION TYPE:            DIIS
 INTERPOLATION STEPS:              2 (START)      1 (STEP)
 LEVEL SHIFTS:                  0.00 (CLOSED)  0.00 (OPEN) 



 Orbital guess generated from atomic densities. Full valence occupancy:    9   2

 Molecular orbital dump at record        2100.2

 Initial occupancy:   7   1

 ITERATION    DDIFF          GRAD             ENERGY        2-EL.EN.            DIPOLE MOMENTS         DIIS   ORB.
    1      0.000D+00      0.000D+00      -129.78694057    153.779826    0.00000    0.56517   -1.03074    0    start
    2      0.000D+00      0.887D-02      -129.81366135    154.955629    0.00000    0.59976   -0.18930    1    diag
    3      0.365D-02      0.685D-02      -129.83773792    155.084461    0.00000    0.54530   -0.58972    2    diag
    4      0.145D-02      0.104D-02      -129.83853351    154.804963    0.00000    0.55321   -0.52650    3    diag
    5      0.331D-03      0.341D-03      -129.83865767    154.894265    0.00000    0.55938   -0.52888    4    diag
    6      0.154D-03      0.101D-03      -129.83867810    154.877962    0.00000    0.55993   -0.52464    5    diag
    7      0.612D-04      0.506D-04      -129.83868417    154.880504    0.00000    0.56128   -0.52206    6    diag
    8      0.417D-04      0.176D-04      -129.83868486    154.879647    0.00000    0.56133   -0.52111    7    diag
    9      0.149D-04      0.332D-05      -129.83868489    154.879525    0.00000    0.56128   -0.52091    8    diag
   10      0.305D-05      0.749D-06      -129.83868489    154.879510    0.00000    0.56124   -0.52089    9    orth
   11      0.878D-06      0.149D-06      -129.83868489    154.879505    0.00000    0.56123   -0.52088    9    diag
   12      0.208D-06      0.312D-07      -129.83868489    154.879505    0.00000    0.56123   -0.52088    9    diag
   13      0.516D-07      0.838D-08      -129.83868489    154.879504    0.00000    0.56123   -0.52088    9    diag
   14      0.121D-07      0.147D-08      -129.83868489    154.879504    0.00000    0.56123   -0.52088    9    diag
   15      0.150D-08      0.390D-09      -129.83868489    154.879504    0.00000    0.56123   -0.52088    9    diag
   16      0.337D-09      0.113D-09      -129.83868489    154.879504    0.00000    0.56123   -0.52088    9    diag
   17      0.740D-10      0.307D-10      -129.83868489    154.879504    0.00000    0.56123   -0.52088    0    orth

 Final occupancy:   7   1

 !RHF STATE 1.1 Energy               -129.838684887198
 Nuclear energy                        30.21569042
 One-electron energy                 -237.49412745
 Two-electron energy                   77.43975213
 Virial quotient                       -1.00189485
 !RHF STATE 1.1 Dipole moment           0.00000000     0.56123081    -0.52088167
 Dipole moment /Debye                   0.00000000     1.42641301    -1.32386243

 Orbital energies:

         1.1          2.1          3.1          4.1          5.1          6.1          7.1          8.1          9.1
    -20.651932   -15.712777    -1.523932    -0.991575    -0.742588    -0.662824    -0.429642     0.039568     0.191627

         1.2          2.2          3.2
     -0.592043     0.077394     0.239282

 HOMO      7.1    -0.429642 =     -11.6911eV
 LUMO      8.1     0.039568 =       1.0767eV
 LUMO-HOMO         0.469210 =      12.7679eV


 **********************************************************************************************************************************
 DATASETS  * FILE   NREC   LENGTH (MB)   RECORD NAMES
              1      19      421.14       500      610      700      900      950      970     1000      129      960     1100   
                                          VAR    BASINP    GEOM    SYMINP    ZMAT    AOBASIS   BASIS     P2S    ABASIS      S 
                                         1400     1410     1200     1210     1080     1600     1650     1300     1700   
                                           T        V       H0       H01     AOSYM     SMH    MOLCAS    ERIS     OPER   

              2       4        3.13       700     1000      520     2100   
                                         GEOM     BASIS   MCVARS     RHF  

 PROGRAMS   *        TOTAL        HF       INT
 CPU TIMES  *        10.95      5.72      5.15
 REAL TIME  *        13.96 SEC
 DISK USED  *         1.33 GB      
 **********************************************************************************************************************************


 PROGRAM * CCSD (Closed-shell coupled cluster)     Authors: C. Hampel, H.-J. Werner, 1991, M. Deegan, P.J. Knowles, 1992


 Convergence thresholds:  THRVAR = 1.00D-08  THRDEN = 1.00D-12

 CCSD(T)     terms to be evaluated (factor= 1.000)


 Number of core orbitals:           2 (   2   0 )
 Number of closed-shell orbitals:   6 (   5   1 )
 Number of external orbitals:     163 ( 107  56 )

 Molecular orbitals read from record     2100.2  Type=RHF/CANONICAL (state 1.1)

 Number of N-1 electron functions:               6
 Number of N-2 electron functions:              21
 Number of singly external CSFs:               591
 Number of doubly external CSFs:            250014
 Total number of CSFs:                      250606

 Length of J-op  integral file:               0.00 MB
 Length of K-op  integral file:               1.15 MB
 Length of 3-ext integral record:             0.00 MB

 Memory could be reduced to 19.93 Mwords without degradation in triples

 Integral transformation finished. Total CPU:   1.05 sec, npass=  1  Memory used:   5.10 MW

 Reference energy:                   -129.83868489

 MP2 singlet pair energy:              -0.28759725
 MP2 triplet pair energy:              -0.16765223
 MP2 correlation energy:               -0.45524948
 MP2 total energy:                   -130.29393437

 SCS-MP2 correlation energy:           -0.44943364   (PS=  1.200000  PT=  0.333333)
 SCS-MP2 total energy:               -130.28811853

 ITER.      SQ.NORM     CORR.ENERGY   TOTAL ENERGY   ENERGY CHANGE        DEN1      VAR(S)    VAR(P)  DIIS     TIME  TIME/IT
   1      1.11966776    -0.45717481  -130.29585970    -0.00192534     0.01513951  0.33D-02  0.32D-02  1  1     1.94     0.96
   2      1.13037650    -0.45704539  -130.29573028     0.00012942    -0.01268992  0.12D-03  0.51D-03  2  2     2.86     1.00
   3      1.13709772    -0.45743151  -130.29611640    -0.00038612    -0.00342130  0.47D-04  0.59D-04  3  3     3.78     1.01
   4      1.14004605    -0.45746287  -130.29614776    -0.00003136    -0.00096875  0.47D-05  0.10D-04  4  4     4.67     1.01
   5      1.14117266    -0.45749704  -130.29618193    -0.00003417    -0.00022957  0.14D-05  0.17D-05  5  5     5.57     1.00
   6      1.14158376    -0.45748060  -130.29616549     0.00001644    -0.00006817  0.13D-06  0.42D-06  6  6     6.45     1.01
   7      1.14165848    -0.45748201  -130.29616689    -0.00000140     0.00000871  0.19D-07  0.93D-07  6  1     7.39     1.01
   8      1.14169423    -0.45748148  -130.29616636     0.00000053    -0.00000487  0.47D-08  0.15D-07  6  2     8.28     1.01
   9      1.14170013    -0.45748131  -130.29616620     0.00000016     0.00000097  0.22D-08  0.18D-08  6  3     9.07     1.00
  10      1.14170062    -0.45748165  -130.29616654    -0.00000034    -0.00000025  0.51D-09  0.27D-09  6  4     9.92     1.00
  11      1.14169908    -0.45748180  -130.29616668    -0.00000014     0.00000035  0.13D-09  0.28D-10  6  5    10.77     0.99
  12      1.14169787    -0.45748195  -130.29616684    -0.00000016     0.00000049  0.17D-10  0.80D-11  6  6    11.65     0.99
  13      1.14169719    -0.45748197  -130.29616686    -0.00000002     0.00000013  0.63D-11  0.14D-11  6  1    12.53     0.99
  14      1.14169665    -0.45748200  -130.29616689    -0.00000003     0.00000012  0.57D-12  0.47D-12  6  3    13.40     0.99
  15      1.14169649    -0.45748200  -130.29616689     0.00000000     0.00000001  0.15D-12  0.33D-13  6  2    14.25     0.98
  16      1.14169644    -0.45748200  -130.29616689    -0.00000000     0.00000001  0.35D-13  0.80D-14  6  4    15.11     0.98
  17      1.14169641    -0.45748200  -130.29616689    -0.00000000     0.00000001  0.44D-14  0.13D-14  6  5    16.02     0.98
  18      1.14169641    -0.45748200  -130.29616689     0.00000000     0.00000000  0.49D-15  0.35D-15  6  6    16.95     0.99
  19      1.14169641    -0.45748200  -130.29616689     0.00000000    -0.00000000  0.67D-16  0.45D-16  6  1    17.87     0.99
  20      1.14169642    -0.45748200  -130.29616689     0.00000000    -0.00000000  0.36D-17  0.11D-16  6  3    18.73     0.99
  21      1.14169642    -0.45748200  -130.29616689     0.00000000    -0.00000000  0.55D-18  0.23D-17  6  4    19.67     0.99
  22      1.14169642    -0.45748200  -130.29616689     0.00000000    -0.00000000  0.17D-19  0.80D-18  6  2    20.61     0.99
  23      1.14169642    -0.45748200  -130.29616689    -0.00000000     0.00000000  0.31D-19  0.14D-18  6  4    21.54     1.00
  24      1.14169642    -0.45748200  -130.29616689     0.00000000    -0.00000000  0.37D-20  0.69D-20  6  5    22.49     1.00
  25      1.14169642    -0.45748200  -130.29616689    -0.00000000     0.00000000  0.40D-21  0.59D-21  6  6    23.44     1.00
  26      1.14169642    -0.45748200  -130.29616689     0.00000000    -0.00000000  0.15D-21  0.64D-22  6  1    24.36     1.00
  27      1.14169642    -0.45748200  -130.29616689    -0.00000000    -0.00000000  0.56D-22  0.18D-22  6  3    25.27     1.00

 Norm of t1 vector:      0.07848147      S-energy:     0.00000000      T1 diagnostic:  0.01601996
                                                                       D1 diagnostic:  0.04365201

 Doubles amplitudes (print threshold =  0.500E-01):

         I         J         SYM. A    SYM. B    A         B      T(IJ, AB)

         6         6         2         2         1         1     -0.13681119


 Total CPU time for triples:     10.06 sec


 RESULTS
 =======

  Reference energy                   -129.838684887198
  CCSD singlet pair energy             -0.314372048951
  CCSD triplet pair energy             -0.143109952969
  CCSD correlation energy              -0.457482001913

  Triples (T) contribution             -0.021416644117
  Total correlation energy             -0.478898646029

  CCSD total energy                  -130.296166889111
  CCSD[T] energy                     -130.318711859709
  CCSD-T energy                      -130.317159894505
 !CCSD(T) total energy               -130.317583533228

 Timing summary (sec):

 STEP                 CPU(USER)    SYS     CPU(TOT)    WALL
 Transformation          1.07      0.18      1.25      1.24
 CCSD iterations        24.20      2.88     27.08     27.12
 Triples                10.06      0.26     10.32     10.32

 Program statistics:

 Available memory in ccsd:               994999756
 Min. memory needed in ccsd:                887758
 Max. memory used in ccsd:                 1088212
 Max. memory used in cckext:               1535578 (27 integral passes)



 **********************************************************************************************************************************
 DATASETS  * FILE   NREC   LENGTH (MB)   RECORD NAMES
              1      20      479.09       500      610      700      900      950      970     1000      129      960     1100   
                                          VAR    BASINP    GEOM    SYMINP    ZMAT    AOBASIS   BASIS     P2S    ABASIS      S 
                                         1400     1410     1200     1210     1080     1600     1650     1300     1700     1380   
                                           T        V       H0       H01     AOSYM     SMH    MOLCAS    ERIS     OPER     JKOP   

              2       4        3.13       700     1000      520     2100   
                                         GEOM     BASIS   MCVARS     RHF  

 PROGRAMS   *        TOTAL   CCSD(T)        HF       INT
 CPU TIMES  *        46.31     35.36      5.72      5.15
 REAL TIME  *        52.67 SEC
 DISK USED  *         1.33 GB      
 **********************************************************************************************************************************

 CCSD(T)/USERDEF energy=   -130.317583533228

        CCSD(T)         HF-SCF  
   -130.31758353   -129.83868489
 **********************************************************************************************************************************
 Molpro calculation terminated
 Variable memory released
