
 Primary working directories    : /tmp/r2666/282296.maple
 Secondary working directories  : /tmp/r2666/282296.maple
 Wavefunction directory         : /ddn/home4/r2666/wfu/
 Main file repository           : /tmp/r2666/282296.maple/

 SHA1      : d5ffa45e93fdbca01ffc919aa182cfdae0147319
 NAME      : 2015.1.35
 ARCHNAME  : linux/x86_64
 FC        : /opt/intel/composer_xe_2015.1.133/bin/intel64/ifort
 BLASLIB   : -Wl,-_start-group /opt/intel/mkl/lib/intel64/libmkl_intel_ilp64.a /opt/intel/mkl/lib/intel64/libmkl_intel_thread.a /opt/intel/mkl/lib/intel64/libmkl_core.a -Wl,-_end-group
 id        : olemiss

 Nodes     nprocs
 cn079        1

 Using customized tuning parameters: mindgm=1; mindgv=20; mindgc=4; mindgr=1; noblas=0; minvec=7
 default implementation of scratch files=df  

 ***,hno CCSD(T)/TZ-F12 QFF
 memory, 995, m;
 gthresh,energy=1.d-12,zero=1.d-22,oneint=1.d-22,twoint=1.d-22;
 gthresh,optgrad=1.d-8,optstep=1.d-8;
 nocompress;
 geomtyp=xyz
 bohr
 geometry={
 3
         64        64
 H        0.0000000000        1.6664088021       -1.9220564628
 N        0.0000000000       -0.1659560456       -1.1508190905
 O        0.0000000000        0.0413150335        1.1222859623
 }
 
 basis={
 default=aug-cc-pvtz
 s,C,8236.0,1235.0,280.8, 79.27,25.59, 8.997,3.319
 s,C,0.9059,0.3643,0.1285000
 p,C,56.0,18.71,4.133,0.2827,0.3827,0.1209
 d,C,30.0,10.0,3.3,1.097,0.318
 f,C,7.0,2.3,0.7610
 s,N,11420.0,1712.0,389.3,110.0,35.57,12.54,4.644
 s,N,1.293,0.5118,0.1787
 p,N,79.89,26.63,5.948,1.742,0.555,0.1725
 d,N,45.0,15.0,5.0,1.654,0.469
 f,N,9.9,3.3,1.093
 s,O,15330.0,2299.0,522.4,147.3,47.55,16.76,6.207
 s,O,1.752,0.6882,0.2384
 p,O,103.5,34.46,7.749,2.28,0.7156,0.214
 d,O,63.0,21.0,7.0,2.314,0.645
 f,O,12.9,4.3,1.428
 s,mg,164900.0,24710.0,5628.0,1596.0,521.0;
 s,mg,188.0,73.01,29.90,12.54,4.306,1.826;
 s,mg,0.7417,0.0761,0.145,0.033,0.0129;
 p,mg,950.70,316.90,74.86,23.72,8.669,3.363;
 p,mg,1.310,0.4911,0.2364,0.08733,0.03237,0.00745;
 d,mg,1.601,0.686,0.126,0.294,0.0468;
 f,mg,1.372,0.588,0.094,0.252;
 }
   {hf,maxit=500;accu,20;}
 {ccsd(t),nocheck,maxit=250;orbital,IGNORE_ERROR;}

 Variables initialized (889), CPU time= 0.01 sec
 Commands  initialized (702), CPU time= 0.01 sec, 572 directives.
 Default parameters read. Elapsed time= 0.05 sec

 Checking input...
 Passed
1


                                         ***  PROGRAM SYSTEM MOLPRO  ***
                                       Copyright, TTI GmbH Stuttgart, 2015
                                    Version 2015.1 linked Jul  9 2018 13:16:40


 **********************************************************************************************************************************
 LABEL *   hno CCSD(T)/TZ-F12 QFF                                                        
  64 bit serial version                                                                  DATE: 04-Mar-20          TIME: 13:47:37  
 **********************************************************************************************************************************

 SHA1:             d5ffa45e93fdbca01ffc919aa182cfdae0147319
 **********************************************************************************************************************************

 THRESHOLDS:

 ZERO    =  1.00D-22  ONEINT  =  1.00D-22  TWOINT  =  1.00D-22  PREFAC  =  1.00D-14  LOCALI  =  1.00D-09  EORDER  =  1.00D-04
 ENERGY  =  1.00D-12  ETEST   =  0.00D+00  EDENS   =  0.00D+00  THRDEDEF=  1.00D-06  GRADIENT=  1.00D-02  STEP    =  1.00D-03
 ORBITAL =  1.00D-05  CIVEC   =  1.00D-05  COEFF   =  1.00D-04  PRINTCI =  5.00D-02  PUNCHCI =  9.90D+01  OPTGRAD =  3.00D-04
 OPTENERG=  1.00D-06  OPTSTEP =  3.00D-04  THRGRAD =  1.00D-10  COMPRESS=  1.00D-11  VARMIN  =  1.00D-07  VARMAX  =  1.00D-03
 THRDOUB =  0.00D+00  THRDIV  =  1.00D-05  THRRED  =  1.00D-07  THRPSP  =  1.00D+00  THRDC   =  1.00D-10  THRCS   =  1.00D-10
 THRNRM  =  1.00D-08  THREQ   =  0.00D+00  THRDE   =  1.00D+00  THRREF  =  1.00D-05  SPARFAC =  1.00D+00  THRDLP  =  1.00D-07
 THRDIA  =  1.00D-10  THRDLS  =  1.00D-07  THRGPS  =  0.00D+00  THRKEX  =  0.00D+00  THRDIS  =  2.00D-01  THRVAR  =  1.00D-10
 THRLOC  =  1.00D-06  THRGAP  =  1.00D-06  THRLOCT = -1.00D+00  THRGAPT = -1.00D+00  THRORB  =  1.00D-06  THRMLTP =  0.00D+00
 THRCPQCI=  1.00D-10  KEXTA   =  0.00D+00  THRCOARS=  0.00D+00  SYMTOL  =  1.00D-06  GRADTOL =  1.00D-06  THROVL  =  1.00D-08
 THRORTH =  1.00D-08  GRID    =  1.00D-06  GRIDMAX =  1.00D-03  DTMAX   =  0.00D+00  THROCCDE=  1.00D-01  THROCCDE=  1.00D-01



 THRESHOLDS:

 ZERO    =  1.00D-22  ONEINT  =  1.00D-22  TWOINT  =  1.00D-22  PREFAC  =  1.00D-14  LOCALI  =  1.00D-09  EORDER  =  1.00D-04
 ENERGY  =  1.00D-12  ETEST   =  0.00D+00  EDENS   =  0.00D+00  THRDEDEF=  1.00D-06  GRADIENT=  1.00D-02  STEP    =  1.00D-03
 ORBITAL =  1.00D-05  CIVEC   =  1.00D-05  COEFF   =  1.00D-04  PRINTCI =  5.00D-02  PUNCHCI =  9.90D+01  OPTGRAD =  1.00D-08
 OPTENERG=  1.00D-06  OPTSTEP =  1.00D-08  THRGRAD =  1.00D-10  COMPRESS=  1.00D-11  VARMIN  =  1.00D-07  VARMAX  =  1.00D-03
 THRDOUB =  0.00D+00  THRDIV  =  1.00D-05  THRRED  =  1.00D-07  THRPSP  =  1.00D+00  THRDC   =  1.00D-10  THRCS   =  1.00D-10
 THRNRM  =  1.00D-08  THREQ   =  0.00D+00  THRDE   =  1.00D+00  THRREF  =  1.00D-05  SPARFAC =  1.00D+00  THRDLP  =  1.00D-07
 THRDIA  =  1.00D-10  THRDLS  =  1.00D-07  THRGPS  =  0.00D+00  THRKEX  =  0.00D+00  THRDIS  =  2.00D-01  THRVAR  =  1.00D-10
 THRLOC  =  1.00D-06  THRGAP  =  1.00D-06  THRLOCT = -1.00D+00  THRGAPT = -1.00D+00  THRORB  =  1.00D-06  THRMLTP =  0.00D+00
 THRCPQCI=  1.00D-10  KEXTA   =  0.00D+00  THRCOARS=  0.00D+00  SYMTOL  =  1.00D-06  GRADTOL =  1.00D-06  THROVL  =  1.00D-08
 THRORTH =  1.00D-08  GRID    =  1.00D-06  GRIDMAX =  1.00D-03  DTMAX   =  0.00D+00  THROCCDE=  1.00D-01  THROCCDE=  1.00D-01



 Input parameters for SORTINT:

 COMPRESS =    0.000000
 C_FINAL  =    1.000000
 DEBUG    =   -1.000000
 C_SORT1  =    0.000000
 C_SEWARD =    0.000000
 THRESH   =    0.000000
 IO       =  molpro                                                          
 SPRI     =    0.000000
 SETTING GEOMTYP        =    XYZ
 ZUNIT=BOHR
 

 Variable memory set to  995000000 words,  buffer space   230000 words

 SETTING BASIS          =    USERDEF


 Recomputing integrals since basis changed


 Using spherical harmonics

 Library entry H      S aug-cc-pVTZ          selected for orbital group  1
 Library entry H      P aug-cc-pVTZ          selected for orbital group  1
 Library entry H      D aug-cc-pVTZ          selected for orbital group  1


 PROGRAM * SEWARD (Integral evaluation for generally contracted gaussian basis sets)     Author: Roland Lindh, 1990

 Geometry written to block  1 of record 700


 Point group  Cs  



 ATOMIC COORDINATES

 NR  ATOM    CHARGE       X              Y              Z

   1  H       1.00    0.000000000    1.666408802   -1.922056463
   2  N       7.00    0.000000000   -0.165956046   -1.150819090
   3  O       8.00    0.000000000    0.041315034    1.122285962

 Bond lengths in Bohr (Angstrom)

 1-2  1.988056342  2-3  2.282535406
     ( 1.052034110)     ( 1.207865720)

 Bond angles

  1-2-3  107.61603570

 NUCLEAR CHARGE:                   16
 NUMBER OF PRIMITIVE AOS:         203
 NUMBER OF SYMMETRY AOS:          173
 NUMBER OF CONTRACTIONS:          171   ( 114A'  +  57A"  )
 NUMBER OF CORE ORBITALS:           2   (   2A'  +   0A"  )
 NUMBER OF VALENCE ORBITALS:        9   (   7A'  +   2A"  )


 NUCLEAR REPULSION ENERGY   30.37336053


 Eigenvalues of metric

         1 0.104E-02 0.249E-02 0.333E-02 0.636E-02 0.985E-02 0.137E-01 0.145E-01 0.230E-01
         2 0.364E-01 0.532E-01 0.701E-01 0.940E-01 0.131E+00 0.134E+00 0.140E+00 0.142E+00


 Contracted 2-electron integrals neglected if value below      1.0D-22

       46153964. INTEGRALS WRITTEN OUT IN   11271 BLOCKS ON RECORD 1290 OF FILE 1


 NUMBER OF SORTED TWO-ELECTRON INTEGRALS:   55360566.     BUFFER LENGTH:  32768
 NUMBER OF SEGMENTS:   4  SEGMENT LENGTH:   15997996      RECORD LENGTH: 524288

 Memory used in sort:      16.56 MW

 SORT1 READ    46153964. AND WROTE    46591482. INTEGRALS IN    136 RECORDS. CPU TIME:     0.65 SEC, REAL TIME:     0.98 SEC
 SORT2 READ    46591482. AND WROTE    55360566. INTEGRALS IN      4 RECORDS. CPU TIME:     0.61 SEC, REAL TIME:     0.83 SEC

 FILE SIZES:   FILE 1:   759.4 MBYTE,  FILE 4:   570.5 MBYTE,   TOTAL:   1329.8 MBYTE

 OPERATOR DM      FOR CENTER  0  COORDINATES:    0.000000    0.000000    0.000000


 **********************************************************************************************************************************
 DATASETS  * FILE   NREC   LENGTH (MB)   RECORD NAMES
              1      19      421.31       500      610      700      900      950      970     1000      129      960     1100   
                                          VAR    BASINP    GEOM    SYMINP    ZMAT    AOBASIS   BASIS     P2S    ABASIS      S 
                                         1400     1410     1200     1210     1080     1600     1650     1300     1700   
                                           T        V       H0       H01     AOSYM     SMH    MOLCAS    ERIS     OPER   

 PROGRAMS   *        TOTAL       INT
 CPU TIMES  *         3.90      3.79
 REAL TIME  *         5.34 SEC
 DISK USED  *         1.33 GB      
 **********************************************************************************************************************************


 PROGRAM * RHF-SCF (CLOSED SHELL)       Authors: W. Meyer, H.-J. Werner


 NUMBER OF ELECTRONS:       8+    8-
 CONVERGENCE THRESHOLDS:    1.00E-10 (Density)    1.00E-13 (Energy)
 MAX. NUMBER OF ITERATIONS:      500
 INTERPOLATION TYPE:            DIIS
 INTERPOLATION STEPS:              2 (START)      1 (STEP)
 LEVEL SHIFTS:                  0.00 (CLOSED)  0.00 (OPEN) 



 Orbital guess generated from atomic densities. Full valence occupancy:    9   2

 Molecular orbital dump at record        2100.2

 Initial occupancy:   7   1

 ITERATION    DDIFF          GRAD             ENERGY        2-EL.EN.            DIPOLE MOMENTS         DIIS   ORB.
    1      0.000D+00      0.000D+00      -129.78922569    154.071569    0.00000    0.56456   -1.01203    0    start
    2      0.000D+00      0.879D-02      -129.81615353    155.243447    0.00000    0.59778   -0.19393    1    diag
    3      0.364D-02      0.668D-02      -129.83896357    155.364632    0.00000    0.54413   -0.58127    2    diag
    4      0.142D-02      0.104D-02      -129.83974529    155.090396    0.00000    0.55252   -0.51908    3    diag
    5      0.330D-03      0.337D-03      -129.83986586    155.178278    0.00000    0.55849   -0.52145    4    diag
    6      0.153D-03      0.991D-04      -129.83988556    155.162174    0.00000    0.55905   -0.51733    5    diag
    7      0.607D-04      0.497D-04      -129.83989137    155.164714    0.00000    0.56038   -0.51481    6    diag
    8      0.412D-04      0.170D-04      -129.83989199    155.163884    0.00000    0.56043   -0.51390    7    diag
    9      0.143D-04      0.316D-05      -129.83989202    155.163771    0.00000    0.56038   -0.51371    8    diag
   10      0.290D-05      0.718D-06      -129.83989202    155.163758    0.00000    0.56035   -0.51369    9    orth
   11      0.860D-06      0.143D-06      -129.83989202    155.163754    0.00000    0.56034   -0.51369    9    diag
   12      0.204D-06      0.298D-07      -129.83989202    155.163753    0.00000    0.56034   -0.51368    9    diag
   13      0.501D-07      0.787D-08      -129.83989202    155.163753    0.00000    0.56034   -0.51368    9    diag
   14      0.115D-07      0.139D-08      -129.83989202    155.163753    0.00000    0.56034   -0.51368    9    diag
   15      0.147D-08      0.373D-09      -129.83989202    155.163753    0.00000    0.56034   -0.51368    9    diag
   16      0.327D-09      0.110D-09      -129.83989202    155.163753    0.00000    0.56034   -0.51368    9    diag
   17      0.771D-10      0.309D-10      -129.83989202    155.163753    0.00000    0.56034   -0.51368    0    orth

 Final occupancy:   7   1

 !RHF STATE 1.1 Energy               -129.839892017482
 Nuclear energy                        30.37336053
 One-electron energy                 -237.79512903
 Two-electron energy                   77.58187649
 Virial quotient                       -1.00161395
 !RHF STATE 1.1 Dipole moment           0.00000000     0.56033632    -0.51368290
 Dipole moment /Debye                   0.00000000     1.42413957    -1.30556619

 Orbital energies:

         1.1          2.1          3.1          4.1          5.1          6.1          7.1          8.1          9.1
    -20.651137   -15.710701    -1.528429    -0.992545    -0.745267    -0.664158    -0.429111     0.039768     0.192856

         1.2          2.2          3.2
     -0.594339     0.079258     0.239482

 HOMO      7.1    -0.429111 =     -11.6767eV
 LUMO      8.1     0.039768 =       1.0821eV
 LUMO-HOMO         0.468879 =      12.7588eV


 **********************************************************************************************************************************
 DATASETS  * FILE   NREC   LENGTH (MB)   RECORD NAMES
              1      19      421.31       500      610      700      900      950      970     1000      129      960     1100   
                                          VAR    BASINP    GEOM    SYMINP    ZMAT    AOBASIS   BASIS     P2S    ABASIS      S 
                                         1400     1410     1200     1210     1080     1600     1650     1300     1700   
                                           T        V       H0       H01     AOSYM     SMH    MOLCAS    ERIS     OPER   

              2       4        3.13       700     1000      520     2100   
                                         GEOM     BASIS   MCVARS     RHF  

 PROGRAMS   *        TOTAL        HF       INT
 CPU TIMES  *         8.08      4.18      3.79
 REAL TIME  *        10.35 SEC
 DISK USED  *         1.33 GB      
 **********************************************************************************************************************************


 PROGRAM * CCSD (Closed-shell coupled cluster)     Authors: C. Hampel, H.-J. Werner, 1991, M. Deegan, P.J. Knowles, 1992


 Convergence thresholds:  THRVAR = 1.00D-08  THRDEN = 1.00D-12

 CCSD(T)     terms to be evaluated (factor= 1.000)


 Number of core orbitals:           2 (   2   0 )
 Number of closed-shell orbitals:   6 (   5   1 )
 Number of external orbitals:     163 ( 107  56 )

 Molecular orbitals read from record     2100.2  Type=RHF/CANONICAL (state 1.1)

 Number of N-1 electron functions:               6
 Number of N-2 electron functions:              21
 Number of singly external CSFs:               591
 Number of doubly external CSFs:            250014
 Total number of CSFs:                      250606

 Length of J-op  integral file:               0.00 MB
 Length of K-op  integral file:               1.15 MB
 Length of 3-ext integral record:             0.00 MB

 Memory could be reduced to 19.93 Mwords without degradation in triples

 Integral transformation finished. Total CPU:   0.62 sec, npass=  1  Memory used:   5.10 MW

 Reference energy:                   -129.83989202

 MP2 singlet pair energy:              -0.28686281
 MP2 triplet pair energy:              -0.16718209
 MP2 correlation energy:               -0.45404489
 MP2 total energy:                   -130.29393691

 SCS-MP2 correlation energy:           -0.44825978   (PS=  1.200000  PT=  0.333333)
 SCS-MP2 total energy:               -130.28815179

 ITER.      SQ.NORM     CORR.ENERGY   TOTAL ENERGY   ENERGY CHANGE        DEN1      VAR(S)    VAR(P)  DIIS     TIME  TIME/IT
   1      1.11877531    -0.45618191  -130.29607393    -0.00213702     0.01460472  0.32D-02  0.31D-02  1  1     1.20     0.63
   2      1.12928116    -0.45610364  -130.29599566     0.00007827    -0.01249862  0.12D-03  0.50D-03  2  2     1.81     0.64
   3      1.13582645    -0.45647437  -130.29636639    -0.00037073    -0.00336518  0.44D-04  0.57D-04  3  3     2.36     0.64
   4      1.13868333    -0.45650669  -130.29639871    -0.00003232    -0.00094233  0.44D-05  0.96D-05  4  4     2.94     0.65
   5      1.13975206    -0.45653875  -130.29643077    -0.00003206    -0.00021894  0.13D-05  0.17D-05  5  5     3.55     0.65
   6      1.14014402    -0.45652315  -130.29641517     0.00001560    -0.00006516  0.12D-06  0.42D-06  6  6     4.13     0.65
   7      1.14021571    -0.45652464  -130.29641666    -0.00000149     0.00000850  0.17D-07  0.91D-07  6  1     4.71     0.65
   8      1.14025004    -0.45652421  -130.29641622     0.00000044    -0.00000460  0.48D-08  0.14D-07  6  2     5.28     0.65
   9      1.14025525    -0.45652410  -130.29641611     0.00000011     0.00000096  0.21D-08  0.16D-08  6  3     5.86     0.65
  10      1.14025567    -0.45652442  -130.29641643    -0.00000032    -0.00000025  0.48D-09  0.25D-09  6  4     6.44     0.65
  11      1.14025419    -0.45652455  -130.29641657    -0.00000014     0.00000034  0.12D-09  0.25D-10  6  5     7.04     0.65
  12      1.14025306    -0.45652470  -130.29641671    -0.00000014     0.00000046  0.15D-10  0.72D-11  6  6     7.62     0.65
  13      1.14025242    -0.45652472  -130.29641673    -0.00000002     0.00000012  0.56D-11  0.13D-11  6  1     8.23     0.65
  14      1.14025192    -0.45652474  -130.29641676    -0.00000003     0.00000011  0.53D-12  0.42D-12  6  3     8.80     0.65
  15      1.14025177    -0.45652474  -130.29641676     0.00000000     0.00000001  0.13D-12  0.29D-13  6  2     9.38     0.65
  16      1.14025172    -0.45652474  -130.29641676    -0.00000000     0.00000001  0.31D-13  0.72D-14  6  4     9.99     0.66
  17      1.14025170    -0.45652474  -130.29641676    -0.00000000     0.00000001  0.40D-14  0.11D-14  6  5    10.56     0.66
  18      1.14025170    -0.45652474  -130.29641676     0.00000000     0.00000000  0.44D-15  0.31D-15  6  6    11.19     0.66
  19      1.14025170    -0.45652474  -130.29641676     0.00000000    -0.00000000  0.58D-16  0.39D-16  6  1    11.82     0.66
  20      1.14025171    -0.45652474  -130.29641676     0.00000000    -0.00000000  0.30D-17  0.93D-17  6  3    12.43     0.66
  21      1.14025171    -0.45652474  -130.29641676     0.00000000    -0.00000000  0.49D-18  0.20D-17  6  4    13.01     0.66
  22      1.14025171    -0.45652474  -130.29641676     0.00000000    -0.00000000  0.16D-19  0.70D-18  6  2    13.55     0.66
  23      1.14025171    -0.45652474  -130.29641676    -0.00000000     0.00000000  0.28D-19  0.12D-18  6  4    14.14     0.66
  24      1.14025171    -0.45652474  -130.29641676     0.00000000    -0.00000000  0.30D-20  0.60D-20  6  5    14.76     0.66
  25      1.14025171    -0.45652474  -130.29641676    -0.00000000     0.00000000  0.33D-21  0.50D-21  6  6    15.37     0.66
  26      1.14025171    -0.45652474  -130.29641676     0.00000000    -0.00000000  0.13D-21  0.56D-22  6  1    15.96     0.66
  27      1.14025171    -0.45652474  -130.29641676    -0.00000000    -0.00000000  0.51D-22  0.16D-22  6  3    16.53     0.66

 Norm of t1 vector:      0.07701052      S-energy:     0.00000000      T1 diagnostic:  0.01571971
                                                                       D1 diagnostic:  0.04291981

 Doubles amplitudes (print threshold =  0.500E-01):

         I         J         SYM. A    SYM. B    A         B      T(IJ, AB)

         6         6         2         2         1         1     -0.13547630


 Total CPU time for triples:      6.31 sec


 RESULTS
 =======

  Reference energy                   -129.839892017482
  CCSD singlet pair energy             -0.313535883076
  CCSD triplet pair energy             -0.142988861277
  CCSD correlation energy              -0.456524744347

  Triples (T) contribution             -0.021189481410
  Total correlation energy             -0.477714225757

  CCSD total energy                  -130.296416761829
  CCSD[T] energy                     -130.318698106811
  CCSD-T energy                      -130.317193213256
 !CCSD(T) total energy               -130.317606243239

 Timing summary (sec):

 STEP                 CPU(USER)    SYS     CPU(TOT)    WALL
 Transformation          0.63      0.16      0.79      0.81
 CCSD iterations        15.90      1.91     17.81     17.81
 Triples                 6.31      0.23      6.54      6.54

 Program statistics:

 Available memory in ccsd:               994999756
 Min. memory needed in ccsd:                887758
 Max. memory used in ccsd:                 1088212
 Max. memory used in cckext:               1535578 (27 integral passes)



 **********************************************************************************************************************************
 DATASETS  * FILE   NREC   LENGTH (MB)   RECORD NAMES
              1      20      479.26       500      610      700      900      950      970     1000      129      960     1100   
                                          VAR    BASINP    GEOM    SYMINP    ZMAT    AOBASIS   BASIS     P2S    ABASIS      S 
                                         1400     1410     1200     1210     1080     1600     1650     1300     1700     1380   
                                           T        V       H0       H01     AOSYM     SMH    MOLCAS    ERIS     OPER     JKOP   

              2       4        3.13       700     1000      520     2100   
                                         GEOM     BASIS   MCVARS     RHF  

 PROGRAMS   *        TOTAL   CCSD(T)        HF       INT
 CPU TIMES  *        30.95     22.87      4.18      3.79
 REAL TIME  *        35.65 SEC
 DISK USED  *         1.33 GB      
 **********************************************************************************************************************************

 CCSD(T)/USERDEF energy=   -130.317606243239

        CCSD(T)         HF-SCF  
   -130.31760624   -129.83989202
 **********************************************************************************************************************************
 Molpro calculation terminated
 Variable memory released
