
 Primary working directories    : /tmp/r2666/282323.maple
 Secondary working directories  : /tmp/r2666/282323.maple
 Wavefunction directory         : /ddn/home4/r2666/wfu/
 Main file repository           : /tmp/r2666/282323.maple/

 SHA1      : d5ffa45e93fdbca01ffc919aa182cfdae0147319
 NAME      : 2015.1.35
 ARCHNAME  : linux/x86_64
 FC        : /opt/intel/composer_xe_2015.1.133/bin/intel64/ifort
 BLASLIB   : -Wl,-_start-group /opt/intel/mkl/lib/intel64/libmkl_intel_ilp64.a /opt/intel/mkl/lib/intel64/libmkl_intel_thread.a /opt/intel/mkl/lib/intel64/libmkl_core.a -Wl,-_end-group
 id        : olemiss

 Nodes     nprocs
 cn093        1

 Using customized tuning parameters: mindgm=1; mindgv=20; mindgc=4; mindgr=1; noblas=0; minvec=7
 default implementation of scratch files=df  

 ***,hno CCSD(T)/TZ-F12 QFF
 memory, 995, m;
 gthresh,energy=1.d-12,zero=1.d-22,oneint=1.d-22,twoint=1.d-22;
 gthresh,optgrad=1.d-8,optstep=1.d-8;
 nocompress;
 geomtyp=xyz
 bohr
 geometry={
 3
         91        91
 H        0.0000000000        1.6703834771       -1.9270583109
 N        0.0000000000       -0.1670878690       -1.1436521802
 O        0.0000000000        0.0384721819        1.1201209001
 }
 
 basis={
 default=aug-cc-pvtz
 s,C,8236.0,1235.0,280.8, 79.27,25.59, 8.997,3.319
 s,C,0.9059,0.3643,0.1285000
 p,C,56.0,18.71,4.133,0.2827,0.3827,0.1209
 d,C,30.0,10.0,3.3,1.097,0.318
 f,C,7.0,2.3,0.7610
 s,N,11420.0,1712.0,389.3,110.0,35.57,12.54,4.644
 s,N,1.293,0.5118,0.1787
 p,N,79.89,26.63,5.948,1.742,0.555,0.1725
 d,N,45.0,15.0,5.0,1.654,0.469
 f,N,9.9,3.3,1.093
 s,O,15330.0,2299.0,522.4,147.3,47.55,16.76,6.207
 s,O,1.752,0.6882,0.2384
 p,O,103.5,34.46,7.749,2.28,0.7156,0.214
 d,O,63.0,21.0,7.0,2.314,0.645
 f,O,12.9,4.3,1.428
 s,mg,164900.0,24710.0,5628.0,1596.0,521.0;
 s,mg,188.0,73.01,29.90,12.54,4.306,1.826;
 s,mg,0.7417,0.0761,0.145,0.033,0.0129;
 p,mg,950.70,316.90,74.86,23.72,8.669,3.363;
 p,mg,1.310,0.4911,0.2364,0.08733,0.03237,0.00745;
 d,mg,1.601,0.686,0.126,0.294,0.0468;
 f,mg,1.372,0.588,0.094,0.252;
 }
   {hf,maxit=500;accu,20;}
 {ccsd(t),nocheck,maxit=250;orbital,IGNORE_ERROR;}

 Variables initialized (889), CPU time= 0.00 sec
 Commands  initialized (702), CPU time= 0.01 sec, 572 directives.
 Default parameters read. Elapsed time= 0.04 sec

 Checking input...
 Passed
1


                                         ***  PROGRAM SYSTEM MOLPRO  ***
                                       Copyright, TTI GmbH Stuttgart, 2015
                                    Version 2015.1 linked Jul  9 2018 13:16:40


 **********************************************************************************************************************************
 LABEL *   hno CCSD(T)/TZ-F12 QFF                                                        
  64 bit serial version                                                                  DATE: 04-Mar-20          TIME: 13:48:07  
 **********************************************************************************************************************************

 SHA1:             d5ffa45e93fdbca01ffc919aa182cfdae0147319
 **********************************************************************************************************************************

 THRESHOLDS:

 ZERO    =  1.00D-22  ONEINT  =  1.00D-22  TWOINT  =  1.00D-22  PREFAC  =  1.00D-14  LOCALI  =  1.00D-09  EORDER  =  1.00D-04
 ENERGY  =  1.00D-12  ETEST   =  0.00D+00  EDENS   =  0.00D+00  THRDEDEF=  1.00D-06  GRADIENT=  1.00D-02  STEP    =  1.00D-03
 ORBITAL =  1.00D-05  CIVEC   =  1.00D-05  COEFF   =  1.00D-04  PRINTCI =  5.00D-02  PUNCHCI =  9.90D+01  OPTGRAD =  3.00D-04
 OPTENERG=  1.00D-06  OPTSTEP =  3.00D-04  THRGRAD =  1.00D-10  COMPRESS=  1.00D-11  VARMIN  =  1.00D-07  VARMAX  =  1.00D-03
 THRDOUB =  0.00D+00  THRDIV  =  1.00D-05  THRRED  =  1.00D-07  THRPSP  =  1.00D+00  THRDC   =  1.00D-10  THRCS   =  1.00D-10
 THRNRM  =  1.00D-08  THREQ   =  0.00D+00  THRDE   =  1.00D+00  THRREF  =  1.00D-05  SPARFAC =  1.00D+00  THRDLP  =  1.00D-07
 THRDIA  =  1.00D-10  THRDLS  =  1.00D-07  THRGPS  =  0.00D+00  THRKEX  =  0.00D+00  THRDIS  =  2.00D-01  THRVAR  =  1.00D-10
 THRLOC  =  1.00D-06  THRGAP  =  1.00D-06  THRLOCT = -1.00D+00  THRGAPT = -1.00D+00  THRORB  =  1.00D-06  THRMLTP =  0.00D+00
 THRCPQCI=  1.00D-10  KEXTA   =  0.00D+00  THRCOARS=  0.00D+00  SYMTOL  =  1.00D-06  GRADTOL =  1.00D-06  THROVL  =  1.00D-08
 THRORTH =  1.00D-08  GRID    =  1.00D-06  GRIDMAX =  1.00D-03  DTMAX   =  0.00D+00  THROCCDE=  1.00D-01  THROCCDE=  1.00D-01



 THRESHOLDS:

 ZERO    =  1.00D-22  ONEINT  =  1.00D-22  TWOINT  =  1.00D-22  PREFAC  =  1.00D-14  LOCALI  =  1.00D-09  EORDER  =  1.00D-04
 ENERGY  =  1.00D-12  ETEST   =  0.00D+00  EDENS   =  0.00D+00  THRDEDEF=  1.00D-06  GRADIENT=  1.00D-02  STEP    =  1.00D-03
 ORBITAL =  1.00D-05  CIVEC   =  1.00D-05  COEFF   =  1.00D-04  PRINTCI =  5.00D-02  PUNCHCI =  9.90D+01  OPTGRAD =  1.00D-08
 OPTENERG=  1.00D-06  OPTSTEP =  1.00D-08  THRGRAD =  1.00D-10  COMPRESS=  1.00D-11  VARMIN  =  1.00D-07  VARMAX  =  1.00D-03
 THRDOUB =  0.00D+00  THRDIV  =  1.00D-05  THRRED  =  1.00D-07  THRPSP  =  1.00D+00  THRDC   =  1.00D-10  THRCS   =  1.00D-10
 THRNRM  =  1.00D-08  THREQ   =  0.00D+00  THRDE   =  1.00D+00  THRREF  =  1.00D-05  SPARFAC =  1.00D+00  THRDLP  =  1.00D-07
 THRDIA  =  1.00D-10  THRDLS  =  1.00D-07  THRGPS  =  0.00D+00  THRKEX  =  0.00D+00  THRDIS  =  2.00D-01  THRVAR  =  1.00D-10
 THRLOC  =  1.00D-06  THRGAP  =  1.00D-06  THRLOCT = -1.00D+00  THRGAPT = -1.00D+00  THRORB  =  1.00D-06  THRMLTP =  0.00D+00
 THRCPQCI=  1.00D-10  KEXTA   =  0.00D+00  THRCOARS=  0.00D+00  SYMTOL  =  1.00D-06  GRADTOL =  1.00D-06  THROVL  =  1.00D-08
 THRORTH =  1.00D-08  GRID    =  1.00D-06  GRIDMAX =  1.00D-03  DTMAX   =  0.00D+00  THROCCDE=  1.00D-01  THROCCDE=  1.00D-01



 Input parameters for SORTINT:

 COMPRESS =    0.000000
 C_FINAL  =    1.000000
 DEBUG    =   -1.000000
 C_SORT1  =    0.000000
 C_SEWARD =    0.000000
 THRESH   =    0.000000
 IO       =  molpro                                                          
 SPRI     =    0.000000
 SETTING GEOMTYP        =    XYZ
 ZUNIT=BOHR
 

 Variable memory set to  995000000 words,  buffer space   230000 words

 SETTING BASIS          =    USERDEF


 Recomputing integrals since basis changed


 Using spherical harmonics

 Library entry H      S aug-cc-pVTZ          selected for orbital group  1
 Library entry H      P aug-cc-pVTZ          selected for orbital group  1
 Library entry H      D aug-cc-pVTZ          selected for orbital group  1


 PROGRAM * SEWARD (Integral evaluation for generally contracted gaussian basis sets)     Author: Roland Lindh, 1990

 Geometry written to block  1 of record 700


 Point group  Cs  



 ATOMIC COORDINATES

 NR  ATOM    CHARGE       X              Y              Z

   1  H       1.00    0.000000000    1.670383477   -1.927058311
   2  N       7.00    0.000000000   -0.167087869   -1.143652180
   3  O       8.00    0.000000000    0.038472182    1.120120900

 Bond lengths in Bohr (Angstrom)

 1-2  1.997504972  2-3  2.273086777
     ( 1.057034110)     ( 1.202865721)

 Bond angles

  1-2-3  107.90251459

 NUCLEAR CHARGE:                   16
 NUMBER OF PRIMITIVE AOS:         203
 NUMBER OF SYMMETRY AOS:          173
 NUMBER OF CONTRACTIONS:          171   ( 114A'  +  57A"  )
 NUMBER OF CORE ORBITALS:           2   (   2A'  +   0A"  )
 NUMBER OF VALENCE ORBITALS:        9   (   7A'  +   2A"  )


 NUCLEAR REPULSION ENERGY   30.45485368


 Eigenvalues of metric

         1 0.104E-02 0.245E-02 0.333E-02 0.637E-02 0.100E-01 0.137E-01 0.144E-01 0.231E-01
         2 0.369E-01 0.525E-01 0.700E-01 0.940E-01 0.131E+00 0.134E+00 0.141E+00 0.142E+00


 Contracted 2-electron integrals neglected if value below      1.0D-22

       46187893. INTEGRALS WRITTEN OUT IN   11280 BLOCKS ON RECORD 1290 OF FILE 1


 NUMBER OF SORTED TWO-ELECTRON INTEGRALS:   55360566.     BUFFER LENGTH:  32768
 NUMBER OF SEGMENTS:   4  SEGMENT LENGTH:   15997996      RECORD LENGTH: 524288

 Memory used in sort:      16.56 MW

 SORT1 READ    46187893. AND WROTE    46625806. INTEGRALS IN    136 RECORDS. CPU TIME:     0.73 SEC, REAL TIME:     1.02 SEC
 SORT2 READ    46625806. AND WROTE    55360566. INTEGRALS IN      4 RECORDS. CPU TIME:     0.67 SEC, REAL TIME:     0.86 SEC

 FILE SIZES:   FILE 1:   760.0 MBYTE,  FILE 4:   570.5 MBYTE,   TOTAL:   1330.4 MBYTE

 OPERATOR DM      FOR CENTER  0  COORDINATES:    0.000000    0.000000    0.000000


 **********************************************************************************************************************************
 DATASETS  * FILE   NREC   LENGTH (MB)   RECORD NAMES
              1      19      421.53       500      610      700      900      950      970     1000      129      960     1100   
                                          VAR    BASINP    GEOM    SYMINP    ZMAT    AOBASIS   BASIS     P2S    ABASIS      S 
                                         1400     1410     1200     1210     1080     1600     1650     1300     1700   
                                           T        V       H0       H01     AOSYM     SMH    MOLCAS    ERIS     OPER   

 PROGRAMS   *        TOTAL       INT
 CPU TIMES  *         4.01      3.91
 REAL TIME  *         5.39 SEC
 DISK USED  *         1.33 GB      
 **********************************************************************************************************************************


 PROGRAM * RHF-SCF (CLOSED SHELL)       Authors: W. Meyer, H.-J. Werner


 NUMBER OF ELECTRONS:       8+    8-
 CONVERGENCE THRESHOLDS:    1.00E-10 (Density)    1.00E-13 (Energy)
 MAX. NUMBER OF ITERATIONS:      500
 INTERPOLATION TYPE:            DIIS
 INTERPOLATION STEPS:              2 (START)      1 (STEP)
 LEVEL SHIFTS:                  0.00 (CLOSED)  0.00 (OPEN) 



 Orbital guess generated from atomic densities. Full valence occupancy:    9   2

 Molecular orbital dump at record        2100.2

 Initial occupancy:   7   1

 ITERATION    DDIFF          GRAD             ENERGY        2-EL.EN.            DIPOLE MOMENTS         DIIS   ORB.
    1      0.000D+00      0.000D+00      -129.79022988    154.211661    0.00000    0.56135   -0.99710    0    start
    2      0.000D+00      0.876D-02      -129.81729463    155.400511    0.00000    0.59381   -0.19548    1    diag
    3      0.361D-02      0.660D-02      -129.83947626    155.509148    0.00000    0.54098   -0.57441    2    diag
    4      0.140D-02      0.103D-02      -129.84024919    155.237777    0.00000    0.54931   -0.51303    3    diag
    5      0.328D-03      0.335D-03      -129.84036875    155.325710    0.00000    0.55538   -0.51555    4    diag
    6      0.153D-03      0.987D-04      -129.84038830    155.309613    0.00000    0.55597   -0.51150    5    diag
    7      0.607D-04      0.492D-04      -129.84039397    155.312233    0.00000    0.55733   -0.50906    6    diag
    8      0.410D-04      0.166D-04      -129.84039455    155.311424    0.00000    0.55739   -0.50818    7    diag
    9      0.138D-04      0.308D-05      -129.84039458    155.311314    0.00000    0.55734   -0.50800    8    diag
   10      0.278D-05      0.709D-06      -129.84039458    155.311300    0.00000    0.55731   -0.50798    9    orth
   11      0.843D-06      0.142D-06      -129.84039458    155.311296    0.00000    0.55730   -0.50797    9    diag
   12      0.202D-06      0.293D-07      -129.84039458    155.311295    0.00000    0.55730   -0.50797    9    diag
   13      0.498D-07      0.772D-08      -129.84039458    155.311294    0.00000    0.55730   -0.50797    9    diag
   14      0.115D-07      0.138D-08      -129.84039458    155.311294    0.00000    0.55729   -0.50797    9    diag
   15      0.153D-08      0.379D-09      -129.84039458    155.311294    0.00000    0.55729   -0.50797    9    diag
   16      0.336D-09      0.116D-09      -129.84039458    155.311294    0.00000    0.55729   -0.50797    9    diag
   17      0.864D-10      0.337D-10      -129.84039458    155.311294    0.00000    0.55729   -0.50797    0    orth

 Final occupancy:   7   1

 !RHF STATE 1.1 Energy               -129.840394577219
 Nuclear energy                        30.45485368
 One-electron energy                 -237.95089548
 Two-electron energy                   77.65564722
 Virial quotient                       -1.00152977
 !RHF STATE 1.1 Dipole moment           0.00000000     0.55729499    -0.50797136
 Dipole moment /Debye                   0.00000000     1.41640979    -1.29104986

 Orbital energies:

         1.1          2.1          3.1          4.1          5.1          6.1          7.1          8.1          9.1
    -20.650847   -15.710487    -1.532356    -0.990320    -0.746252    -0.665668    -0.427094     0.039789     0.192637

         1.2          2.2          3.2
     -0.596776     0.080950     0.239634

 HOMO      7.1    -0.427094 =     -11.6218eV
 LUMO      8.1     0.039789 =       1.0827eV
 LUMO-HOMO         0.466883 =      12.7045eV


 **********************************************************************************************************************************
 DATASETS  * FILE   NREC   LENGTH (MB)   RECORD NAMES
              1      19      421.53       500      610      700      900      950      970     1000      129      960     1100   
                                          VAR    BASINP    GEOM    SYMINP    ZMAT    AOBASIS   BASIS     P2S    ABASIS      S 
                                         1400     1410     1200     1210     1080     1600     1650     1300     1700   
                                           T        V       H0       H01     AOSYM     SMH    MOLCAS    ERIS     OPER   

              2       4        3.13       700     1000      520     2100   
                                         GEOM     BASIS   MCVARS     RHF  

 PROGRAMS   *        TOTAL        HF       INT
 CPU TIMES  *         8.25      4.25      3.91
 REAL TIME  *        10.60 SEC
 DISK USED  *         1.33 GB      
 **********************************************************************************************************************************


 PROGRAM * CCSD (Closed-shell coupled cluster)     Authors: C. Hampel, H.-J. Werner, 1991, M. Deegan, P.J. Knowles, 1992


 Convergence thresholds:  THRVAR = 1.00D-08  THRDEN = 1.00D-12

 CCSD(T)     terms to be evaluated (factor= 1.000)


 Number of core orbitals:           2 (   2   0 )
 Number of closed-shell orbitals:   6 (   5   1 )
 Number of external orbitals:     163 ( 107  56 )

 Molecular orbitals read from record     2100.2  Type=RHF/CANONICAL (state 1.1)

 Number of N-1 electron functions:               6
 Number of N-2 electron functions:              21
 Number of singly external CSFs:               591
 Number of doubly external CSFs:            250014
 Total number of CSFs:                      250606

 Length of J-op  integral file:               0.00 MB
 Length of K-op  integral file:               1.15 MB
 Length of 3-ext integral record:             0.00 MB

 Memory could be reduced to 19.93 Mwords without degradation in triples

 Integral transformation finished. Total CPU:   0.67 sec, npass=  1  Memory used:   5.10 MW

 Reference energy:                   -129.84039458

 MP2 singlet pair energy:              -0.28647275
 MP2 triplet pair energy:              -0.16691326
 MP2 correlation energy:               -0.45338601
 MP2 total energy:                   -130.29378059

 SCS-MP2 correlation energy:           -0.44762444   (PS=  1.200000  PT=  0.333333)
 SCS-MP2 total energy:               -130.28801902

 ITER.      SQ.NORM     CORR.ENERGY   TOTAL ENERGY   ENERGY CHANGE        DEN1      VAR(S)    VAR(P)  DIIS     TIME  TIME/IT
   1      1.11841818    -0.45569836  -130.29609294    -0.00231235     0.01426627  0.31D-02  0.30D-02  1  1     1.26     0.64
   2      1.12883842    -0.45565748  -130.29605206     0.00004088    -0.01240378  0.12D-03  0.49D-03  2  2     1.89     0.66
   3      1.13532263    -0.45602565  -130.29642023    -0.00036817    -0.00334534  0.43D-04  0.56D-04  3  3     2.48     0.66
   4      1.13813705    -0.45605667  -130.29645125    -0.00003102    -0.00093218  0.43D-05  0.94D-05  4  4     3.05     0.66
   5      1.13918616    -0.45608826  -130.29648283    -0.00003158    -0.00021445  0.13D-05  0.17D-05  5  5     3.65     0.66
   6      1.13957435    -0.45607305  -130.29646763     0.00001521    -0.00006432  0.12D-06  0.42D-06  6  6     4.24     0.67
   7      1.13964760    -0.45607442  -130.29646900    -0.00000137     0.00000811  0.18D-07  0.90D-07  6  1     4.82     0.67
   8      1.13968209    -0.45607402  -130.29646860     0.00000040    -0.00000453  0.48D-08  0.14D-07  6  2     5.42     0.67
   9      1.13968762    -0.45607390  -130.29646847     0.00000012     0.00000082  0.21D-08  0.16D-08  6  3     6.02     0.67
  10      1.13968799    -0.45607422  -130.29646880    -0.00000032    -0.00000019  0.47D-09  0.24D-09  6  4     6.61     0.67
  11      1.13968650    -0.45607435  -130.29646893    -0.00000013     0.00000034  0.11D-09  0.24D-10  6  5     7.17     0.67
  12      1.13968536    -0.45607450  -130.29646907    -0.00000014     0.00000046  0.15D-10  0.71D-11  6  6     7.77     0.67
  13      1.13968473    -0.45607452  -130.29646909    -0.00000002     0.00000012  0.58D-11  0.13D-11  6  1     8.37     0.67
  14      1.13968423    -0.45607454  -130.29646912    -0.00000003     0.00000011  0.54D-12  0.42D-12  6  3     8.96     0.67
  15      1.13968408    -0.45607454  -130.29646912     0.00000000     0.00000001  0.14D-12  0.29D-13  6  2     9.54     0.67
  16      1.13968403    -0.45607454  -130.29646912    -0.00000000     0.00000001  0.32D-13  0.72D-14  6  4    10.14     0.67
  17      1.13968401    -0.45607454  -130.29646912    -0.00000000     0.00000001  0.38D-14  0.12D-14  6  5    10.74     0.67
  18      1.13968401    -0.45607454  -130.29646912     0.00000000     0.00000000  0.41D-15  0.31D-15  6  6    11.34     0.68
  19      1.13968401    -0.45607454  -130.29646912     0.00000000    -0.00000000  0.55D-16  0.36D-16  6  1    11.92     0.68
  20      1.13968402    -0.45607454  -130.29646912     0.00000000    -0.00000000  0.30D-17  0.83D-17  6  3    12.51     0.67
  21      1.13968402    -0.45607454  -130.29646912     0.00000000    -0.00000000  0.47D-18  0.17D-17  6  4    13.09     0.67
  22      1.13968402    -0.45607454  -130.29646912     0.00000000    -0.00000000  0.14D-19  0.60D-18  6  2    13.69     0.67
  23      1.13968402    -0.45607454  -130.29646912    -0.00000000     0.00000000  0.36D-19  0.13D-18  6  5    14.27     0.67
  24      1.13968402    -0.45607454  -130.29646912    -0.00000000     0.00000000  0.42D-20  0.12D-19  6  1    14.88     0.68
  25      1.13968402    -0.45607454  -130.29646912     0.00000000    -0.00000000  0.17D-20  0.79D-21  6  6    15.47     0.68

 Norm of t1 vector:      0.07657509      S-energy:     0.00000000      T1 diagnostic:  0.01563083
                                                                       D1 diagnostic:  0.04231980

 Doubles amplitudes (print threshold =  0.500E-01):

         I         J         SYM. A    SYM. B    A         B      T(IJ, AB)

         6         6         2         2         1         1     -0.13387820


 Total CPU time for triples:      7.04 sec


 RESULTS
 =======

  Reference energy                   -129.840394577219
  CCSD singlet pair energy             -0.313140399531
  CCSD triplet pair energy             -0.142934144791
  CCSD correlation energy              -0.456074544317

  Triples (T) contribution             -0.021073268963
  Total correlation energy             -0.477147813280

  CCSD total energy                  -130.296469121536
  CCSD[T] energy                     -130.318619622508
  CCSD-T energy                      -130.317132505669
 !CCSD(T) total energy               -130.317542390499

 Timing summary (sec):

 STEP                 CPU(USER)    SYS     CPU(TOT)    WALL
 Transformation          0.67      0.14      0.81      0.83
 CCSD iterations        14.81      2.09     16.90     16.89
 Triples                 7.04      0.23      7.27      7.27

 Program statistics:

 Available memory in ccsd:               994999756
 Min. memory needed in ccsd:                887758
 Max. memory used in ccsd:                 1088212
 Max. memory used in cckext:               1535578 (25 integral passes)



 **********************************************************************************************************************************
 DATASETS  * FILE   NREC   LENGTH (MB)   RECORD NAMES
              1      20      479.49       500      610      700      900      950      970     1000      129      960     1100   
                                          VAR    BASINP    GEOM    SYMINP    ZMAT    AOBASIS   BASIS     P2S    ABASIS      S 
                                         1400     1410     1200     1210     1080     1600     1650     1300     1700     1380   
                                           T        V       H0       H01     AOSYM     SMH    MOLCAS    ERIS     OPER     JKOP   

              2       4        3.13       700     1000      520     2100   
                                         GEOM     BASIS   MCVARS     RHF  

 PROGRAMS   *        TOTAL   CCSD(T)        HF       INT
 CPU TIMES  *        30.80     22.55      4.25      3.91
 REAL TIME  *        36.31 SEC
 DISK USED  *         1.33 GB      
 **********************************************************************************************************************************

 CCSD(T)/USERDEF energy=   -130.317542390499

        CCSD(T)         HF-SCF  
   -130.31754239   -129.84039458
 **********************************************************************************************************************************
 Molpro calculation terminated
 Variable memory released
