
 Primary working directories    : /tmp/r2666/282267.maple
 Secondary working directories  : /tmp/r2666/282267.maple
 Wavefunction directory         : /ddn/home4/r2666/wfu/
 Main file repository           : /tmp/r2666/282267.maple/

 SHA1      : d5ffa45e93fdbca01ffc919aa182cfdae0147319
 NAME      : 2015.1.35
 ARCHNAME  : linux/x86_64
 FC        : /opt/intel/composer_xe_2015.1.133/bin/intel64/ifort
 BLASLIB   : -Wl,-_start-group /opt/intel/mkl/lib/intel64/libmkl_intel_ilp64.a /opt/intel/mkl/lib/intel64/libmkl_intel_thread.a /opt/intel/mkl/lib/intel64/libmkl_core.a -Wl,-_end-group
 id        : olemiss

 Nodes     nprocs
 cn095        1

 Using customized tuning parameters: mindgm=1; mindgv=20; mindgc=4; mindgr=1; noblas=0; minvec=7
 default implementation of scratch files=df  

 ***,hno CCSD(T)/TZ-F12 QFF
 memory, 995, m;
 gthresh,energy=1.d-12,zero=1.d-22,oneint=1.d-22,twoint=1.d-22;
 gthresh,optgrad=1.d-8,optstep=1.d-8;
 nocompress;
 geomtyp=xyz
 bohr
 geometry={
 3
         35        35
 H        0.0000000000        1.6627079651       -1.9326643469
 N        0.0000000000       -0.1529990570       -1.1464732199
 O        0.0000000000        0.0320588819        1.1285479758
 }
 
 basis={
 default=aug-cc-pvtz
 s,C,8236.0,1235.0,280.8, 79.27,25.59, 8.997,3.319
 s,C,0.9059,0.3643,0.1285000
 p,C,56.0,18.71,4.133,0.2827,0.3827,0.1209
 d,C,30.0,10.0,3.3,1.097,0.318
 f,C,7.0,2.3,0.7610
 s,N,11420.0,1712.0,389.3,110.0,35.57,12.54,4.644
 s,N,1.293,0.5118,0.1787
 p,N,79.89,26.63,5.948,1.742,0.555,0.1725
 d,N,45.0,15.0,5.0,1.654,0.469
 f,N,9.9,3.3,1.093
 s,O,15330.0,2299.0,522.4,147.3,47.55,16.76,6.207
 s,O,1.752,0.6882,0.2384
 p,O,103.5,34.46,7.749,2.28,0.7156,0.214
 d,O,63.0,21.0,7.0,2.314,0.645
 f,O,12.9,4.3,1.428
 s,mg,164900.0,24710.0,5628.0,1596.0,521.0;
 s,mg,188.0,73.01,29.90,12.54,4.306,1.826;
 s,mg,0.7417,0.0761,0.145,0.033,0.0129;
 p,mg,950.70,316.90,74.86,23.72,8.669,3.363;
 p,mg,1.310,0.4911,0.2364,0.08733,0.03237,0.00745;
 d,mg,1.601,0.686,0.126,0.294,0.0468;
 f,mg,1.372,0.588,0.094,0.252;
 }
   {hf,maxit=500;accu,20;}
 {ccsd(t),nocheck,maxit=250;orbital,IGNORE_ERROR;}

 Variables initialized (889), CPU time= 0.01 sec
 Commands  initialized (702), CPU time= 0.01 sec, 572 directives.
 Default parameters read. Elapsed time= 0.04 sec

 Checking input...
 Passed
1


                                         ***  PROGRAM SYSTEM MOLPRO  ***
                                       Copyright, TTI GmbH Stuttgart, 2015
                                    Version 2015.1 linked Jul  9 2018 13:16:40


 **********************************************************************************************************************************
 LABEL *   hno CCSD(T)/TZ-F12 QFF                                                        
  64 bit serial version                                                                  DATE: 04-Mar-20          TIME: 13:47:03  
 **********************************************************************************************************************************

 SHA1:             d5ffa45e93fdbca01ffc919aa182cfdae0147319
 **********************************************************************************************************************************

 THRESHOLDS:

 ZERO    =  1.00D-22  ONEINT  =  1.00D-22  TWOINT  =  1.00D-22  PREFAC  =  1.00D-14  LOCALI  =  1.00D-09  EORDER  =  1.00D-04
 ENERGY  =  1.00D-12  ETEST   =  0.00D+00  EDENS   =  0.00D+00  THRDEDEF=  1.00D-06  GRADIENT=  1.00D-02  STEP    =  1.00D-03
 ORBITAL =  1.00D-05  CIVEC   =  1.00D-05  COEFF   =  1.00D-04  PRINTCI =  5.00D-02  PUNCHCI =  9.90D+01  OPTGRAD =  3.00D-04
 OPTENERG=  1.00D-06  OPTSTEP =  3.00D-04  THRGRAD =  1.00D-10  COMPRESS=  1.00D-11  VARMIN  =  1.00D-07  VARMAX  =  1.00D-03
 THRDOUB =  0.00D+00  THRDIV  =  1.00D-05  THRRED  =  1.00D-07  THRPSP  =  1.00D+00  THRDC   =  1.00D-10  THRCS   =  1.00D-10
 THRNRM  =  1.00D-08  THREQ   =  0.00D+00  THRDE   =  1.00D+00  THRREF  =  1.00D-05  SPARFAC =  1.00D+00  THRDLP  =  1.00D-07
 THRDIA  =  1.00D-10  THRDLS  =  1.00D-07  THRGPS  =  0.00D+00  THRKEX  =  0.00D+00  THRDIS  =  2.00D-01  THRVAR  =  1.00D-10
 THRLOC  =  1.00D-06  THRGAP  =  1.00D-06  THRLOCT = -1.00D+00  THRGAPT = -1.00D+00  THRORB  =  1.00D-06  THRMLTP =  0.00D+00
 THRCPQCI=  1.00D-10  KEXTA   =  0.00D+00  THRCOARS=  0.00D+00  SYMTOL  =  1.00D-06  GRADTOL =  1.00D-06  THROVL  =  1.00D-08
 THRORTH =  1.00D-08  GRID    =  1.00D-06  GRIDMAX =  1.00D-03  DTMAX   =  0.00D+00  THROCCDE=  1.00D-01  THROCCDE=  1.00D-01



 THRESHOLDS:

 ZERO    =  1.00D-22  ONEINT  =  1.00D-22  TWOINT  =  1.00D-22  PREFAC  =  1.00D-14  LOCALI  =  1.00D-09  EORDER  =  1.00D-04
 ENERGY  =  1.00D-12  ETEST   =  0.00D+00  EDENS   =  0.00D+00  THRDEDEF=  1.00D-06  GRADIENT=  1.00D-02  STEP    =  1.00D-03
 ORBITAL =  1.00D-05  CIVEC   =  1.00D-05  COEFF   =  1.00D-04  PRINTCI =  5.00D-02  PUNCHCI =  9.90D+01  OPTGRAD =  1.00D-08
 OPTENERG=  1.00D-06  OPTSTEP =  1.00D-08  THRGRAD =  1.00D-10  COMPRESS=  1.00D-11  VARMIN  =  1.00D-07  VARMAX  =  1.00D-03
 THRDOUB =  0.00D+00  THRDIV  =  1.00D-05  THRRED  =  1.00D-07  THRPSP  =  1.00D+00  THRDC   =  1.00D-10  THRCS   =  1.00D-10
 THRNRM  =  1.00D-08  THREQ   =  0.00D+00  THRDE   =  1.00D+00  THRREF  =  1.00D-05  SPARFAC =  1.00D+00  THRDLP  =  1.00D-07
 THRDIA  =  1.00D-10  THRDLS  =  1.00D-07  THRGPS  =  0.00D+00  THRKEX  =  0.00D+00  THRDIS  =  2.00D-01  THRVAR  =  1.00D-10
 THRLOC  =  1.00D-06  THRGAP  =  1.00D-06  THRLOCT = -1.00D+00  THRGAPT = -1.00D+00  THRORB  =  1.00D-06  THRMLTP =  0.00D+00
 THRCPQCI=  1.00D-10  KEXTA   =  0.00D+00  THRCOARS=  0.00D+00  SYMTOL  =  1.00D-06  GRADTOL =  1.00D-06  THROVL  =  1.00D-08
 THRORTH =  1.00D-08  GRID    =  1.00D-06  GRIDMAX =  1.00D-03  DTMAX   =  0.00D+00  THROCCDE=  1.00D-01  THROCCDE=  1.00D-01



 Input parameters for SORTINT:

 COMPRESS =    0.000000
 C_FINAL  =    1.000000
 DEBUG    =   -1.000000
 C_SORT1  =    0.000000
 C_SEWARD =    0.000000
 THRESH   =    0.000000
 IO       =  molpro                                                          
 SPRI     =    0.000000
 SETTING GEOMTYP        =    XYZ
 ZUNIT=BOHR
 

 Variable memory set to  995000000 words,  buffer space   230000 words

 SETTING BASIS          =    USERDEF


 Recomputing integrals since basis changed


 Using spherical harmonics

 Library entry H      S aug-cc-pVTZ          selected for orbital group  1
 Library entry H      P aug-cc-pVTZ          selected for orbital group  1
 Library entry H      D aug-cc-pVTZ          selected for orbital group  1


 PROGRAM * SEWARD (Integral evaluation for generally contracted gaussian basis sets)     Author: Roland Lindh, 1990

 Geometry written to block  1 of record 700


 Point group  Cs  



 ATOMIC COORDINATES

 NR  ATOM    CHARGE       X              Y              Z

   1  H       1.00    0.000000000    1.662707965   -1.932664347
   2  N       7.00    0.000000000   -0.152999057   -1.146473220
   3  O       8.00    0.000000000    0.032058882    1.128547976

 Bond lengths in Bohr (Angstrom)

 1-2  1.978607712  2-3  2.282535406
     ( 1.047034111)     ( 1.207865720)

 Bond angles

  1-2-3  108.76195128

 NUCLEAR CHARGE:                   16
 NUMBER OF PRIMITIVE AOS:         203
 NUMBER OF SYMMETRY AOS:          173
 NUMBER OF CONTRACTIONS:          171   ( 114A'  +  57A"  )
 NUMBER OF CORE ORBITALS:           2   (   2A'  +   0A"  )
 NUMBER OF VALENCE ORBITALS:        9   (   7A'  +   2A"  )


 NUCLEAR REPULSION ENERGY   30.37847848


 Eigenvalues of metric

         1 0.103E-02 0.248E-02 0.332E-02 0.632E-02 0.968E-02 0.136E-01 0.144E-01 0.228E-01
         2 0.357E-01 0.531E-01 0.693E-01 0.942E-01 0.131E+00 0.134E+00 0.140E+00 0.142E+00


 Contracted 2-electron integrals neglected if value below      1.0D-22

       46150151. INTEGRALS WRITTEN OUT IN   11270 BLOCKS ON RECORD 1290 OF FILE 1


 NUMBER OF SORTED TWO-ELECTRON INTEGRALS:   55360566.     BUFFER LENGTH:  32768
 NUMBER OF SEGMENTS:   4  SEGMENT LENGTH:   15997996      RECORD LENGTH: 524288

 Memory used in sort:      16.56 MW

 SORT1 READ    46150151. AND WROTE    46587614. INTEGRALS IN    136 RECORDS. CPU TIME:     0.78 SEC, REAL TIME:     1.12 SEC
 SORT2 READ    46587614. AND WROTE    55360566. INTEGRALS IN      4 RECORDS. CPU TIME:     0.69 SEC, REAL TIME:     0.97 SEC

 FILE SIZES:   FILE 1:   759.3 MBYTE,  FILE 4:   570.5 MBYTE,   TOTAL:   1329.8 MBYTE

 OPERATOR DM      FOR CENTER  0  COORDINATES:    0.000000    0.000000    0.000000


 **********************************************************************************************************************************
 DATASETS  * FILE   NREC   LENGTH (MB)   RECORD NAMES
              1      19      421.28       500      610      700      900      950      970     1000      129      960     1100   
                                          VAR    BASINP    GEOM    SYMINP    ZMAT    AOBASIS   BASIS     P2S    ABASIS      S 
                                         1400     1410     1200     1210     1080     1600     1650     1300     1700   
                                           T        V       H0       H01     AOSYM     SMH    MOLCAS    ERIS     OPER   

 PROGRAMS   *        TOTAL       INT
 CPU TIMES  *         4.59      4.49
 REAL TIME  *         6.26 SEC
 DISK USED  *         1.33 GB      
 **********************************************************************************************************************************


 PROGRAM * RHF-SCF (CLOSED SHELL)       Authors: W. Meyer, H.-J. Werner


 NUMBER OF ELECTRONS:       8+    8-
 CONVERGENCE THRESHOLDS:    1.00E-10 (Density)    1.00E-13 (Energy)
 MAX. NUMBER OF ITERATIONS:      500
 INTERPOLATION TYPE:            DIIS
 INTERPOLATION STEPS:              2 (START)      1 (STEP)
 LEVEL SHIFTS:                  0.00 (CLOSED)  0.00 (OPEN) 



 Orbital guess generated from atomic densities. Full valence occupancy:    9   2

 Molecular orbital dump at record        2100.2

 Initial occupancy:   7   1

 ITERATION    DDIFF          GRAD             ENERGY        2-EL.EN.            DIPOLE MOMENTS         DIIS   ORB.
    1      0.000D+00      0.000D+00      -129.78972522    154.079475    0.00000    0.57783   -1.01405    0    start
    2      0.000D+00      0.876D-02      -129.81663280    155.250907    0.00000    0.59783   -0.20076    1    diag
    3      0.365D-02      0.663D-02      -129.83911520    155.372258    0.00000    0.55055   -0.58628    2    diag
    4      0.141D-02      0.104D-02      -129.83989902    155.098208    0.00000    0.55840   -0.52374    3    diag
    5      0.332D-03      0.336D-03      -129.84001825    155.186009    0.00000    0.56441   -0.52617    4    diag
    6      0.153D-03      0.982D-04      -129.84003761    155.170000    0.00000    0.56498   -0.52206    5    diag
    7      0.606D-04      0.493D-04      -129.84004332    155.172509    0.00000    0.56630   -0.51956    6    diag
    8      0.411D-04      0.169D-04      -129.84004394    155.171692    0.00000    0.56636   -0.51865    7    diag
    9      0.142D-04      0.314D-05      -129.84004396    155.171580    0.00000    0.56631   -0.51847    8    diag
   10      0.289D-05      0.720D-06      -129.84004397    155.171566    0.00000    0.56627   -0.51844    9    orth
   11      0.868D-06      0.143D-06      -129.84004397    155.171562    0.00000    0.56626   -0.51844    9    diag
   12      0.204D-06      0.295D-07      -129.84004397    155.171562    0.00000    0.56626   -0.51844    9    diag
   13      0.493D-07      0.778D-08      -129.84004397    155.171561    0.00000    0.56626   -0.51844    9    diag
   14      0.113D-07      0.137D-08      -129.84004397    155.171561    0.00000    0.56626   -0.51844    9    diag
   15      0.144D-08      0.367D-09      -129.84004397    155.171561    0.00000    0.56626   -0.51844    9    diag
   16      0.322D-09      0.107D-09      -129.84004397    155.171561    0.00000    0.56626   -0.51844    9    diag
   17      0.716D-10      0.289D-10      -129.84004397    155.171561    0.00000    0.56626   -0.51844    9    diag
   18      0.222D-10      0.961D-11      -129.84004397    155.171561    0.00000    0.56626   -0.51844    9    diag
   19      0.900D-11      0.229D-11      -129.84004397    155.171561    0.00000    0.56626   -0.51844    9    fixocc
   20      0.223D-11      0.644D-12      -129.84004397    155.171561    0.00000    0.56626   -0.51844    0    orth

 Final occupancy:   7   1

 !RHF STATE 1.1 Energy               -129.840043965521
 Nuclear energy                        30.37847848
 One-electron energy                 -237.80430309
 Two-electron energy                   77.58578065
 Virial quotient                       -1.00158677
 !RHF STATE 1.1 Dipole moment           0.00000000     0.56626119    -0.51843912
 Dipole moment /Debye                   0.00000000     1.43919811    -1.31765450

 Orbital energies:

         1.1          2.1          3.1          4.1          5.1          6.1          7.1          8.1          9.1
    -20.651312   -15.709805    -1.527888    -0.994516    -0.745750    -0.664371    -0.428621     0.039678     0.193210

         1.2          2.2          3.2
     -0.594107     0.078975     0.239638

 HOMO      7.1    -0.428621 =     -11.6634eV
 LUMO      8.1     0.039678 =       1.0797eV
 LUMO-HOMO         0.468300 =      12.7431eV


 **********************************************************************************************************************************
 DATASETS  * FILE   NREC   LENGTH (MB)   RECORD NAMES
              1      19      421.28       500      610      700      900      950      970     1000      129      960     1100   
                                          VAR    BASINP    GEOM    SYMINP    ZMAT    AOBASIS   BASIS     P2S    ABASIS      S 
                                         1400     1410     1200     1210     1080     1600     1650     1300     1700   
                                           T        V       H0       H01     AOSYM     SMH    MOLCAS    ERIS     OPER   

              2       4        3.13       700     1000      520     2100   
                                         GEOM     BASIS   MCVARS     RHF  

 PROGRAMS   *        TOTAL        HF       INT
 CPU TIMES  *        10.25      5.65      4.49
 REAL TIME  *        13.03 SEC
 DISK USED  *         1.33 GB      
 **********************************************************************************************************************************


 PROGRAM * CCSD (Closed-shell coupled cluster)     Authors: C. Hampel, H.-J. Werner, 1991, M. Deegan, P.J. Knowles, 1992


 Convergence thresholds:  THRVAR = 1.00D-08  THRDEN = 1.00D-12

 CCSD(T)     terms to be evaluated (factor= 1.000)


 Number of core orbitals:           2 (   2   0 )
 Number of closed-shell orbitals:   6 (   5   1 )
 Number of external orbitals:     163 ( 107  56 )

 Molecular orbitals read from record     2100.2  Type=RHF/CANONICAL (state 1.1)

 Number of N-1 electron functions:               6
 Number of N-2 electron functions:              21
 Number of singly external CSFs:               591
 Number of doubly external CSFs:            250014
 Total number of CSFs:                      250606

 Length of J-op  integral file:               0.00 MB
 Length of K-op  integral file:               1.15 MB
 Length of 3-ext integral record:             0.00 MB

 Memory could be reduced to 19.93 Mwords without degradation in triples

 Integral transformation finished. Total CPU:   0.83 sec, npass=  1  Memory used:   5.10 MW

 Reference energy:                   -129.84004397

 MP2 singlet pair energy:              -0.28674805
 MP2 triplet pair energy:              -0.16711510
 MP2 correlation energy:               -0.45386315
 MP2 total energy:                   -130.29390711

 SCS-MP2 correlation energy:           -0.44808039   (PS=  1.200000  PT=  0.333333)
 SCS-MP2 total energy:               -130.28812435

 ITER.      SQ.NORM     CORR.ENERGY   TOTAL ENERGY   ENERGY CHANGE        DEN1      VAR(S)    VAR(P)  DIIS     TIME  TIME/IT
   1      1.11863485    -0.45601371  -130.29605767    -0.00215056     0.01457014  0.32D-02  0.31D-02  1  1     1.55     0.76
   2      1.12912767    -0.45593450  -130.29597846     0.00007921    -0.01248373  0.12D-03  0.49D-03  2  2     2.24     0.78
   3      1.13566514    -0.45630476  -130.29634873    -0.00037027    -0.00335636  0.44D-04  0.57D-04  3  3     2.94     0.78
   4      1.13852792    -0.45633709  -130.29638105    -0.00003232    -0.00094245  0.44D-05  0.97D-05  4  4     3.58     0.77
   5      1.13960378    -0.45636911  -130.29641308    -0.00003203    -0.00021964  0.13D-05  0.18D-05  5  5     4.18     0.75
   6      1.14000039    -0.45635345  -130.29639742     0.00001566    -0.00006567  0.12D-06  0.43D-06  6  6     4.90     0.76
   7      1.14007347    -0.45635503  -130.29639900    -0.00000158     0.00000852  0.16D-07  0.95D-07  6  1     5.62     0.77
   8      1.14010817    -0.45635464  -130.29639860     0.00000039    -0.00000462  0.50D-08  0.15D-07  6  2     6.33     0.77
   9      1.14011351    -0.45635453  -130.29639849     0.00000011     0.00000093  0.22D-08  0.17D-08  6  3     7.06     0.78
  10      1.14011387    -0.45635486  -130.29639882    -0.00000033    -0.00000023  0.50D-09  0.26D-09  6  4     7.80     0.78
  11      1.14011234    -0.45635499  -130.29639896    -0.00000014     0.00000034  0.12D-09  0.26D-10  6  5     8.56     0.78
  12      1.14011118    -0.45635514  -130.29639911    -0.00000015     0.00000047  0.16D-10  0.75D-11  6  6     9.29     0.79
  13      1.14011053    -0.45635516  -130.29639913    -0.00000002     0.00000012  0.59D-11  0.14D-11  6  1    10.04     0.79
  14      1.14011002    -0.45635519  -130.29639916    -0.00000003     0.00000012  0.55D-12  0.44D-12  6  3    10.79     0.79
  15      1.14010987    -0.45635519  -130.29639916     0.00000000     0.00000001  0.14D-12  0.31D-13  6  2    11.54     0.80
  16      1.14010982    -0.45635519  -130.29639916    -0.00000000     0.00000001  0.32D-13  0.74D-14  6  4    12.28     0.80
  17      1.14010979    -0.45635519  -130.29639916    -0.00000000     0.00000001  0.41D-14  0.12D-14  6  5    13.05     0.80
  18      1.14010979    -0.45635519  -130.29639916     0.00000000     0.00000000  0.46D-15  0.31D-15  6  6    13.81     0.80
  19      1.14010980    -0.45635519  -130.29639916     0.00000000    -0.00000000  0.60D-16  0.39D-16  6  1    14.56     0.80
  20      1.14010980    -0.45635519  -130.29639916     0.00000000    -0.00000000  0.31D-17  0.91D-17  6  3    15.34     0.81
  21      1.14010980    -0.45635519  -130.29639916     0.00000000    -0.00000000  0.51D-18  0.19D-17  6  4    16.11     0.81
  22      1.14010980    -0.45635519  -130.29639916     0.00000000    -0.00000000  0.18D-19  0.67D-18  6  2    16.87     0.81
  23      1.14010980    -0.45635519  -130.29639916    -0.00000000     0.00000000  0.53D-19  0.14D-18  6  5    17.60     0.81
  24      1.14010980    -0.45635519  -130.29639916    -0.00000000     0.00000000  0.48D-20  0.13D-19  6  1    18.37     0.81
  25      1.14010980    -0.45635519  -130.29639916     0.00000000    -0.00000000  0.21D-20  0.91D-21  6  6    19.11     0.82

 Norm of t1 vector:      0.07710911      S-energy:     0.00000000      T1 diagnostic:  0.01573983
                                                                       D1 diagnostic:  0.04301321

 Doubles amplitudes (print threshold =  0.500E-01):

         I         J         SYM. A    SYM. B    A         B      T(IJ, AB)

         6         6         2         2         1         1     -0.13535495


 Total CPU time for triples:      8.47 sec


 RESULTS
 =======

  Reference energy                   -129.840043965522
  CCSD singlet pair energy             -0.313393994233
  CCSD triplet pair energy             -0.142961198550
  CCSD correlation energy              -0.456355192783

  Triples (T) contribution             -0.021166971122
  Total correlation energy             -0.477522163905

  CCSD total energy                  -130.296399158304
  CCSD[T] energy                     -130.318658867252
  CCSD-T energy                      -130.317153556903
 !CCSD(T) total energy               -130.317566129427

 Timing summary (sec):

 STEP                 CPU(USER)    SYS     CPU(TOT)    WALL
 Transformation          0.83      0.15      0.98      0.98
 CCSD iterations        18.29      2.10     20.39     20.39
 Triples                 8.47      0.28      8.75      8.75

 Program statistics:

 Available memory in ccsd:               994999756
 Min. memory needed in ccsd:                887758
 Max. memory used in ccsd:                 1088212
 Max. memory used in cckext:               1535578 (25 integral passes)



 **********************************************************************************************************************************
 DATASETS  * FILE   NREC   LENGTH (MB)   RECORD NAMES
              1      20      479.23       500      610      700      900      950      970     1000      129      960     1100   
                                          VAR    BASINP    GEOM    SYMINP    ZMAT    AOBASIS   BASIS     P2S    ABASIS      S 
                                         1400     1410     1200     1210     1080     1600     1650     1300     1700     1380   
                                           T        V       H0       H01     AOSYM     SMH    MOLCAS    ERIS     OPER     JKOP   

              2       4        3.13       700     1000      520     2100   
                                         GEOM     BASIS   MCVARS     RHF  

 PROGRAMS   *        TOTAL   CCSD(T)        HF       INT
 CPU TIMES  *        37.88     27.62      5.65      4.49
 REAL TIME  *        43.23 SEC
 DISK USED  *         1.33 GB      
 **********************************************************************************************************************************

 CCSD(T)/USERDEF energy=   -130.317566129427

        CCSD(T)         HF-SCF  
   -130.31756613   -129.84004397
 **********************************************************************************************************************************
 Molpro calculation terminated
 Variable memory released
