
 Primary working directories    : /tmp/r2666/282269.maple
 Secondary working directories  : /tmp/r2666/282269.maple
 Wavefunction directory         : /ddn/home4/r2666/wfu/
 Main file repository           : /tmp/r2666/282269.maple/

 SHA1      : d5ffa45e93fdbca01ffc919aa182cfdae0147319
 NAME      : 2015.1.35
 ARCHNAME  : linux/x86_64
 FC        : /opt/intel/composer_xe_2015.1.133/bin/intel64/ifort
 BLASLIB   : -Wl,-_start-group /opt/intel/mkl/lib/intel64/libmkl_intel_ilp64.a /opt/intel/mkl/lib/intel64/libmkl_intel_thread.a /opt/intel/mkl/lib/intel64/libmkl_core.a -Wl,-_end-group
 id        : olemiss

 Nodes     nprocs
 cn089        1

 Using customized tuning parameters: mindgm=1; mindgv=20; mindgc=4; mindgr=1; noblas=0; minvec=7
 default implementation of scratch files=df  

 ***,hno CCSD(T)/TZ-F12 QFF
 memory, 995, m;
 gthresh,energy=1.d-12,zero=1.d-22,oneint=1.d-22,twoint=1.d-22;
 gthresh,optgrad=1.d-8,optstep=1.d-8;
 nocompress;
 geomtyp=xyz
 bohr
 geometry={
 3
         37        37
 H        0.0000000000        1.6626528405       -1.9206412104
 N        0.0000000000       -0.1624103316       -1.1564207603
 O        0.0000000000        0.0415252811        1.1264723797
 }
 
 basis={
 default=aug-cc-pvtz
 s,C,8236.0,1235.0,280.8, 79.27,25.59, 8.997,3.319
 s,C,0.9059,0.3643,0.1285000
 p,C,56.0,18.71,4.133,0.2827,0.3827,0.1209
 d,C,30.0,10.0,3.3,1.097,0.318
 f,C,7.0,2.3,0.7610
 s,N,11420.0,1712.0,389.3,110.0,35.57,12.54,4.644
 s,N,1.293,0.5118,0.1787
 p,N,79.89,26.63,5.948,1.742,0.555,0.1725
 d,N,45.0,15.0,5.0,1.654,0.469
 f,N,9.9,3.3,1.093
 s,O,15330.0,2299.0,522.4,147.3,47.55,16.76,6.207
 s,O,1.752,0.6882,0.2384
 p,O,103.5,34.46,7.749,2.28,0.7156,0.214
 d,O,63.0,21.0,7.0,2.314,0.645
 f,O,12.9,4.3,1.428
 s,mg,164900.0,24710.0,5628.0,1596.0,521.0;
 s,mg,188.0,73.01,29.90,12.54,4.306,1.826;
 s,mg,0.7417,0.0761,0.145,0.033,0.0129;
 p,mg,950.70,316.90,74.86,23.72,8.669,3.363;
 p,mg,1.310,0.4911,0.2364,0.08733,0.03237,0.00745;
 d,mg,1.601,0.686,0.126,0.294,0.0468;
 f,mg,1.372,0.588,0.094,0.252;
 }
   {hf,maxit=500;accu,20;}
 {ccsd(t),nocheck,maxit=250;orbital,IGNORE_ERROR;}

 Variables initialized (889), CPU time= 0.01 sec
 Commands  initialized (702), CPU time= 0.01 sec, 572 directives.
 Default parameters read. Elapsed time= 0.06 sec

 Checking input...
 Passed
1


                                         ***  PROGRAM SYSTEM MOLPRO  ***
                                       Copyright, TTI GmbH Stuttgart, 2015
                                    Version 2015.1 linked Jul  9 2018 13:16:40


 **********************************************************************************************************************************
 LABEL *   hno CCSD(T)/TZ-F12 QFF                                                        
  64 bit serial version                                                                  DATE: 04-Mar-20          TIME: 13:47:02  
 **********************************************************************************************************************************

 SHA1:             d5ffa45e93fdbca01ffc919aa182cfdae0147319
 **********************************************************************************************************************************

 THRESHOLDS:

 ZERO    =  1.00D-22  ONEINT  =  1.00D-22  TWOINT  =  1.00D-22  PREFAC  =  1.00D-14  LOCALI  =  1.00D-09  EORDER  =  1.00D-04
 ENERGY  =  1.00D-12  ETEST   =  0.00D+00  EDENS   =  0.00D+00  THRDEDEF=  1.00D-06  GRADIENT=  1.00D-02  STEP    =  1.00D-03
 ORBITAL =  1.00D-05  CIVEC   =  1.00D-05  COEFF   =  1.00D-04  PRINTCI =  5.00D-02  PUNCHCI =  9.90D+01  OPTGRAD =  3.00D-04
 OPTENERG=  1.00D-06  OPTSTEP =  3.00D-04  THRGRAD =  1.00D-10  COMPRESS=  1.00D-11  VARMIN  =  1.00D-07  VARMAX  =  1.00D-03
 THRDOUB =  0.00D+00  THRDIV  =  1.00D-05  THRRED  =  1.00D-07  THRPSP  =  1.00D+00  THRDC   =  1.00D-10  THRCS   =  1.00D-10
 THRNRM  =  1.00D-08  THREQ   =  0.00D+00  THRDE   =  1.00D+00  THRREF  =  1.00D-05  SPARFAC =  1.00D+00  THRDLP  =  1.00D-07
 THRDIA  =  1.00D-10  THRDLS  =  1.00D-07  THRGPS  =  0.00D+00  THRKEX  =  0.00D+00  THRDIS  =  2.00D-01  THRVAR  =  1.00D-10
 THRLOC  =  1.00D-06  THRGAP  =  1.00D-06  THRLOCT = -1.00D+00  THRGAPT = -1.00D+00  THRORB  =  1.00D-06  THRMLTP =  0.00D+00
 THRCPQCI=  1.00D-10  KEXTA   =  0.00D+00  THRCOARS=  0.00D+00  SYMTOL  =  1.00D-06  GRADTOL =  1.00D-06  THROVL  =  1.00D-08
 THRORTH =  1.00D-08  GRID    =  1.00D-06  GRIDMAX =  1.00D-03  DTMAX   =  0.00D+00  THROCCDE=  1.00D-01  THROCCDE=  1.00D-01



 THRESHOLDS:

 ZERO    =  1.00D-22  ONEINT  =  1.00D-22  TWOINT  =  1.00D-22  PREFAC  =  1.00D-14  LOCALI  =  1.00D-09  EORDER  =  1.00D-04
 ENERGY  =  1.00D-12  ETEST   =  0.00D+00  EDENS   =  0.00D+00  THRDEDEF=  1.00D-06  GRADIENT=  1.00D-02  STEP    =  1.00D-03
 ORBITAL =  1.00D-05  CIVEC   =  1.00D-05  COEFF   =  1.00D-04  PRINTCI =  5.00D-02  PUNCHCI =  9.90D+01  OPTGRAD =  1.00D-08
 OPTENERG=  1.00D-06  OPTSTEP =  1.00D-08  THRGRAD =  1.00D-10  COMPRESS=  1.00D-11  VARMIN  =  1.00D-07  VARMAX  =  1.00D-03
 THRDOUB =  0.00D+00  THRDIV  =  1.00D-05  THRRED  =  1.00D-07  THRPSP  =  1.00D+00  THRDC   =  1.00D-10  THRCS   =  1.00D-10
 THRNRM  =  1.00D-08  THREQ   =  0.00D+00  THRDE   =  1.00D+00  THRREF  =  1.00D-05  SPARFAC =  1.00D+00  THRDLP  =  1.00D-07
 THRDIA  =  1.00D-10  THRDLS  =  1.00D-07  THRGPS  =  0.00D+00  THRKEX  =  0.00D+00  THRDIS  =  2.00D-01  THRVAR  =  1.00D-10
 THRLOC  =  1.00D-06  THRGAP  =  1.00D-06  THRLOCT = -1.00D+00  THRGAPT = -1.00D+00  THRORB  =  1.00D-06  THRMLTP =  0.00D+00
 THRCPQCI=  1.00D-10  KEXTA   =  0.00D+00  THRCOARS=  0.00D+00  SYMTOL  =  1.00D-06  GRADTOL =  1.00D-06  THROVL  =  1.00D-08
 THRORTH =  1.00D-08  GRID    =  1.00D-06  GRIDMAX =  1.00D-03  DTMAX   =  0.00D+00  THROCCDE=  1.00D-01  THROCCDE=  1.00D-01



 Input parameters for SORTINT:

 COMPRESS =    0.000000
 C_FINAL  =    1.000000
 DEBUG    =   -1.000000
 C_SORT1  =    0.000000
 C_SEWARD =    0.000000
 THRESH   =    0.000000
 IO       =  molpro                                                          
 SPRI     =    0.000000
 SETTING GEOMTYP        =    XYZ
 ZUNIT=BOHR
 

 Variable memory set to  995000000 words,  buffer space   230000 words

 SETTING BASIS          =    USERDEF


 Recomputing integrals since basis changed


 Using spherical harmonics

 Library entry H      S aug-cc-pVTZ          selected for orbital group  1
 Library entry H      P aug-cc-pVTZ          selected for orbital group  1
 Library entry H      D aug-cc-pVTZ          selected for orbital group  1


 PROGRAM * SEWARD (Integral evaluation for generally contracted gaussian basis sets)     Author: Roland Lindh, 1990

 Geometry written to block  1 of record 700


 Point group  Cs  



 ATOMIC COORDINATES

 NR  ATOM    CHARGE       X              Y              Z

   1  H       1.00    0.000000000    1.662652841   -1.920641210
   2  N       7.00    0.000000000   -0.162410332   -1.156420760
   3  O       8.00    0.000000000    0.041525281    1.126472380

 Bond lengths in Bohr (Angstrom)

 1-2  1.978607712  2-3  2.291984036
     ( 1.047034111)     ( 1.212865720)

 Bond angles

  1-2-3  107.61603570

 NUCLEAR CHARGE:                   16
 NUMBER OF PRIMITIVE AOS:         203
 NUMBER OF SYMMETRY AOS:          173
 NUMBER OF CONTRACTIONS:          171   ( 114A'  +  57A"  )
 NUMBER OF CORE ORBITALS:           2   (   2A'  +   0A"  )
 NUMBER OF VALENCE ORBITALS:        9   (   7A'  +   2A"  )


 NUCLEAR REPULSION ENERGY   30.28864396


 Eigenvalues of metric

         1 0.104E-02 0.253E-02 0.333E-02 0.635E-02 0.969E-02 0.137E-01 0.145E-01 0.229E-01
         2 0.358E-01 0.538E-01 0.700E-01 0.941E-01 0.131E+00 0.134E+00 0.140E+00 0.142E+00


 Contracted 2-electron integrals neglected if value below      1.0D-22

       46131332. INTEGRALS WRITTEN OUT IN   11266 BLOCKS ON RECORD 1290 OF FILE 1


 NUMBER OF SORTED TWO-ELECTRON INTEGRALS:   55360566.     BUFFER LENGTH:  32768
 NUMBER OF SEGMENTS:   4  SEGMENT LENGTH:   15997996      RECORD LENGTH: 524288

 Memory used in sort:      16.56 MW

 SORT1 READ    46131332. AND WROTE    46568673. INTEGRALS IN    136 RECORDS. CPU TIME:     0.75 SEC, REAL TIME:     0.99 SEC
 SORT2 READ    46568673. AND WROTE    55360566. INTEGRALS IN      4 RECORDS. CPU TIME:     0.62 SEC, REAL TIME:     0.83 SEC

 FILE SIZES:   FILE 1:   759.1 MBYTE,  FILE 4:   570.5 MBYTE,   TOTAL:   1329.5 MBYTE

 OPERATOR DM      FOR CENTER  0  COORDINATES:    0.000000    0.000000    0.000000


 **********************************************************************************************************************************
 DATASETS  * FILE   NREC   LENGTH (MB)   RECORD NAMES
              1      19      421.15       500      610      700      900      950      970     1000      129      960     1100   
                                          VAR    BASINP    GEOM    SYMINP    ZMAT    AOBASIS   BASIS     P2S    ABASIS      S 
                                         1400     1410     1200     1210     1080     1600     1650     1300     1700   
                                           T        V       H0       H01     AOSYM     SMH    MOLCAS    ERIS     OPER   

 PROGRAMS   *        TOTAL       INT
 CPU TIMES  *         3.99      3.89
 REAL TIME  *         5.31 SEC
 DISK USED  *         1.33 GB      
 **********************************************************************************************************************************


 PROGRAM * RHF-SCF (CLOSED SHELL)       Authors: W. Meyer, H.-J. Werner


 NUMBER OF ELECTRONS:       8+    8-
 CONVERGENCE THRESHOLDS:    1.00E-10 (Density)    1.00E-13 (Energy)
 MAX. NUMBER OF ITERATIONS:      500
 INTERPOLATION TYPE:            DIIS
 INTERPOLATION STEPS:              2 (START)      1 (STEP)
 LEVEL SHIFTS:                  0.00 (CLOSED)  0.00 (OPEN) 



 Orbital guess generated from atomic densities. Full valence occupancy:    9   2

 Molecular orbital dump at record        2100.2

 Initial occupancy:   7   1

 ITERATION    DDIFF          GRAD             ENERGY        2-EL.EN.            DIPOLE MOMENTS         DIIS   ORB.
    1      0.000D+00      0.000D+00      -129.78817466    153.923652    0.00000    0.57002   -1.02736    0    start
    2      0.000D+00      0.882D-02      -129.81494127    155.079881    0.00000    0.60138   -0.19316    1    diag
    3      0.368D-02      0.676D-02      -129.83836792    155.213349    0.00000    0.54822   -0.58901    2    diag
    4      0.143D-02      0.104D-02      -129.83915918    154.936146    0.00000    0.55652   -0.52593    3    diag
    5      0.333D-03      0.339D-03      -129.83928065    155.024068    0.00000    0.56242   -0.52818    4    diag
    6      0.154D-03      0.993D-04      -129.83930047    155.007965    0.00000    0.56296   -0.52398    5    diag
    7      0.608D-04      0.501D-04      -129.83930640    155.010428    0.00000    0.56426   -0.52139    6    diag
    8      0.414D-04      0.174D-04      -129.83930707    155.009578    0.00000    0.56431   -0.52045    7    diag
    9      0.147D-04      0.324D-05      -129.83930710    155.009463    0.00000    0.56426   -0.52026    8    diag
   10      0.302D-05      0.728D-06      -129.83930710    155.009450    0.00000    0.56422   -0.52023    9    orth
   11      0.879D-06      0.144D-06      -129.83930710    155.009446    0.00000    0.56421   -0.52023    9    diag
   12      0.206D-06      0.303D-07      -129.83930710    155.009445    0.00000    0.56421   -0.52023    9    diag
   13      0.504D-07      0.809D-08      -129.83930710    155.009445    0.00000    0.56421   -0.52023    9    diag
   14      0.116D-07      0.141D-08      -129.83930710    155.009445    0.00000    0.56421   -0.52023    9    diag
   15      0.142D-08      0.374D-09      -129.83930710    155.009445    0.00000    0.56421   -0.52023    9    diag
   16      0.323D-09      0.107D-09      -129.83930710    155.009445    0.00000    0.56421   -0.52023    9    diag
   17      0.680D-10      0.283D-10      -129.83930710    155.009445    0.00000    0.56421   -0.52023    9    diag
   18      0.197D-10      0.919D-11      -129.83930710    155.009445    0.00000    0.56421   -0.52023    0    orth

 Final occupancy:   7   1

 !RHF STATE 1.1 Energy               -129.839307098845
 Nuclear energy                        30.28864396
 One-electron energy                 -237.63267363
 Two-electron energy                   77.50472257
 Virial quotient                       -1.00170203
 !RHF STATE 1.1 Dipole moment           0.00000000     0.56421001    -0.52022775
 Dipole moment /Debye                   0.00000000     1.43398488    -1.32220045

 Orbital energies:

         1.1          2.1          3.1          4.1          5.1          6.1          7.1          8.1          9.1
    -20.651514   -15.710872    -1.524417    -0.994969    -0.744288    -0.662725    -0.430926     0.039721     0.193062

         1.2          2.2          3.2
     -0.591904     0.077497     0.239366

 HOMO      7.1    -0.430926 =     -11.7261eV
 LUMO      8.1     0.039721 =       1.0809eV
 LUMO-HOMO         0.470646 =      12.8069eV


 **********************************************************************************************************************************
 DATASETS  * FILE   NREC   LENGTH (MB)   RECORD NAMES
              1      19      421.15       500      610      700      900      950      970     1000      129      960     1100   
                                          VAR    BASINP    GEOM    SYMINP    ZMAT    AOBASIS   BASIS     P2S    ABASIS      S 
                                         1400     1410     1200     1210     1080     1600     1650     1300     1700   
                                           T        V       H0       H01     AOSYM     SMH    MOLCAS    ERIS     OPER   

              2       4        3.13       700     1000      520     2100   
                                         GEOM     BASIS   MCVARS     RHF  

 PROGRAMS   *        TOTAL        HF       INT
 CPU TIMES  *         8.37      4.37      3.89
 REAL TIME  *        10.62 SEC
 DISK USED  *         1.33 GB      
 **********************************************************************************************************************************


 PROGRAM * CCSD (Closed-shell coupled cluster)     Authors: C. Hampel, H.-J. Werner, 1991, M. Deegan, P.J. Knowles, 1992


 Convergence thresholds:  THRVAR = 1.00D-08  THRDEN = 1.00D-12

 CCSD(T)     terms to be evaluated (factor= 1.000)


 Number of core orbitals:           2 (   2   0 )
 Number of closed-shell orbitals:   6 (   5   1 )
 Number of external orbitals:     163 ( 107  56 )

 Molecular orbitals read from record     2100.2  Type=RHF/CANONICAL (state 1.1)

 Number of N-1 electron functions:               6
 Number of N-2 electron functions:              21
 Number of singly external CSFs:               591
 Number of doubly external CSFs:            250014
 Total number of CSFs:                      250606

 Length of J-op  integral file:               0.00 MB
 Length of K-op  integral file:               1.15 MB
 Length of 3-ext integral record:             0.00 MB

 Memory could be reduced to 19.93 Mwords without degradation in triples

 Integral transformation finished. Total CPU:   0.66 sec, npass=  1  Memory used:   5.10 MW

 Reference energy:                   -129.83930710

 MP2 singlet pair energy:              -0.28725840
 MP2 triplet pair energy:              -0.16745548
 MP2 correlation energy:               -0.45471388
 MP2 total energy:                   -130.29402098

 SCS-MP2 correlation energy:           -0.44890460   (PS=  1.200000  PT=  0.333333)
 SCS-MP2 total energy:               -130.28821170

 ITER.      SQ.NORM     CORR.ENERGY   TOTAL ENERGY   ENERGY CHANGE        DEN1      VAR(S)    VAR(P)  DIIS     TIME  TIME/IT
   1      1.11914631    -0.45667301  -130.29598011    -0.00195913     0.01495665  0.32D-02  0.31D-02  1  1     1.24     0.63
   2      1.12974599    -0.45655515  -130.29586224     0.00011786    -0.01259940  0.12D-03  0.50D-03  2  2     1.83     0.64
   3      1.13636081    -0.45692933  -130.29623643    -0.00037418    -0.00338604  0.44D-04  0.58D-04  3  3     2.41     0.65
   4      1.13926630    -0.45696280  -130.29626990    -0.00003347    -0.00095394  0.44D-05  0.98D-05  4  4     3.01     0.65
   5      1.14036003    -0.45699547  -130.29630257    -0.00003267    -0.00022421  0.13D-05  0.17D-05  5  5     3.59     0.65
   6      1.14075823    -0.45697942  -130.29628652     0.00001605    -0.00006632  0.12D-06  0.42D-06  6  6     4.16     0.65
   7      1.14082906    -0.45698104  -130.29628814    -0.00000162     0.00000888  0.16D-07  0.94D-07  6  1     4.76     0.65
   8      1.14086344    -0.45698056  -130.29628766     0.00000047    -0.00000471  0.48D-08  0.15D-07  6  2     5.33     0.65
   9      1.14086842    -0.45698046  -130.29628756     0.00000010     0.00000109  0.21D-08  0.17D-08  6  3     5.92     0.65
  10      1.14086889    -0.45698078  -130.29628788    -0.00000032    -0.00000030  0.49D-09  0.26D-09  6  4     6.52     0.65
  11      1.14086739    -0.45698092  -130.29628802    -0.00000014     0.00000034  0.12D-09  0.26D-10  6  5     7.08     0.65
  12      1.14086626    -0.45698107  -130.29628817    -0.00000015     0.00000046  0.15D-10  0.73D-11  6  6     7.65     0.66
  13      1.14086562    -0.45698109  -130.29628819    -0.00000002     0.00000012  0.55D-11  0.13D-11  6  1     8.24     0.66
  14      1.14086512    -0.45698111  -130.29628821    -0.00000003     0.00000011  0.52D-12  0.43D-12  6  3     8.79     0.66
  15      1.14086497    -0.45698111  -130.29628821     0.00000000     0.00000001  0.13D-12  0.31D-13  6  2     9.39     0.66
  16      1.14086492    -0.45698112  -130.29628821    -0.00000000     0.00000001  0.31D-13  0.73D-14  6  4    10.00     0.66
  17      1.14086489    -0.45698112  -130.29628822    -0.00000000     0.00000001  0.41D-14  0.12D-14  6  5    10.61     0.66
  18      1.14086489    -0.45698112  -130.29628822     0.00000000     0.00000000  0.47D-15  0.32D-15  6  6    11.20     0.66
  19      1.14086490    -0.45698112  -130.29628822     0.00000000    -0.00000000  0.63D-16  0.43D-16  6  1    11.79     0.66
  20      1.14086490    -0.45698112  -130.29628822     0.00000000    -0.00000000  0.31D-17  0.10D-16  6  3    12.38     0.66
  21      1.14086490    -0.45698112  -130.29628822     0.00000000    -0.00000000  0.51D-18  0.23D-17  6  4    12.97     0.66
  22      1.14086490    -0.45698112  -130.29628822     0.00000000    -0.00000000  0.26D-19  0.81D-18  6  2    13.53     0.66
  23      1.14086490    -0.45698112  -130.29628822    -0.00000000     0.00000000  0.64D-19  0.16D-18  6  5    14.11     0.66
  24      1.14086490    -0.45698112  -130.29628822    -0.00000000     0.00000000  0.45D-20  0.15D-19  6  1    14.69     0.66
  25      1.14086490    -0.45698112  -130.29628822     0.00000000    -0.00000000  0.22D-20  0.10D-20  6  6    15.27     0.66

 Norm of t1 vector:      0.07756072      S-energy:     0.00000000      T1 diagnostic:  0.01583202
                                                                       D1 diagnostic:  0.04355319

 Doubles amplitudes (print threshold =  0.500E-01):

         I         J         SYM. A    SYM. B    A         B      T(IJ, AB)

         6         6         2         2         1         1     -0.13703357


 Total CPU time for triples:      6.43 sec


 RESULTS
 =======

  Reference energy                   -129.839307098845
  CCSD singlet pair energy             -0.313937441889
  CCSD triplet pair energy             -0.143043674808
  CCSD correlation energy              -0.456981116696

  Triples (T) contribution             -0.021310982427
  Total correlation energy             -0.478292099123

  CCSD total energy                  -130.296288215541
  CCSD[T] energy                     -130.318707897546
  CCSD-T energy                      -130.317182529251
 !CCSD(T) total energy               -130.317599197968

 Timing summary (sec):

 STEP                 CPU(USER)    SYS     CPU(TOT)    WALL
 Transformation          0.67      0.11      0.78      0.78
 CCSD iterations        14.60      1.84     16.44     16.45
 Triples                 6.43      0.20      6.63      6.62

 Program statistics:

 Available memory in ccsd:               994999756
 Min. memory needed in ccsd:                887758
 Max. memory used in ccsd:                 1088212
 Max. memory used in cckext:               1535578 (25 integral passes)



 **********************************************************************************************************************************
 DATASETS  * FILE   NREC   LENGTH (MB)   RECORD NAMES
              1      20      479.10       500      610      700      900      950      970     1000      129      960     1100   
                                          VAR    BASINP    GEOM    SYMINP    ZMAT    AOBASIS   BASIS     P2S    ABASIS      S 
                                         1400     1410     1200     1210     1080     1600     1650     1300     1700     1380   
                                           T        V       H0       H01     AOSYM     SMH    MOLCAS    ERIS     OPER     JKOP   

              2       4        3.13       700     1000      520     2100   
                                         GEOM     BASIS   MCVARS     RHF  

 PROGRAMS   *        TOTAL   CCSD(T)        HF       INT
 CPU TIMES  *        30.11     21.75      4.37      3.89
 REAL TIME  *        35.59 SEC
 DISK USED  *         1.33 GB      
 **********************************************************************************************************************************

 CCSD(T)/USERDEF energy=   -130.317599197968

        CCSD(T)         HF-SCF  
   -130.31759920   -129.83930710
 **********************************************************************************************************************************
 Molpro calculation terminated
 Variable memory released
