
 Primary working directories    : /tmp/r2666/282239.maple
 Secondary working directories  : /tmp/r2666/282239.maple
 Wavefunction directory         : /ddn/home4/r2666/wfu/
 Main file repository           : /tmp/r2666/282239.maple/

 SHA1      : d5ffa45e93fdbca01ffc919aa182cfdae0147319
 NAME      : 2015.1.35
 ARCHNAME  : linux/x86_64
 FC        : /opt/intel/composer_xe_2015.1.133/bin/intel64/ifort
 BLASLIB   : -Wl,-_start-group /opt/intel/mkl/lib/intel64/libmkl_intel_ilp64.a /opt/intel/mkl/lib/intel64/libmkl_intel_thread.a /opt/intel/mkl/lib/intel64/libmkl_core.a -Wl,-_end-group
 id        : olemiss

 Nodes     nprocs
 cn089        1

 Using customized tuning parameters: mindgm=1; mindgv=20; mindgc=4; mindgr=1; noblas=0; minvec=7
 default implementation of scratch files=df  

 ***,hno CCSD(T)/TZ-F12 QFF
 memory, 995, m;
 gthresh,energy=1.d-12,zero=1.d-22,oneint=1.d-22,twoint=1.d-22;
 gthresh,optgrad=1.d-8,optstep=1.d-8;
 nocompress;
 geomtyp=xyz
 bohr
 geometry={
 3
          7         7
 H        0.0000000000        1.6539914510       -1.9206087434
 N        0.0000000000       -0.1508514330       -1.1570596483
 O        0.0000000000        0.0386277721        1.1270788007
 }
 
 basis={
 default=aug-cc-pvtz
 s,C,8236.0,1235.0,280.8, 79.27,25.59, 8.997,3.319
 s,C,0.9059,0.3643,0.1285000
 p,C,56.0,18.71,4.133,0.2827,0.3827,0.1209
 d,C,30.0,10.0,3.3,1.097,0.318
 f,C,7.0,2.3,0.7610
 s,N,11420.0,1712.0,389.3,110.0,35.57,12.54,4.644
 s,N,1.293,0.5118,0.1787
 p,N,79.89,26.63,5.948,1.742,0.555,0.1725
 d,N,45.0,15.0,5.0,1.654,0.469
 f,N,9.9,3.3,1.093
 s,O,15330.0,2299.0,522.4,147.3,47.55,16.76,6.207
 s,O,1.752,0.6882,0.2384
 p,O,103.5,34.46,7.749,2.28,0.7156,0.214
 d,O,63.0,21.0,7.0,2.314,0.645
 f,O,12.9,4.3,1.428
 s,mg,164900.0,24710.0,5628.0,1596.0,521.0;
 s,mg,188.0,73.01,29.90,12.54,4.306,1.826;
 s,mg,0.7417,0.0761,0.145,0.033,0.0129;
 p,mg,950.70,316.90,74.86,23.72,8.669,3.363;
 p,mg,1.310,0.4911,0.2364,0.08733,0.03237,0.00745;
 d,mg,1.601,0.686,0.126,0.294,0.0468;
 f,mg,1.372,0.588,0.094,0.252;
 }
   {hf,maxit=500;accu,20;}
 {ccsd(t),nocheck,maxit=250;orbital,IGNORE_ERROR;}

 Variables initialized (889), CPU time= 0.00 sec
 Commands  initialized (702), CPU time= 0.02 sec, 572 directives.
 Default parameters read. Elapsed time= 0.06 sec

 Checking input...
 Passed
1


                                         ***  PROGRAM SYSTEM MOLPRO  ***
                                       Copyright, TTI GmbH Stuttgart, 2015
                                    Version 2015.1 linked Jul  9 2018 13:16:40


 **********************************************************************************************************************************
 LABEL *   hno CCSD(T)/TZ-F12 QFF                                                        
  64 bit serial version                                                                  DATE: 04-Mar-20          TIME: 13:46:51  
 **********************************************************************************************************************************

 SHA1:             d5ffa45e93fdbca01ffc919aa182cfdae0147319
 **********************************************************************************************************************************

 THRESHOLDS:

 ZERO    =  1.00D-22  ONEINT  =  1.00D-22  TWOINT  =  1.00D-22  PREFAC  =  1.00D-14  LOCALI  =  1.00D-09  EORDER  =  1.00D-04
 ENERGY  =  1.00D-12  ETEST   =  0.00D+00  EDENS   =  0.00D+00  THRDEDEF=  1.00D-06  GRADIENT=  1.00D-02  STEP    =  1.00D-03
 ORBITAL =  1.00D-05  CIVEC   =  1.00D-05  COEFF   =  1.00D-04  PRINTCI =  5.00D-02  PUNCHCI =  9.90D+01  OPTGRAD =  3.00D-04
 OPTENERG=  1.00D-06  OPTSTEP =  3.00D-04  THRGRAD =  1.00D-10  COMPRESS=  1.00D-11  VARMIN  =  1.00D-07  VARMAX  =  1.00D-03
 THRDOUB =  0.00D+00  THRDIV  =  1.00D-05  THRRED  =  1.00D-07  THRPSP  =  1.00D+00  THRDC   =  1.00D-10  THRCS   =  1.00D-10
 THRNRM  =  1.00D-08  THREQ   =  0.00D+00  THRDE   =  1.00D+00  THRREF  =  1.00D-05  SPARFAC =  1.00D+00  THRDLP  =  1.00D-07
 THRDIA  =  1.00D-10  THRDLS  =  1.00D-07  THRGPS  =  0.00D+00  THRKEX  =  0.00D+00  THRDIS  =  2.00D-01  THRVAR  =  1.00D-10
 THRLOC  =  1.00D-06  THRGAP  =  1.00D-06  THRLOCT = -1.00D+00  THRGAPT = -1.00D+00  THRORB  =  1.00D-06  THRMLTP =  0.00D+00
 THRCPQCI=  1.00D-10  KEXTA   =  0.00D+00  THRCOARS=  0.00D+00  SYMTOL  =  1.00D-06  GRADTOL =  1.00D-06  THROVL  =  1.00D-08
 THRORTH =  1.00D-08  GRID    =  1.00D-06  GRIDMAX =  1.00D-03  DTMAX   =  0.00D+00  THROCCDE=  1.00D-01  THROCCDE=  1.00D-01



 THRESHOLDS:

 ZERO    =  1.00D-22  ONEINT  =  1.00D-22  TWOINT  =  1.00D-22  PREFAC  =  1.00D-14  LOCALI  =  1.00D-09  EORDER  =  1.00D-04
 ENERGY  =  1.00D-12  ETEST   =  0.00D+00  EDENS   =  0.00D+00  THRDEDEF=  1.00D-06  GRADIENT=  1.00D-02  STEP    =  1.00D-03
 ORBITAL =  1.00D-05  CIVEC   =  1.00D-05  COEFF   =  1.00D-04  PRINTCI =  5.00D-02  PUNCHCI =  9.90D+01  OPTGRAD =  1.00D-08
 OPTENERG=  1.00D-06  OPTSTEP =  1.00D-08  THRGRAD =  1.00D-10  COMPRESS=  1.00D-11  VARMIN  =  1.00D-07  VARMAX  =  1.00D-03
 THRDOUB =  0.00D+00  THRDIV  =  1.00D-05  THRRED  =  1.00D-07  THRPSP  =  1.00D+00  THRDC   =  1.00D-10  THRCS   =  1.00D-10
 THRNRM  =  1.00D-08  THREQ   =  0.00D+00  THRDE   =  1.00D+00  THRREF  =  1.00D-05  SPARFAC =  1.00D+00  THRDLP  =  1.00D-07
 THRDIA  =  1.00D-10  THRDLS  =  1.00D-07  THRGPS  =  0.00D+00  THRKEX  =  0.00D+00  THRDIS  =  2.00D-01  THRVAR  =  1.00D-10
 THRLOC  =  1.00D-06  THRGAP  =  1.00D-06  THRLOCT = -1.00D+00  THRGAPT = -1.00D+00  THRORB  =  1.00D-06  THRMLTP =  0.00D+00
 THRCPQCI=  1.00D-10  KEXTA   =  0.00D+00  THRCOARS=  0.00D+00  SYMTOL  =  1.00D-06  GRADTOL =  1.00D-06  THROVL  =  1.00D-08
 THRORTH =  1.00D-08  GRID    =  1.00D-06  GRIDMAX =  1.00D-03  DTMAX   =  0.00D+00  THROCCDE=  1.00D-01  THROCCDE=  1.00D-01



 Input parameters for SORTINT:

 COMPRESS =    0.000000
 C_FINAL  =    1.000000
 DEBUG    =   -1.000000
 C_SORT1  =    0.000000
 C_SEWARD =    0.000000
 THRESH   =    0.000000
 IO       =  molpro                                                          
 SPRI     =    0.000000
 SETTING GEOMTYP        =    XYZ
 ZUNIT=BOHR
 

 Variable memory set to  995000000 words,  buffer space   230000 words

 SETTING BASIS          =    USERDEF


 Recomputing integrals since basis changed


 Using spherical harmonics

 Library entry H      S aug-cc-pVTZ          selected for orbital group  1
 Library entry H      P aug-cc-pVTZ          selected for orbital group  1
 Library entry H      D aug-cc-pVTZ          selected for orbital group  1


 PROGRAM * SEWARD (Integral evaluation for generally contracted gaussian basis sets)     Author: Roland Lindh, 1990

 Geometry written to block  1 of record 700


 Point group  Cs  



 ATOMIC COORDINATES

 NR  ATOM    CHARGE       X              Y              Z

   1  H       1.00    0.000000000    1.653991451   -1.920608743
   2  N       7.00    0.000000000   -0.150851433   -1.157059648
   3  O       8.00    0.000000000    0.038627772    1.127078801

 Bond lengths in Bohr (Angstrom)

 1-2  1.959710452  2-3  2.291984036
     ( 1.037034111)     ( 1.212865720)

 Bond angles

  1-2-3  108.18899349

 NUCLEAR CHARGE:                   16
 NUMBER OF PRIMITIVE AOS:         203
 NUMBER OF SYMMETRY AOS:          173
 NUMBER OF CONTRACTIONS:          171   ( 114A'  +  57A"  )
 NUMBER OF CORE ORBITALS:           2   (   2A'  +   0A"  )
 NUMBER OF VALENCE ORBITALS:        9   (   7A'  +   2A"  )


 NUCLEAR REPULSION ENERGY   30.32423482


 Eigenvalues of metric

         1 0.102E-02 0.252E-02 0.330E-02 0.627E-02 0.936E-02 0.136E-01 0.145E-01 0.225E-01
         2 0.346E-01 0.537E-01 0.691E-01 0.941E-01 0.131E+00 0.134E+00 0.139E+00 0.142E+00


 Contracted 2-electron integrals neglected if value below      1.0D-22

       46129022. INTEGRALS WRITTEN OUT IN   11265 BLOCKS ON RECORD 1290 OF FILE 1


 NUMBER OF SORTED TWO-ELECTRON INTEGRALS:   55360566.     BUFFER LENGTH:  32768
 NUMBER OF SEGMENTS:   4  SEGMENT LENGTH:   15997996      RECORD LENGTH: 524288

 Memory used in sort:      16.56 MW

 SORT1 READ    46129022. AND WROTE    46566332. INTEGRALS IN    136 RECORDS. CPU TIME:     0.74 SEC, REAL TIME:     1.00 SEC
 SORT2 READ    46566332. AND WROTE    55360566. INTEGRALS IN      4 RECORDS. CPU TIME:     0.62 SEC, REAL TIME:     0.84 SEC

 FILE SIZES:   FILE 1:   759.0 MBYTE,  FILE 4:   570.5 MBYTE,   TOTAL:   1329.5 MBYTE

 OPERATOR DM      FOR CENTER  0  COORDINATES:    0.000000    0.000000    0.000000


 **********************************************************************************************************************************
 DATASETS  * FILE   NREC   LENGTH (MB)   RECORD NAMES
              1      19      421.13       500      610      700      900      950      970     1000      129      960     1100   
                                          VAR    BASINP    GEOM    SYMINP    ZMAT    AOBASIS   BASIS     P2S    ABASIS      S 
                                         1400     1410     1200     1210     1080     1600     1650     1300     1700   
                                           T        V       H0       H01     AOSYM     SMH    MOLCAS    ERIS     OPER   

 PROGRAMS   *        TOTAL       INT
 CPU TIMES  *         3.99      3.89
 REAL TIME  *         5.35 SEC
 DISK USED  *         1.33 GB      
 **********************************************************************************************************************************


 PROGRAM * RHF-SCF (CLOSED SHELL)       Authors: W. Meyer, H.-J. Werner


 NUMBER OF ELECTRONS:       8+    8-
 CONVERGENCE THRESHOLDS:    1.00E-10 (Density)    1.00E-13 (Energy)
 MAX. NUMBER OF ITERATIONS:      500
 INTERPOLATION TYPE:            DIIS
 INTERPOLATION STEPS:              2 (START)      1 (STEP)
 LEVEL SHIFTS:                  0.00 (CLOSED)  0.00 (OPEN) 



 Orbital guess generated from atomic densities. Full valence occupancy:    9   2

 Molecular orbital dump at record        2100.2

 Initial occupancy:   7   1

 ITERATION    DDIFF          GRAD             ENERGY        2-EL.EN.            DIPOLE MOMENTS         DIIS   ORB.
    1      0.000D+00      0.000D+00      -129.78895889    153.990797    0.00000    0.58132   -1.02686    0    start
    2      0.000D+00      0.877D-02      -129.81572624    155.139202    0.00000    0.60190   -0.19962    1    diag
    3      0.370D-02      0.669D-02      -129.83862536    155.274403    0.00000    0.55390   -0.59209    2    diag
    4      0.142D-02      0.105D-02      -129.83941668    154.998270    0.00000    0.56197   -0.52880    3    diag
    5      0.335D-03      0.337D-03      -129.83953606    155.085560    0.00000    0.56779   -0.53105    4    diag
    6      0.153D-03      0.981D-04      -129.83955537    155.069614    0.00000    0.56833   -0.52688    5    diag
    7      0.605D-04      0.496D-04      -129.83956118    155.072021    0.00000    0.56960   -0.52430    6    diag
    8      0.413D-04      0.172D-04      -129.83956183    155.071184    0.00000    0.56965   -0.52336    7    diag
    9      0.146D-04      0.320D-05      -129.83956186    155.071072    0.00000    0.56960   -0.52317    8    diag
   10      0.300D-05      0.721D-06      -129.83956186    155.071060    0.00000    0.56956   -0.52315    9    orth
   11      0.884D-06      0.142D-06      -129.83956186    155.071056    0.00000    0.56956   -0.52314    9    diag
   12      0.205D-06      0.298D-07      -129.83956186    155.071056    0.00000    0.56955   -0.52314    9    diag
   13      0.494D-07      0.792D-08      -129.83956186    155.071055    0.00000    0.56955   -0.52314    9    diag
   14      0.112D-07      0.138D-08      -129.83956186    155.071055    0.00000    0.56955   -0.52314    9    diag
   15      0.137D-08      0.366D-09      -129.83956186    155.071055    0.00000    0.56955   -0.52314    9    diag
   16      0.317D-09      0.105D-09      -129.83956186    155.071055    0.00000    0.56955   -0.52314    9    diag
   17      0.630D-10      0.269D-10      -129.83956186    155.071055    0.00000    0.56955   -0.52314    9    diag
   18      0.177D-10      0.851D-11      -129.83956186    155.071055    0.00000    0.56955   -0.52314    9    diag
   19      0.652D-11      0.182D-11      -129.83956186    155.071055    0.00000    0.56955   -0.52314    0    orth

 Final occupancy:   7   1

 !RHF STATE 1.1 Energy               -129.839561860283
 Nuclear energy                        30.32423482
 One-electron energy                 -237.69932439
 Two-electron energy                   77.53552771
 Virial quotient                       -1.00159543
 !RHF STATE 1.1 Dipole moment           0.00000000     0.56955349    -0.52314110
 Dipole moment /Debye                   0.00000000     1.44756577    -1.32960497

 Orbital energies:

         1.1          2.1          3.1          4.1          5.1          6.1          7.1          8.1          9.1
    -20.651483   -15.709419    -1.524266    -0.997930    -0.745364    -0.662844    -0.431132     0.039721     0.193893

         1.2          2.2          3.2
     -0.591696     0.077329     0.239500

 HOMO      7.1    -0.431132 =     -11.7317eV
 LUMO      8.1     0.039721 =       1.0809eV
 LUMO-HOMO         0.470853 =      12.8126eV


 **********************************************************************************************************************************
 DATASETS  * FILE   NREC   LENGTH (MB)   RECORD NAMES
              1      19      421.13       500      610      700      900      950      970     1000      129      960     1100   
                                          VAR    BASINP    GEOM    SYMINP    ZMAT    AOBASIS   BASIS     P2S    ABASIS      S 
                                         1400     1410     1200     1210     1080     1600     1650     1300     1700   
                                           T        V       H0       H01     AOSYM     SMH    MOLCAS    ERIS     OPER   

              2       4        3.13       700     1000      520     2100   
                                         GEOM     BASIS   MCVARS     RHF  

 PROGRAMS   *        TOTAL        HF       INT
 CPU TIMES  *         8.71      4.72      3.89
 REAL TIME  *        11.11 SEC
 DISK USED  *         1.33 GB      
 **********************************************************************************************************************************


 PROGRAM * CCSD (Closed-shell coupled cluster)     Authors: C. Hampel, H.-J. Werner, 1991, M. Deegan, P.J. Knowles, 1992


 Convergence thresholds:  THRVAR = 1.00D-08  THRDEN = 1.00D-12

 CCSD(T)     terms to be evaluated (factor= 1.000)


 Number of core orbitals:           2 (   2   0 )
 Number of closed-shell orbitals:   6 (   5   1 )
 Number of external orbitals:     163 ( 107  56 )

 Molecular orbitals read from record     2100.2  Type=RHF/CANONICAL (state 1.1)

 Number of N-1 electron functions:               6
 Number of N-2 electron functions:              21
 Number of singly external CSFs:               591
 Number of doubly external CSFs:            250014
 Total number of CSFs:                      250606

 Length of J-op  integral file:               0.00 MB
 Length of K-op  integral file:               1.15 MB
 Length of 3-ext integral record:             0.00 MB

 Memory could be reduced to 19.93 Mwords without degradation in triples

 Integral transformation finished. Total CPU:   0.72 sec, npass=  1  Memory used:   5.10 MW

 Reference energy:                   -129.83956186

 MP2 singlet pair energy:              -0.28703585
 MP2 triplet pair energy:              -0.16732453
 MP2 correlation energy:               -0.45436038
 MP2 total energy:                   -130.29392224

 SCS-MP2 correlation energy:           -0.44855606   (PS=  1.200000  PT=  0.333333)
 SCS-MP2 total energy:               -130.28811792

 ITER.      SQ.NORM     CORR.ENERGY   TOTAL ENERGY   ENERGY CHANGE        DEN1      VAR(S)    VAR(P)  DIIS     TIME  TIME/IT
   1      1.11883123    -0.45634469  -130.29590655    -0.00198430     0.01485514  0.32D-02  0.31D-02  1  1     1.31     0.64
   2      1.12937787    -0.45623128  -130.29579314     0.00011340    -0.01255155  0.12D-03  0.50D-03  2  2     1.88     0.65
   3      1.13594498    -0.45660040  -130.29616226    -0.00036912    -0.00336546  0.43D-04  0.58D-04  3  3     2.46     0.66
   4      1.13883837    -0.45663476  -130.29619662    -0.00003436    -0.00094821  0.43D-05  0.98D-05  4  4     3.05     0.66
   5      1.13992415    -0.45666679  -130.29622865    -0.00003203    -0.00022258  0.12D-05  0.18D-05  5  5     3.64     0.66
   6      1.14032051    -0.45665085  -130.29621271     0.00001593    -0.00006593  0.11D-06  0.44D-06  6  6     4.22     0.66
   7      1.14039080    -0.45665263  -130.29621449    -0.00000177     0.00000897  0.14D-07  0.96D-07  6  1     4.84     0.66
   8      1.14042495    -0.45665221  -130.29621407     0.00000042    -0.00000466  0.51D-08  0.15D-07  6  2     5.43     0.66
   9      1.14042966    -0.45665213  -130.29621399     0.00000008     0.00000112  0.22D-08  0.17D-08  6  3     6.04     0.66
  10      1.14043010    -0.45665245  -130.29621431    -0.00000032    -0.00000031  0.50D-09  0.26D-09  6  4     6.62     0.67
  11      1.14042860    -0.45665258  -130.29621444    -0.00000014     0.00000034  0.12D-09  0.26D-10  6  5     7.22     0.67
  12      1.14042748    -0.45665273  -130.29621459    -0.00000015     0.00000046  0.15D-10  0.73D-11  6  6     7.80     0.67
  13      1.14042685    -0.45665275  -130.29621461    -0.00000002     0.00000012  0.54D-11  0.13D-11  6  1     8.39     0.67
  14      1.14042636    -0.45665278  -130.29621464    -0.00000003     0.00000011  0.50D-12  0.43D-12  6  3     8.99     0.67
  15      1.14042620    -0.45665278  -130.29621464     0.00000000     0.00000001  0.12D-12  0.31D-13  6  2     9.57     0.67
  16      1.14042615    -0.45665278  -130.29621464    -0.00000000     0.00000001  0.29D-13  0.72D-14  6  4    10.12     0.67
  17      1.14042613    -0.45665278  -130.29621464    -0.00000000     0.00000001  0.40D-14  0.11D-14  6  5    10.73     0.67
  18      1.14042613    -0.45665278  -130.29621464     0.00000000     0.00000000  0.47D-15  0.31D-15  6  6    11.31     0.67
  19      1.14042613    -0.45665278  -130.29621464     0.00000000    -0.00000000  0.62D-16  0.42D-16  6  1    11.91     0.67
  20      1.14042613    -0.45665278  -130.29621464     0.00000000    -0.00000000  0.30D-17  0.10D-16  6  3    12.50     0.67
  21      1.14042613    -0.45665278  -130.29621464     0.00000000    -0.00000000  0.51D-18  0.22D-17  6  4    13.06     0.67
  22      1.14042613    -0.45665278  -130.29621464     0.00000000    -0.00000000  0.39D-19  0.78D-18  6  2    13.67     0.67
  23      1.14042613    -0.45665278  -130.29621464    -0.00000000     0.00000000  0.36D-19  0.13D-18  6  4    14.24     0.67
  24      1.14042613    -0.45665278  -130.29621464     0.00000000    -0.00000000  0.19D-20  0.61D-20  6  1    14.83     0.67
  25      1.14042613    -0.45665278  -130.29621464    -0.00000000     0.00000000  0.43D-21  0.58D-21  6  5    15.43     0.67
  26      1.14042613    -0.45665278  -130.29621464    -0.00000000     0.00000000  0.23D-21  0.86D-22  6  6    16.01     0.67

 Norm of t1 vector:      0.07725865      S-energy:     0.00000000      T1 diagnostic:  0.01577036
                                                                       D1 diagnostic:  0.04357793

 Doubles amplitudes (print threshold =  0.500E-01):

         I         J         SYM. A    SYM. B    A         B      T(IJ, AB)

         6         6         2         2         1         1     -0.13705054


 Total CPU time for triples:      6.27 sec


 RESULTS
 =======

  Reference energy                   -129.839561860282
  CCSD singlet pair energy             -0.313657081056
  CCSD triplet pair energy             -0.142995698791
  CCSD correlation energy              -0.456652779845

  Triples (T) contribution             -0.021251448989
  Total correlation energy             -0.477904228834

  CCSD total energy                  -130.296214640128
  CCSD[T] energy                     -130.318567386234
  CCSD-T energy                      -130.317052587693
 !CCSD(T) total energy               -130.317466089116

 Timing summary (sec):

 STEP                 CPU(USER)    SYS     CPU(TOT)    WALL
 Transformation          0.73      0.12      0.85      0.85
 CCSD iterations        15.29      2.06     17.35     17.35
 Triples                 6.27      0.24      6.51      6.52

 Program statistics:

 Available memory in ccsd:               994999756
 Min. memory needed in ccsd:                887758
 Max. memory used in ccsd:                 1088212
 Max. memory used in cckext:               1535578 (26 integral passes)



 **********************************************************************************************************************************
 DATASETS  * FILE   NREC   LENGTH (MB)   RECORD NAMES
              1      20      479.09       500      610      700      900      950      970     1000      129      960     1100   
                                          VAR    BASINP    GEOM    SYMINP    ZMAT    AOBASIS   BASIS     P2S    ABASIS      S 
                                         1400     1410     1200     1210     1080     1600     1650     1300     1700     1380   
                                           T        V       H0       H01     AOSYM     SMH    MOLCAS    ERIS     OPER     JKOP   

              2       4        3.13       700     1000      520     2100   
                                         GEOM     BASIS   MCVARS     RHF  

 PROGRAMS   *        TOTAL   CCSD(T)        HF       INT
 CPU TIMES  *        31.05     22.34      4.72      3.89
 REAL TIME  *        35.93 SEC
 DISK USED  *         1.33 GB      
 **********************************************************************************************************************************

 CCSD(T)/USERDEF energy=   -130.317466089116

        CCSD(T)         HF-SCF  
   -130.31746609   -129.83956186
 **********************************************************************************************************************************
 Molpro calculation terminated
 Variable memory released
