
 Primary working directories    : /tmp/r2666/282313.maple
 Secondary working directories  : /tmp/r2666/282313.maple
 Wavefunction directory         : /ddn/home4/r2666/wfu/
 Main file repository           : /tmp/r2666/282313.maple/

 SHA1      : d5ffa45e93fdbca01ffc919aa182cfdae0147319
 NAME      : 2015.1.35
 ARCHNAME  : linux/x86_64
 FC        : /opt/intel/composer_xe_2015.1.133/bin/intel64/ifort
 BLASLIB   : -Wl,-_start-group /opt/intel/mkl/lib/intel64/libmkl_intel_ilp64.a /opt/intel/mkl/lib/intel64/libmkl_intel_thread.a /opt/intel/mkl/lib/intel64/libmkl_core.a -Wl,-_end-group
 id        : olemiss

 Nodes     nprocs
 cn093        1

 Using customized tuning parameters: mindgm=1; mindgv=20; mindgc=4; mindgr=1; noblas=0; minvec=7
 default implementation of scratch files=df  

 ***,hno CCSD(T)/TZ-F12 QFF
 memory, 995, m;
 gthresh,energy=1.d-12,zero=1.d-22,oneint=1.d-22,twoint=1.d-22;
 gthresh,optgrad=1.d-8,optstep=1.d-8;
 nocompress;
 geomtyp=xyz
 bohr
 geometry={
 3
         81        81
 H        0.0000000000        1.6688795811       -1.9406390226
 N        0.0000000000       -0.1560496014       -1.1519683068
 O        0.0000000000        0.0289378102        1.1420177384
 }
 
 basis={
 default=aug-cc-pvtz
 s,C,8236.0,1235.0,280.8, 79.27,25.59, 8.997,3.319
 s,C,0.9059,0.3643,0.1285000
 p,C,56.0,18.71,4.133,0.2827,0.3827,0.1209
 d,C,30.0,10.0,3.3,1.097,0.318
 f,C,7.0,2.3,0.7610
 s,N,11420.0,1712.0,389.3,110.0,35.57,12.54,4.644
 s,N,1.293,0.5118,0.1787
 p,N,79.89,26.63,5.948,1.742,0.555,0.1725
 d,N,45.0,15.0,5.0,1.654,0.469
 f,N,9.9,3.3,1.093
 s,O,15330.0,2299.0,522.4,147.3,47.55,16.76,6.207
 s,O,1.752,0.6882,0.2384
 p,O,103.5,34.46,7.749,2.28,0.7156,0.214
 d,O,63.0,21.0,7.0,2.314,0.645
 f,O,12.9,4.3,1.428
 s,mg,164900.0,24710.0,5628.0,1596.0,521.0;
 s,mg,188.0,73.01,29.90,12.54,4.306,1.826;
 s,mg,0.7417,0.0761,0.145,0.033,0.0129;
 p,mg,950.70,316.90,74.86,23.72,8.669,3.363;
 p,mg,1.310,0.4911,0.2364,0.08733,0.03237,0.00745;
 d,mg,1.601,0.686,0.126,0.294,0.0468;
 f,mg,1.372,0.588,0.094,0.252;
 }
   {hf,maxit=500;accu,20;}
 {ccsd(t),nocheck,maxit=250;orbital,IGNORE_ERROR;}

 Variables initialized (889), CPU time= 0.00 sec
 Commands  initialized (702), CPU time= 0.01 sec, 572 directives.
 Default parameters read. Elapsed time= 0.05 sec

 Checking input...
 Passed
1


                                         ***  PROGRAM SYSTEM MOLPRO  ***
                                       Copyright, TTI GmbH Stuttgart, 2015
                                    Version 2015.1 linked Jul  9 2018 13:16:40


 **********************************************************************************************************************************
 LABEL *   hno CCSD(T)/TZ-F12 QFF                                                        
  64 bit serial version                                                                  DATE: 04-Mar-20          TIME: 13:47:48  
 **********************************************************************************************************************************

 SHA1:             d5ffa45e93fdbca01ffc919aa182cfdae0147319
 **********************************************************************************************************************************

 THRESHOLDS:

 ZERO    =  1.00D-22  ONEINT  =  1.00D-22  TWOINT  =  1.00D-22  PREFAC  =  1.00D-14  LOCALI  =  1.00D-09  EORDER  =  1.00D-04
 ENERGY  =  1.00D-12  ETEST   =  0.00D+00  EDENS   =  0.00D+00  THRDEDEF=  1.00D-06  GRADIENT=  1.00D-02  STEP    =  1.00D-03
 ORBITAL =  1.00D-05  CIVEC   =  1.00D-05  COEFF   =  1.00D-04  PRINTCI =  5.00D-02  PUNCHCI =  9.90D+01  OPTGRAD =  3.00D-04
 OPTENERG=  1.00D-06  OPTSTEP =  3.00D-04  THRGRAD =  1.00D-10  COMPRESS=  1.00D-11  VARMIN  =  1.00D-07  VARMAX  =  1.00D-03
 THRDOUB =  0.00D+00  THRDIV  =  1.00D-05  THRRED  =  1.00D-07  THRPSP  =  1.00D+00  THRDC   =  1.00D-10  THRCS   =  1.00D-10
 THRNRM  =  1.00D-08  THREQ   =  0.00D+00  THRDE   =  1.00D+00  THRREF  =  1.00D-05  SPARFAC =  1.00D+00  THRDLP  =  1.00D-07
 THRDIA  =  1.00D-10  THRDLS  =  1.00D-07  THRGPS  =  0.00D+00  THRKEX  =  0.00D+00  THRDIS  =  2.00D-01  THRVAR  =  1.00D-10
 THRLOC  =  1.00D-06  THRGAP  =  1.00D-06  THRLOCT = -1.00D+00  THRGAPT = -1.00D+00  THRORB  =  1.00D-06  THRMLTP =  0.00D+00
 THRCPQCI=  1.00D-10  KEXTA   =  0.00D+00  THRCOARS=  0.00D+00  SYMTOL  =  1.00D-06  GRADTOL =  1.00D-06  THROVL  =  1.00D-08
 THRORTH =  1.00D-08  GRID    =  1.00D-06  GRIDMAX =  1.00D-03  DTMAX   =  0.00D+00  THROCCDE=  1.00D-01  THROCCDE=  1.00D-01



 THRESHOLDS:

 ZERO    =  1.00D-22  ONEINT  =  1.00D-22  TWOINT  =  1.00D-22  PREFAC  =  1.00D-14  LOCALI  =  1.00D-09  EORDER  =  1.00D-04
 ENERGY  =  1.00D-12  ETEST   =  0.00D+00  EDENS   =  0.00D+00  THRDEDEF=  1.00D-06  GRADIENT=  1.00D-02  STEP    =  1.00D-03
 ORBITAL =  1.00D-05  CIVEC   =  1.00D-05  COEFF   =  1.00D-04  PRINTCI =  5.00D-02  PUNCHCI =  9.90D+01  OPTGRAD =  1.00D-08
 OPTENERG=  1.00D-06  OPTSTEP =  1.00D-08  THRGRAD =  1.00D-10  COMPRESS=  1.00D-11  VARMIN  =  1.00D-07  VARMAX  =  1.00D-03
 THRDOUB =  0.00D+00  THRDIV  =  1.00D-05  THRRED  =  1.00D-07  THRPSP  =  1.00D+00  THRDC   =  1.00D-10  THRCS   =  1.00D-10
 THRNRM  =  1.00D-08  THREQ   =  0.00D+00  THRDE   =  1.00D+00  THRREF  =  1.00D-05  SPARFAC =  1.00D+00  THRDLP  =  1.00D-07
 THRDIA  =  1.00D-10  THRDLS  =  1.00D-07  THRGPS  =  0.00D+00  THRKEX  =  0.00D+00  THRDIS  =  2.00D-01  THRVAR  =  1.00D-10
 THRLOC  =  1.00D-06  THRGAP  =  1.00D-06  THRLOCT = -1.00D+00  THRGAPT = -1.00D+00  THRORB  =  1.00D-06  THRMLTP =  0.00D+00
 THRCPQCI=  1.00D-10  KEXTA   =  0.00D+00  THRCOARS=  0.00D+00  SYMTOL  =  1.00D-06  GRADTOL =  1.00D-06  THROVL  =  1.00D-08
 THRORTH =  1.00D-08  GRID    =  1.00D-06  GRIDMAX =  1.00D-03  DTMAX   =  0.00D+00  THROCCDE=  1.00D-01  THROCCDE=  1.00D-01



 Input parameters for SORTINT:

 COMPRESS =    0.000000
 C_FINAL  =    1.000000
 DEBUG    =   -1.000000
 C_SORT1  =    0.000000
 C_SEWARD =    0.000000
 THRESH   =    0.000000
 IO       =  molpro                                                          
 SPRI     =    0.000000
 SETTING GEOMTYP        =    XYZ
 ZUNIT=BOHR
 

 Variable memory set to  995000000 words,  buffer space   230000 words

 SETTING BASIS          =    USERDEF


 Recomputing integrals since basis changed


 Using spherical harmonics

 Library entry H      S aug-cc-pVTZ          selected for orbital group  1
 Library entry H      P aug-cc-pVTZ          selected for orbital group  1
 Library entry H      D aug-cc-pVTZ          selected for orbital group  1


 PROGRAM * SEWARD (Integral evaluation for generally contracted gaussian basis sets)     Author: Roland Lindh, 1990

 Geometry written to block  1 of record 700


 Point group  Cs  



 ATOMIC COORDINATES

 NR  ATOM    CHARGE       X              Y              Z

   1  H       1.00    0.000000000    1.668879581   -1.940639023
   2  N       7.00    0.000000000   -0.156049601   -1.151968307
   3  O       8.00    0.000000000    0.028937810    1.142017738

 Bond lengths in Bohr (Angstrom)

 1-2  1.988056342  2-3  2.301432666
     ( 1.052034110)     ( 1.217865720)

 Bond angles

  1-2-3  108.76195129

 NUCLEAR CHARGE:                   16
 NUMBER OF PRIMITIVE AOS:         203
 NUMBER OF SYMMETRY AOS:          173
 NUMBER OF CONTRACTIONS:          171   ( 114A'  +  57A"  )
 NUMBER OF CORE ORBITALS:           2   (   2A'  +   0A"  )
 NUMBER OF VALENCE ORBITALS:        9   (   7A'  +   2A"  )


 NUCLEAR REPULSION ENERGY   30.14482386


 Eigenvalues of metric

         1 0.106E-02 0.257E-02 0.338E-02 0.641E-02 0.985E-02 0.137E-01 0.145E-01 0.232E-01
         2 0.364E-01 0.546E-01 0.703E-01 0.943E-01 0.132E+00 0.134E+00 0.140E+00 0.142E+00


 Contracted 2-electron integrals neglected if value below      1.0D-22

       46094552. INTEGRALS WRITTEN OUT IN   11257 BLOCKS ON RECORD 1290 OF FILE 1


 NUMBER OF SORTED TWO-ELECTRON INTEGRALS:   55360566.     BUFFER LENGTH:  32768
 NUMBER OF SEGMENTS:   4  SEGMENT LENGTH:   15997996      RECORD LENGTH: 524288

 Memory used in sort:      16.56 MW

 SORT1 READ    46094552. AND WROTE    46531462. INTEGRALS IN    135 RECORDS. CPU TIME:     0.74 SEC, REAL TIME:     1.04 SEC
 SORT2 READ    46531462. AND WROTE    55360566. INTEGRALS IN      4 RECORDS. CPU TIME:     0.65 SEC, REAL TIME:     0.87 SEC

 FILE SIZES:   FILE 1:   758.5 MBYTE,  FILE 4:   566.3 MBYTE,   TOTAL:   1324.7 MBYTE

 OPERATOR DM      FOR CENTER  0  COORDINATES:    0.000000    0.000000    0.000000


 **********************************************************************************************************************************
 DATASETS  * FILE   NREC   LENGTH (MB)   RECORD NAMES
              1      19      420.89       500      610      700      900      950      970     1000      129      960     1100   
                                          VAR    BASINP    GEOM    SYMINP    ZMAT    AOBASIS   BASIS     P2S    ABASIS      S 
                                         1400     1410     1200     1210     1080     1600     1650     1300     1700   
                                           T        V       H0       H01     AOSYM     SMH    MOLCAS    ERIS     OPER   

 PROGRAMS   *        TOTAL       INT
 CPU TIMES  *         4.16      4.07
 REAL TIME  *         5.57 SEC
 DISK USED  *         1.33 GB      
 **********************************************************************************************************************************


 PROGRAM * RHF-SCF (CLOSED SHELL)       Authors: W. Meyer, H.-J. Werner


 NUMBER OF ELECTRONS:       8+    8-
 CONVERGENCE THRESHOLDS:    1.00E-10 (Density)    1.00E-13 (Energy)
 MAX. NUMBER OF ITERATIONS:      500
 INTERPOLATION TYPE:            DIIS
 INTERPOLATION STEPS:              2 (START)      1 (STEP)
 LEVEL SHIFTS:                  0.00 (CLOSED)  0.00 (OPEN) 



 Orbital guess generated from atomic densities. Full valence occupancy:    9   2

 Molecular orbital dump at record        2100.2

 Initial occupancy:   7   1

 ITERATION    DDIFF          GRAD             ENERGY        2-EL.EN.            DIPOLE MOMENTS         DIIS   ORB.
    1      0.000D+00      0.000D+00      -129.78630317    153.658562    0.00000    0.57919   -1.04702    0    start
    2      0.000D+00      0.888D-02      -129.81284410    154.814727    0.00000    0.60353   -0.19273    1    diag
    3      0.370D-02      0.689D-02      -129.83728632    154.956973    0.00000    0.55356   -0.60023    2    diag
    4      0.146D-02      0.105D-02      -129.83809168    154.675013    0.00000    0.56113   -0.53597    3    diag
    5      0.335D-03      0.341D-03      -129.83821548    154.764106    0.00000    0.56721   -0.53825    4    diag
    6      0.154D-03      0.100D-03      -129.83823571    154.747894    0.00000    0.56774   -0.53395    5    diag
    7      0.611D-04      0.507D-04      -129.83824183    154.750329    0.00000    0.56905   -0.53131    6    diag
    8      0.418D-04      0.179D-04      -129.83824255    154.749460    0.00000    0.56910   -0.53032    7    diag
    9      0.153D-04      0.339D-05      -129.83824258    154.749336    0.00000    0.56904   -0.53012    8    diag
   10      0.316D-05      0.759D-06      -129.83824258    154.749322    0.00000    0.56901   -0.53009    9    orth
   11      0.901D-06      0.149D-06      -129.83824258    154.749318    0.00000    0.56900   -0.53009    9    diag
   12      0.210D-06      0.316D-07      -129.83824258    154.749317    0.00000    0.56900   -0.53009    9    diag
   13      0.514D-07      0.857D-08      -129.83824258    154.749317    0.00000    0.56900   -0.53009    9    diag
   14      0.121D-07      0.150D-08      -129.83824258    154.749316    0.00000    0.56900   -0.53009    9    diag
   15      0.143D-08      0.396D-09      -129.83824258    154.749317    0.00000    0.56900   -0.53009    9    diag
   16      0.338D-09      0.113D-09      -129.83824258    154.749317    0.00000    0.56900   -0.53009    9    diag
   17      0.644D-10      0.293D-10      -129.83824258    154.749317    0.00000    0.56900   -0.53009    9    diag
   18      0.182D-10      0.937D-11      -129.83824258    154.749317    0.00000    0.56900   -0.53009    0    orth

 Final occupancy:   7   1

 !RHF STATE 1.1 Energy               -129.838242583341
 Nuclear energy                        30.14482386
 One-electron energy                 -237.35772470
 Two-electron energy                   77.37465826
 Virial quotient                       -1.00193817
 !RHF STATE 1.1 Dipole moment           0.00000000     0.56899677    -0.53008972
 Dipole moment /Debye                   0.00000000     1.44615081    -1.34726543

 Orbital energies:

         1.1          2.1          3.1          4.1          5.1          6.1          7.1          8.1          9.1
    -20.652330   -15.712162    -1.519707    -0.995552    -0.742168    -0.661476    -0.431335     0.039491     0.192240

         1.2          2.2          3.2
     -0.589475     0.075507     0.239265

 HOMO      7.1    -0.431335 =     -11.7372eV
 LUMO      8.1     0.039491 =       1.0746eV
 LUMO-HOMO         0.470827 =      12.8118eV


 **********************************************************************************************************************************
 DATASETS  * FILE   NREC   LENGTH (MB)   RECORD NAMES
              1      19      420.89       500      610      700      900      950      970     1000      129      960     1100   
                                          VAR    BASINP    GEOM    SYMINP    ZMAT    AOBASIS   BASIS     P2S    ABASIS      S 
                                         1400     1410     1200     1210     1080     1600     1650     1300     1700   
                                           T        V       H0       H01     AOSYM     SMH    MOLCAS    ERIS     OPER   

              2       4        3.13       700     1000      520     2100   
                                         GEOM     BASIS   MCVARS     RHF  

 PROGRAMS   *        TOTAL        HF       INT
 CPU TIMES  *         8.50      4.34      4.07
 REAL TIME  *        11.09 SEC
 DISK USED  *         1.33 GB      
 **********************************************************************************************************************************


 PROGRAM * CCSD (Closed-shell coupled cluster)     Authors: C. Hampel, H.-J. Werner, 1991, M. Deegan, P.J. Knowles, 1992


 Convergence thresholds:  THRVAR = 1.00D-08  THRDEN = 1.00D-12

 CCSD(T)     terms to be evaluated (factor= 1.000)


 Number of core orbitals:           2 (   2   0 )
 Number of closed-shell orbitals:   6 (   5   1 )
 Number of external orbitals:     163 ( 107  56 )

 Molecular orbitals read from record     2100.2  Type=RHF/CANONICAL (state 1.1)

 Number of N-1 electron functions:               6
 Number of N-2 electron functions:              21
 Number of singly external CSFs:               591
 Number of doubly external CSFs:            250014
 Total number of CSFs:                      250606

 Length of J-op  integral file:               0.00 MB
 Length of K-op  integral file:               1.15 MB
 Length of 3-ext integral record:             0.00 MB

 Memory could be reduced to 19.93 Mwords without degradation in triples

 Integral transformation finished. Total CPU:   0.72 sec, npass=  1  Memory used:   5.10 MW

 Reference energy:                   -129.83824258

 MP2 singlet pair energy:              -0.28787980
 MP2 triplet pair energy:              -0.16785990
 MP2 correlation energy:               -0.45573971
 MP2 total energy:                   -130.29398229

 SCS-MP2 correlation energy:           -0.44990193   (PS=  1.200000  PT=  0.333333)
 SCS-MP2 total energy:               -130.28814451

 ITER.      SQ.NORM     CORR.ENERGY   TOTAL ENERGY   ENERGY CHANGE        DEN1      VAR(S)    VAR(P)  DIIS     TIME  TIME/IT
   1      1.11988317    -0.45749834  -130.29574093    -0.00175864     0.01544934  0.33D-02  0.32D-02  1  1     1.31     0.65
   2      1.13066373    -0.45732938  -130.29557196     0.00016897    -0.01277041  0.13D-03  0.51D-03  2  2     1.89     0.66
   3      1.13743552    -0.45771704  -130.29595962    -0.00038766    -0.00343202  0.47D-04  0.60D-04  3  3     2.46     0.66
   4      1.14043080    -0.45774989  -130.29599247    -0.00003285    -0.00097842  0.48D-05  0.10D-04  4  4     3.04     0.67
   5      1.14158325    -0.45778450  -130.29602708    -0.00003461    -0.00023471  0.14D-05  0.18D-05  5  5     3.63     0.67
   6      1.14200191    -0.45776760  -130.29601019     0.00001689    -0.00006942  0.13D-06  0.44D-06  6  6     4.23     0.67
   7      1.14207597    -0.45776922  -130.29601180    -0.00000161     0.00000914  0.17D-07  0.98D-07  6  1     4.80     0.67
   8      1.14211178    -0.45776868  -130.29601126     0.00000054    -0.00000497  0.49D-08  0.16D-07  6  2     5.40     0.67
   9      1.14211737    -0.45776853  -130.29601112     0.00000014     0.00000110  0.23D-08  0.19D-08  6  3     6.01     0.67
  10      1.14211787    -0.45776888  -130.29601146    -0.00000034    -0.00000030  0.54D-09  0.29D-09  6  4     6.64     0.68
  11      1.14211630    -0.45776902  -130.29601161    -0.00000015     0.00000035  0.13D-09  0.29D-10  6  5     7.28     0.68
  12      1.14211508    -0.45776918  -130.29601177    -0.00000016     0.00000050  0.17D-10  0.83D-11  6  6     7.93     0.68
  13      1.14211439    -0.45776920  -130.29601179    -0.00000002     0.00000013  0.63D-11  0.15D-11  6  1     8.55     0.68
  14      1.14211384    -0.45776923  -130.29601182    -0.00000003     0.00000012  0.56D-12  0.49D-12  6  3     9.17     0.69
  15      1.14211367    -0.45776923  -130.29601182     0.00000000     0.00000001  0.15D-12  0.35D-13  6  2     9.81     0.69
  16      1.14211361    -0.45776924  -130.29601182    -0.00000000     0.00000001  0.34D-13  0.82D-14  6  4    10.46     0.69
  17      1.14211359    -0.45776924  -130.29601182    -0.00000000     0.00000001  0.46D-14  0.13D-14  6  5    11.08     0.69
  18      1.14211359    -0.45776924  -130.29601182     0.00000000     0.00000000  0.53D-15  0.36D-15  6  6    11.66     0.69
  19      1.14211359    -0.45776924  -130.29601182     0.00000000    -0.00000000  0.73D-16  0.49D-16  6  1    12.28     0.69
  20      1.14211359    -0.45776924  -130.29601182     0.00000000    -0.00000000  0.38D-17  0.12D-16  6  3    12.89     0.69
  21      1.14211359    -0.45776924  -130.29601182     0.00000000    -0.00000000  0.59D-18  0.25D-17  6  4    13.47     0.69
  22      1.14211359    -0.45776924  -130.29601182     0.00000000    -0.00000000  0.31D-19  0.90D-18  6  2    14.09     0.69
  23      1.14211359    -0.45776924  -130.29601182    -0.00000000     0.00000000  0.76D-19  0.18D-18  6  5    14.72     0.69
  24      1.14211359    -0.45776924  -130.29601182    -0.00000000     0.00000000  0.52D-20  0.17D-19  6  1    15.31     0.69
  25      1.14211359    -0.45776924  -130.29601182     0.00000000    -0.00000000  0.25D-20  0.12D-20  6  6    15.95     0.69

 Norm of t1 vector:      0.07896725      S-energy:     0.00000000      T1 diagnostic:  0.01611912
                                                                       D1 diagnostic:  0.04434141

 Doubles amplitudes (print threshold =  0.500E-01):

         I         J         SYM. A    SYM. B    A         B      T(IJ, AB)

         6         6         2         2         1         1     -0.13833577


 Total CPU time for triples:      6.85 sec


 RESULTS
 =======

  Reference energy                   -129.838242583341
  CCSD singlet pair energy             -0.314630679054
  CCSD triplet pair energy             -0.143138556742
  CCSD correlation energy              -0.457769235794

  Triples (T) contribution             -0.021510737527
  Total correlation energy             -0.479279973321

  CCSD total energy                  -130.296011819135
  CCSD[T] energy                     -130.318665847678
  CCSD-T energy                      -130.317096630535
 !CCSD(T) total energy               -130.317522556662

 Timing summary (sec):

 STEP                 CPU(USER)    SYS     CPU(TOT)    WALL
 Transformation          0.72      0.14      0.86      0.85
 CCSD iterations        15.23      2.07     17.30     17.33
 Triples                 6.85      0.25      7.10      7.09

 Program statistics:

 Available memory in ccsd:               994999756
 Min. memory needed in ccsd:                887758
 Max. memory used in ccsd:                 1088212
 Max. memory used in cckext:               1535578 (25 integral passes)



 **********************************************************************************************************************************
 DATASETS  * FILE   NREC   LENGTH (MB)   RECORD NAMES
              1      20      478.84       500      610      700      900      950      970     1000      129      960     1100   
                                          VAR    BASINP    GEOM    SYMINP    ZMAT    AOBASIS   BASIS     P2S    ABASIS      S 
                                         1400     1410     1200     1210     1080     1600     1650     1300     1700     1380   
                                           T        V       H0       H01     AOSYM     SMH    MOLCAS    ERIS     OPER     JKOP   

              2       4        3.13       700     1000      520     2100   
                                         GEOM     BASIS   MCVARS     RHF  

 PROGRAMS   *        TOTAL   CCSD(T)        HF       INT
 CPU TIMES  *        31.34     22.84      4.34      4.07
 REAL TIME  *        36.47 SEC
 DISK USED  *         1.33 GB      
 **********************************************************************************************************************************

 CCSD(T)/USERDEF energy=   -130.317522556662

        CCSD(T)         HF-SCF  
   -130.31752256   -129.83824258
 **********************************************************************************************************************************
 Molpro calculation terminated
 Variable memory released
