
 Primary working directories    : /tmp/r2666/282261.maple
 Secondary working directories  : /tmp/r2666/282261.maple
 Wavefunction directory         : /ddn/home4/r2666/wfu/
 Main file repository           : /tmp/r2666/282261.maple/

 SHA1      : d5ffa45e93fdbca01ffc919aa182cfdae0147319
 NAME      : 2015.1.35
 ARCHNAME  : linux/x86_64
 FC        : /opt/intel/composer_xe_2015.1.133/bin/intel64/ifort
 BLASLIB   : -Wl,-_start-group /opt/intel/mkl/lib/intel64/libmkl_intel_ilp64.a /opt/intel/mkl/lib/intel64/libmkl_intel_thread.a /opt/intel/mkl/lib/intel64/libmkl_core.a -Wl,-_end-group
 id        : olemiss

 Nodes     nprocs
 cn076        1

 Using customized tuning parameters: mindgm=1; mindgv=20; mindgc=4; mindgr=1; noblas=0; minvec=7
 default implementation of scratch files=df  

 ***,hno CCSD(T)/TZ-F12 QFF
 memory, 995, m;
 gthresh,energy=1.d-12,zero=1.d-22,oneint=1.d-22,twoint=1.d-22;
 gthresh,optgrad=1.d-8,optstep=1.d-8;
 nocompress;
 geomtyp=xyz
 bohr
 geometry={
 3
         29        29
 H        0.0000000000        1.6618972017       -1.9304819106
 N        0.0000000000       -0.1531542716       -1.1427785226
 O        0.0000000000        0.0330248599        1.1226708422
 }
 
 basis={
 default=aug-cc-pvtz
 s,C,8236.0,1235.0,280.8, 79.27,25.59, 8.997,3.319
 s,C,0.9059,0.3643,0.1285000
 p,C,56.0,18.71,4.133,0.2827,0.3827,0.1209
 d,C,30.0,10.0,3.3,1.097,0.318
 f,C,7.0,2.3,0.7610
 s,N,11420.0,1712.0,389.3,110.0,35.57,12.54,4.644
 s,N,1.293,0.5118,0.1787
 p,N,79.89,26.63,5.948,1.742,0.555,0.1725
 d,N,45.0,15.0,5.0,1.654,0.469
 f,N,9.9,3.3,1.093
 s,O,15330.0,2299.0,522.4,147.3,47.55,16.76,6.207
 s,O,1.752,0.6882,0.2384
 p,O,103.5,34.46,7.749,2.28,0.7156,0.214
 d,O,63.0,21.0,7.0,2.314,0.645
 f,O,12.9,4.3,1.428
 s,mg,164900.0,24710.0,5628.0,1596.0,521.0;
 s,mg,188.0,73.01,29.90,12.54,4.306,1.826;
 s,mg,0.7417,0.0761,0.145,0.033,0.0129;
 p,mg,950.70,316.90,74.86,23.72,8.669,3.363;
 p,mg,1.310,0.4911,0.2364,0.08733,0.03237,0.00745;
 d,mg,1.601,0.686,0.126,0.294,0.0468;
 f,mg,1.372,0.588,0.094,0.252;
 }
   {hf,maxit=500;accu,20;}
 {ccsd(t),nocheck,maxit=250;orbital,IGNORE_ERROR;}

 Variables initialized (889), CPU time= 0.00 sec
 Commands  initialized (702), CPU time= 0.01 sec, 572 directives.
 Default parameters read. Elapsed time= 0.06 sec

 Checking input...
 Passed
1


                                         ***  PROGRAM SYSTEM MOLPRO  ***
                                       Copyright, TTI GmbH Stuttgart, 2015
                                    Version 2015.1 linked Jul  9 2018 13:16:40


 **********************************************************************************************************************************
 LABEL *   hno CCSD(T)/TZ-F12 QFF                                                        
  64 bit serial version                                                                  DATE: 04-Mar-20          TIME: 13:46:59  
 **********************************************************************************************************************************

 SHA1:             d5ffa45e93fdbca01ffc919aa182cfdae0147319
 **********************************************************************************************************************************

 THRESHOLDS:

 ZERO    =  1.00D-22  ONEINT  =  1.00D-22  TWOINT  =  1.00D-22  PREFAC  =  1.00D-14  LOCALI  =  1.00D-09  EORDER  =  1.00D-04
 ENERGY  =  1.00D-12  ETEST   =  0.00D+00  EDENS   =  0.00D+00  THRDEDEF=  1.00D-06  GRADIENT=  1.00D-02  STEP    =  1.00D-03
 ORBITAL =  1.00D-05  CIVEC   =  1.00D-05  COEFF   =  1.00D-04  PRINTCI =  5.00D-02  PUNCHCI =  9.90D+01  OPTGRAD =  3.00D-04
 OPTENERG=  1.00D-06  OPTSTEP =  3.00D-04  THRGRAD =  1.00D-10  COMPRESS=  1.00D-11  VARMIN  =  1.00D-07  VARMAX  =  1.00D-03
 THRDOUB =  0.00D+00  THRDIV  =  1.00D-05  THRRED  =  1.00D-07  THRPSP  =  1.00D+00  THRDC   =  1.00D-10  THRCS   =  1.00D-10
 THRNRM  =  1.00D-08  THREQ   =  0.00D+00  THRDE   =  1.00D+00  THRREF  =  1.00D-05  SPARFAC =  1.00D+00  THRDLP  =  1.00D-07
 THRDIA  =  1.00D-10  THRDLS  =  1.00D-07  THRGPS  =  0.00D+00  THRKEX  =  0.00D+00  THRDIS  =  2.00D-01  THRVAR  =  1.00D-10
 THRLOC  =  1.00D-06  THRGAP  =  1.00D-06  THRLOCT = -1.00D+00  THRGAPT = -1.00D+00  THRORB  =  1.00D-06  THRMLTP =  0.00D+00
 THRCPQCI=  1.00D-10  KEXTA   =  0.00D+00  THRCOARS=  0.00D+00  SYMTOL  =  1.00D-06  GRADTOL =  1.00D-06  THROVL  =  1.00D-08
 THRORTH =  1.00D-08  GRID    =  1.00D-06  GRIDMAX =  1.00D-03  DTMAX   =  0.00D+00  THROCCDE=  1.00D-01  THROCCDE=  1.00D-01



 THRESHOLDS:

 ZERO    =  1.00D-22  ONEINT  =  1.00D-22  TWOINT  =  1.00D-22  PREFAC  =  1.00D-14  LOCALI  =  1.00D-09  EORDER  =  1.00D-04
 ENERGY  =  1.00D-12  ETEST   =  0.00D+00  EDENS   =  0.00D+00  THRDEDEF=  1.00D-06  GRADIENT=  1.00D-02  STEP    =  1.00D-03
 ORBITAL =  1.00D-05  CIVEC   =  1.00D-05  COEFF   =  1.00D-04  PRINTCI =  5.00D-02  PUNCHCI =  9.90D+01  OPTGRAD =  1.00D-08
 OPTENERG=  1.00D-06  OPTSTEP =  1.00D-08  THRGRAD =  1.00D-10  COMPRESS=  1.00D-11  VARMIN  =  1.00D-07  VARMAX  =  1.00D-03
 THRDOUB =  0.00D+00  THRDIV  =  1.00D-05  THRRED  =  1.00D-07  THRPSP  =  1.00D+00  THRDC   =  1.00D-10  THRCS   =  1.00D-10
 THRNRM  =  1.00D-08  THREQ   =  0.00D+00  THRDE   =  1.00D+00  THRREF  =  1.00D-05  SPARFAC =  1.00D+00  THRDLP  =  1.00D-07
 THRDIA  =  1.00D-10  THRDLS  =  1.00D-07  THRGPS  =  0.00D+00  THRKEX  =  0.00D+00  THRDIS  =  2.00D-01  THRVAR  =  1.00D-10
 THRLOC  =  1.00D-06  THRGAP  =  1.00D-06  THRLOCT = -1.00D+00  THRGAPT = -1.00D+00  THRORB  =  1.00D-06  THRMLTP =  0.00D+00
 THRCPQCI=  1.00D-10  KEXTA   =  0.00D+00  THRCOARS=  0.00D+00  SYMTOL  =  1.00D-06  GRADTOL =  1.00D-06  THROVL  =  1.00D-08
 THRORTH =  1.00D-08  GRID    =  1.00D-06  GRIDMAX =  1.00D-03  DTMAX   =  0.00D+00  THROCCDE=  1.00D-01  THROCCDE=  1.00D-01



 Input parameters for SORTINT:

 COMPRESS =    0.000000
 C_FINAL  =    1.000000
 DEBUG    =   -1.000000
 C_SORT1  =    0.000000
 C_SEWARD =    0.000000
 THRESH   =    0.000000
 IO       =  molpro                                                          
 SPRI     =    0.000000
 SETTING GEOMTYP        =    XYZ
 ZUNIT=BOHR
 

 Variable memory set to  995000000 words,  buffer space   230000 words

 SETTING BASIS          =    USERDEF


 Recomputing integrals since basis changed


 Using spherical harmonics

 Library entry H      S aug-cc-pVTZ          selected for orbital group  1
 Library entry H      P aug-cc-pVTZ          selected for orbital group  1
 Library entry H      D aug-cc-pVTZ          selected for orbital group  1


 PROGRAM * SEWARD (Integral evaluation for generally contracted gaussian basis sets)     Author: Roland Lindh, 1990

 Geometry written to block  1 of record 700


 Point group  Cs  



 ATOMIC COORDINATES

 NR  ATOM    CHARGE       X              Y              Z

   1  H       1.00    0.000000000    1.661897202   -1.930481911
   2  N       7.00    0.000000000   -0.153154272   -1.142778523
   3  O       8.00    0.000000000    0.033024860    1.122670842

 Bond lengths in Bohr (Angstrom)

 1-2  1.978607712  2-3  2.273086776
     ( 1.047034111)     ( 1.202865721)

 Bond angles

  1-2-3  108.76195129

 NUCLEAR CHARGE:                   16
 NUMBER OF PRIMITIVE AOS:         203
 NUMBER OF SYMMETRY AOS:          173
 NUMBER OF CONTRACTIONS:          171   ( 114A'  +  57A"  )
 NUMBER OF CORE ORBITALS:           2   (   2A'  +   0A"  )
 NUMBER OF VALENCE ORBITALS:        9   (   7A'  +   2A"  )


 NUCLEAR REPULSION ENERGY   30.48575795


 Eigenvalues of metric

         1 0.102E-02 0.244E-02 0.329E-02 0.630E-02 0.968E-02 0.136E-01 0.144E-01 0.227E-01
         2 0.357E-01 0.523E-01 0.690E-01 0.941E-01 0.131E+00 0.134E+00 0.140E+00 0.142E+00


 Contracted 2-electron integrals neglected if value below      1.0D-22

       46184987. INTEGRALS WRITTEN OUT IN   11279 BLOCKS ON RECORD 1290 OF FILE 1


 NUMBER OF SORTED TWO-ELECTRON INTEGRALS:   55360566.     BUFFER LENGTH:  32768
 NUMBER OF SEGMENTS:   4  SEGMENT LENGTH:   15997996      RECORD LENGTH: 524288

 Memory used in sort:      16.56 MW

 SORT1 READ    46184987. AND WROTE    46622862. INTEGRALS IN    136 RECORDS. CPU TIME:     0.72 SEC, REAL TIME:     1.00 SEC
 SORT2 READ    46622862. AND WROTE    55360566. INTEGRALS IN      4 RECORDS. CPU TIME:     0.63 SEC, REAL TIME:     0.85 SEC

 FILE SIZES:   FILE 1:   759.9 MBYTE,  FILE 4:   570.5 MBYTE,   TOTAL:   1330.4 MBYTE

 OPERATOR DM      FOR CENTER  0  COORDINATES:    0.000000    0.000000    0.000000


 **********************************************************************************************************************************
 DATASETS  * FILE   NREC   LENGTH (MB)   RECORD NAMES
              1      19      421.51       500      610      700      900      950      970     1000      129      960     1100   
                                          VAR    BASINP    GEOM    SYMINP    ZMAT    AOBASIS   BASIS     P2S    ABASIS      S 
                                         1400     1410     1200     1210     1080     1600     1650     1300     1700   
                                           T        V       H0       H01     AOSYM     SMH    MOLCAS    ERIS     OPER   

 PROGRAMS   *        TOTAL       INT
 CPU TIMES  *         3.98      3.89
 REAL TIME  *         5.38 SEC
 DISK USED  *         1.33 GB      
 **********************************************************************************************************************************


 PROGRAM * RHF-SCF (CLOSED SHELL)       Authors: W. Meyer, H.-J. Werner


 NUMBER OF ELECTRONS:       8+    8-
 CONVERGENCE THRESHOLDS:    1.00E-10 (Density)    1.00E-13 (Energy)
 MAX. NUMBER OF ITERATIONS:      500
 INTERPOLATION TYPE:            DIIS
 INTERPOLATION STEPS:              2 (START)      1 (STEP)
 LEVEL SHIFTS:                  0.00 (CLOSED)  0.00 (OPEN) 



 Orbital guess generated from atomic densities. Full valence occupancy:    9   2

 Molecular orbital dump at record        2100.2

 Initial occupancy:   7   1

 ITERATION    DDIFF          GRAD             ENERGY        2-EL.EN.            DIPOLE MOMENTS         DIIS   ORB.
    1      0.000D+00      0.000D+00      -129.79110638    154.271391    0.00000    0.57549   -0.99809    0    start
    2      0.000D+00      0.871D-02      -129.81815672    155.452231    0.00000    0.59470   -0.20325    1    diag
    3      0.363D-02      0.652D-02      -129.83982971    155.562798    0.00000    0.54813   -0.57897    2    diag
    4      0.139D-02      0.103D-02      -129.84060286    155.292442    0.00000    0.55611   -0.51732    3    diag
    5      0.330D-03      0.333D-03      -129.84072026    155.379804    0.00000    0.56211   -0.51985    4    diag
    6      0.152D-03      0.974D-04      -129.84073929    155.363861    0.00000    0.56271   -0.51583    5    diag
    7      0.604D-04      0.487D-04      -129.84074483    155.366421    0.00000    0.56404   -0.51339    6    diag
    8      0.408D-04      0.164D-04      -129.84074540    155.365626    0.00000    0.56410   -0.51252    7    diag
    9      0.138D-04      0.304D-05      -129.84074542    155.365518    0.00000    0.56405   -0.51235    8    diag
   10      0.276D-05      0.704D-06      -129.84074542    155.365505    0.00000    0.56401   -0.51232    9    orth
   11      0.851D-06      0.140D-06      -129.84074542    155.365501    0.00000    0.56401   -0.51232    9    diag
   12      0.202D-06      0.287D-07      -129.84074542    155.365500    0.00000    0.56400   -0.51232    9    diag
   13      0.486D-07      0.750D-08      -129.84074542    155.365500    0.00000    0.56400   -0.51232    9    diag
   14      0.111D-07      0.133D-08      -129.84074542    155.365500    0.00000    0.56400   -0.51232    9    diag
   15      0.147D-08      0.363D-09      -129.84074542    155.365500    0.00000    0.56400   -0.51232    9    diag
   16      0.323D-09      0.109D-09      -129.84074542    155.365500    0.00000    0.56400   -0.51232    9    diag
   17      0.785D-10      0.306D-10      -129.84074542    155.365500    0.00000    0.56400   -0.51232    0    orth

 Final occupancy:   7   1

 !RHF STATE 1.1 Energy               -129.840745423858
 Nuclear energy                        30.48575795
 One-electron energy                 -238.00925327
 Two-electron energy                   77.68274989
 Virial quotient                       -1.00143536
 !RHF STATE 1.1 Dipole moment           0.00000000     0.56400394    -0.51231635
 Dipole moment /Debye                   0.00000000     1.43346114    -1.30209299

 Orbital energies:

         1.1          2.1          3.1          4.1          5.1          6.1          7.1          8.1          9.1
    -20.650843   -15.708961    -1.532010    -0.993362    -0.747283    -0.665827    -0.427093     0.039757     0.193470

         1.2          2.2          3.2
     -0.596498     0.080729     0.239808

 HOMO      7.1    -0.427093 =     -11.6218eV
 LUMO      8.1     0.039757 =       1.0818eV
 LUMO-HOMO         0.466850 =      12.7036eV


 **********************************************************************************************************************************
 DATASETS  * FILE   NREC   LENGTH (MB)   RECORD NAMES
              1      19      421.51       500      610      700      900      950      970     1000      129      960     1100   
                                          VAR    BASINP    GEOM    SYMINP    ZMAT    AOBASIS   BASIS     P2S    ABASIS      S 
                                         1400     1410     1200     1210     1080     1600     1650     1300     1700   
                                           T        V       H0       H01     AOSYM     SMH    MOLCAS    ERIS     OPER   

              2       4        3.13       700     1000      520     2100   
                                         GEOM     BASIS   MCVARS     RHF  

 PROGRAMS   *        TOTAL        HF       INT
 CPU TIMES  *         8.20      4.22      3.89
 REAL TIME  *        10.54 SEC
 DISK USED  *         1.33 GB      
 **********************************************************************************************************************************


 PROGRAM * CCSD (Closed-shell coupled cluster)     Authors: C. Hampel, H.-J. Werner, 1991, M. Deegan, P.J. Knowles, 1992


 Convergence thresholds:  THRVAR = 1.00D-08  THRDEN = 1.00D-12

 CCSD(T)     terms to be evaluated (factor= 1.000)


 Number of core orbitals:           2 (   2   0 )
 Number of closed-shell orbitals:   6 (   5   1 )
 Number of external orbitals:     163 ( 107  56 )

 Molecular orbitals read from record     2100.2  Type=RHF/CANONICAL (state 1.1)

 Number of N-1 electron functions:               6
 Number of N-2 electron functions:              21
 Number of singly external CSFs:               591
 Number of doubly external CSFs:            250014
 Total number of CSFs:                      250606

 Length of J-op  integral file:               0.00 MB
 Length of K-op  integral file:               1.15 MB
 Length of 3-ext integral record:             0.00 MB

 Memory could be reduced to 19.93 Mwords without degradation in triples

 Integral transformation finished. Total CPU:   0.67 sec, npass=  1  Memory used:   5.10 MW

 Reference energy:                   -129.84074542

 MP2 singlet pair energy:              -0.28624492
 MP2 triplet pair energy:              -0.16678141
 MP2 correlation energy:               -0.45302633
 MP2 total energy:                   -130.29377175

 SCS-MP2 correlation energy:           -0.44726900   (PS=  1.200000  PT=  0.333333)
 SCS-MP2 total energy:               -130.28801443

 ITER.      SQ.NORM     CORR.ENERGY   TOTAL ENERGY   ENERGY CHANGE        DEN1      VAR(S)    VAR(P)  DIIS     TIME  TIME/IT
   1      1.11809968    -0.45536269  -130.29610811    -0.00233636     0.01416996  0.31D-02  0.30D-02  1  1     1.25     0.63
   2      1.12846833    -0.45532455  -130.29606997     0.00003814    -0.01235771  0.12D-03  0.49D-03  2  2     1.83     0.64
   3      1.13490693    -0.45568808  -130.29643351    -0.00036353    -0.00332445  0.43D-04  0.56D-04  3  3     2.44     0.65
   4      1.13771135    -0.45571986  -130.29646528    -0.00003177    -0.00092700  0.42D-05  0.95D-05  4  4     3.02     0.65
   5      1.13875551    -0.45575090  -130.29649632    -0.00003104    -0.00021324  0.13D-05  0.17D-05  5  5     3.60     0.65
   6      1.13914343    -0.45573577  -130.29648119     0.00001513    -0.00006414  0.12D-06  0.43D-06  6  6     4.17     0.66
   7      1.13921656    -0.45573730  -130.29648272    -0.00000153     0.00000818  0.16D-07  0.93D-07  6  1     4.78     0.66
   8      1.13925087    -0.45573696  -130.29648238     0.00000034    -0.00000448  0.51D-08  0.14D-07  6  2     5.36     0.66
   9      1.13925619    -0.45573685  -130.29648228     0.00000011     0.00000083  0.22D-08  0.16D-08  6  3     5.94     0.66
  10      1.13925650    -0.45573718  -130.29648261    -0.00000033    -0.00000019  0.49D-09  0.24D-09  6  4     6.53     0.66
  11      1.13925498    -0.45573732  -130.29648274    -0.00000014     0.00000034  0.12D-09  0.25D-10  6  5     7.11     0.66
  12      1.13925385    -0.45573746  -130.29648288    -0.00000014     0.00000046  0.15D-10  0.72D-11  6  6     7.73     0.66
  13      1.13925321    -0.45573748  -130.29648290    -0.00000002     0.00000012  0.58D-11  0.13D-11  6  1     8.33     0.66
  14      1.13925271    -0.45573751  -130.29648293    -0.00000003     0.00000011  0.55D-12  0.42D-12  6  3     8.93     0.66
  15      1.13925256    -0.45573751  -130.29648293    -0.00000000     0.00000001  0.13D-12  0.29D-13  6  2     9.48     0.66
  16      1.13925251    -0.45573751  -130.29648293    -0.00000000     0.00000001  0.31D-13  0.72D-14  6  4    10.06     0.66
  17      1.13925249    -0.45573751  -130.29648293    -0.00000000     0.00000001  0.38D-14  0.11D-14  6  5    10.64     0.66
  18      1.13925249    -0.45573751  -130.29648293     0.00000000     0.00000000  0.42D-15  0.30D-15  6  6    11.23     0.66
  19      1.13925249    -0.45573751  -130.29648293     0.00000000    -0.00000000  0.56D-16  0.36D-16  6  1    11.80     0.66
  20      1.13925250    -0.45573751  -130.29648293     0.00000000    -0.00000000  0.29D-17  0.80D-17  6  3    12.38     0.66
  21      1.13925250    -0.45573751  -130.29648293     0.00000000    -0.00000000  0.47D-18  0.16D-17  6  4    12.96     0.66
  22      1.13925250    -0.45573751  -130.29648293     0.00000000    -0.00000000  0.15D-19  0.58D-18  6  2    13.55     0.66
  23      1.13925250    -0.45573751  -130.29648293    -0.00000000     0.00000000  0.42D-19  0.13D-18  6  5    14.16     0.66
  24      1.13925250    -0.45573751  -130.29648293    -0.00000000     0.00000000  0.47D-20  0.12D-19  6  1    14.76     0.66
  25      1.13925250    -0.45573751  -130.29648293     0.00000000    -0.00000000  0.19D-20  0.80D-21  6  6    15.31     0.66

 Norm of t1 vector:      0.07632959      S-energy:     0.00000000      T1 diagnostic:  0.01558071
                                                                       D1 diagnostic:  0.04237247

 Doubles amplitudes (print threshold =  0.500E-01):

         I         J         SYM. A    SYM. B    A         B      T(IJ, AB)

         6         6         2         2         1         1     -0.13383930


 Total CPU time for triples:      6.33 sec


 RESULTS
 =======

  Reference energy                   -129.840745423858
  CCSD singlet pair energy             -0.312852807631
  CCSD triplet pair energy             -0.142884700941
  CCSD correlation energy              -0.455737508567

  Triples (T) contribution             -0.021014378399
  Total correlation energy             -0.476751886966

  CCSD total energy                  -130.296482932425
  CCSD[T] energy                     -130.318568392334
  CCSD-T energy                      -130.317090352887
 !CCSD(T) total energy               -130.317497310823

 Timing summary (sec):

 STEP                 CPU(USER)    SYS     CPU(TOT)    WALL
 Transformation          0.69      0.12      0.81      0.82
 CCSD iterations        14.62      1.93     16.55     16.55
 Triples                 6.33      0.22      6.55      6.56

 Program statistics:

 Available memory in ccsd:               994999756
 Min. memory needed in ccsd:                887758
 Max. memory used in ccsd:                 1088212
 Max. memory used in cckext:               1535578 (25 integral passes)



 **********************************************************************************************************************************
 DATASETS  * FILE   NREC   LENGTH (MB)   RECORD NAMES
              1      20      479.46       500      610      700      900      950      970     1000      129      960     1100   
                                          VAR    BASINP    GEOM    SYMINP    ZMAT    AOBASIS   BASIS     P2S    ABASIS      S 
                                         1400     1410     1200     1210     1080     1600     1650     1300     1700     1380   
                                           T        V       H0       H01     AOSYM     SMH    MOLCAS    ERIS     OPER     JKOP   

              2       4        3.13       700     1000      520     2100   
                                         GEOM     BASIS   MCVARS     RHF  

 PROGRAMS   *        TOTAL   CCSD(T)        HF       INT
 CPU TIMES  *        29.88     21.67      4.22      3.89
 REAL TIME  *        35.20 SEC
 DISK USED  *         1.33 GB      
 **********************************************************************************************************************************

 CCSD(T)/USERDEF energy=   -130.317497310823

        CCSD(T)         HF-SCF  
   -130.31749731   -129.84074542
 **********************************************************************************************************************************
 Molpro calculation terminated
 Variable memory released
