
 Primary working directories    : /tmp/r2666/282316.maple
 Secondary working directories  : /tmp/r2666/282316.maple
 Wavefunction directory         : /ddn/home4/r2666/wfu/
 Main file repository           : /tmp/r2666/282316.maple/

 SHA1      : d5ffa45e93fdbca01ffc919aa182cfdae0147319
 NAME      : 2015.1.35
 ARCHNAME  : linux/x86_64
 FC        : /opt/intel/composer_xe_2015.1.133/bin/intel64/ifort
 BLASLIB   : -Wl,-_start-group /opt/intel/mkl/lib/intel64/libmkl_intel_ilp64.a /opt/intel/mkl/lib/intel64/libmkl_intel_thread.a /opt/intel/mkl/lib/intel64/libmkl_core.a -Wl,-_end-group
 id        : olemiss

 Nodes     nprocs
 cn062        1

 Using customized tuning parameters: mindgm=1; mindgv=20; mindgc=4; mindgr=1; noblas=0; minvec=7
 default implementation of scratch files=df  

 ***,hno CCSD(T)/TZ-F12 QFF
 memory, 995, m;
 gthresh,energy=1.d-12,zero=1.d-22,oneint=1.d-22,twoint=1.d-22;
 gthresh,optgrad=1.d-8,optstep=1.d-8;
 nocompress;
 geomtyp=xyz
 bohr
 geometry={
 3
         84        84
 H        0.0000000000        1.6694828768       -1.9392661270
 N        0.0000000000       -0.1583018339       -1.1572360315
 O        0.0000000000        0.0305867471        1.1459125676
 }
 
 basis={
 default=aug-cc-pvtz
 s,C,8236.0,1235.0,280.8, 79.27,25.59, 8.997,3.319
 s,C,0.9059,0.3643,0.1285000
 p,C,56.0,18.71,4.133,0.2827,0.3827,0.1209
 d,C,30.0,10.0,3.3,1.097,0.318
 f,C,7.0,2.3,0.7610
 s,N,11420.0,1712.0,389.3,110.0,35.57,12.54,4.644
 s,N,1.293,0.5118,0.1787
 p,N,79.89,26.63,5.948,1.742,0.555,0.1725
 d,N,45.0,15.0,5.0,1.654,0.469
 f,N,9.9,3.3,1.093
 s,O,15330.0,2299.0,522.4,147.3,47.55,16.76,6.207
 s,O,1.752,0.6882,0.2384
 p,O,103.5,34.46,7.749,2.28,0.7156,0.214
 d,O,63.0,21.0,7.0,2.314,0.645
 f,O,12.9,4.3,1.428
 s,mg,164900.0,24710.0,5628.0,1596.0,521.0;
 s,mg,188.0,73.01,29.90,12.54,4.306,1.826;
 s,mg,0.7417,0.0761,0.145,0.033,0.0129;
 p,mg,950.70,316.90,74.86,23.72,8.669,3.363;
 p,mg,1.310,0.4911,0.2364,0.08733,0.03237,0.00745;
 d,mg,1.601,0.686,0.126,0.294,0.0468;
 f,mg,1.372,0.588,0.094,0.252;
 }
   {hf,maxit=500;accu,20;}
 {ccsd(t),nocheck,maxit=250;orbital,IGNORE_ERROR;}

 Variables initialized (889), CPU time= 0.01 sec
 Commands  initialized (702), CPU time= 0.01 sec, 572 directives.
 Default parameters read. Elapsed time= 0.05 sec

 Checking input...
 Passed
1


                                         ***  PROGRAM SYSTEM MOLPRO  ***
                                       Copyright, TTI GmbH Stuttgart, 2015
                                    Version 2015.1 linked Jul  9 2018 13:16:40


 **********************************************************************************************************************************
 LABEL *   hno CCSD(T)/TZ-F12 QFF                                                        
  64 bit serial version                                                                  DATE: 04-Mar-20          TIME: 13:47:54  
 **********************************************************************************************************************************

 SHA1:             d5ffa45e93fdbca01ffc919aa182cfdae0147319
 **********************************************************************************************************************************

 THRESHOLDS:

 ZERO    =  1.00D-22  ONEINT  =  1.00D-22  TWOINT  =  1.00D-22  PREFAC  =  1.00D-14  LOCALI  =  1.00D-09  EORDER  =  1.00D-04
 ENERGY  =  1.00D-12  ETEST   =  0.00D+00  EDENS   =  0.00D+00  THRDEDEF=  1.00D-06  GRADIENT=  1.00D-02  STEP    =  1.00D-03
 ORBITAL =  1.00D-05  CIVEC   =  1.00D-05  COEFF   =  1.00D-04  PRINTCI =  5.00D-02  PUNCHCI =  9.90D+01  OPTGRAD =  3.00D-04
 OPTENERG=  1.00D-06  OPTSTEP =  3.00D-04  THRGRAD =  1.00D-10  COMPRESS=  1.00D-11  VARMIN  =  1.00D-07  VARMAX  =  1.00D-03
 THRDOUB =  0.00D+00  THRDIV  =  1.00D-05  THRRED  =  1.00D-07  THRPSP  =  1.00D+00  THRDC   =  1.00D-10  THRCS   =  1.00D-10
 THRNRM  =  1.00D-08  THREQ   =  0.00D+00  THRDE   =  1.00D+00  THRREF  =  1.00D-05  SPARFAC =  1.00D+00  THRDLP  =  1.00D-07
 THRDIA  =  1.00D-10  THRDLS  =  1.00D-07  THRGPS  =  0.00D+00  THRKEX  =  0.00D+00  THRDIS  =  2.00D-01  THRVAR  =  1.00D-10
 THRLOC  =  1.00D-06  THRGAP  =  1.00D-06  THRLOCT = -1.00D+00  THRGAPT = -1.00D+00  THRORB  =  1.00D-06  THRMLTP =  0.00D+00
 THRCPQCI=  1.00D-10  KEXTA   =  0.00D+00  THRCOARS=  0.00D+00  SYMTOL  =  1.00D-06  GRADTOL =  1.00D-06  THROVL  =  1.00D-08
 THRORTH =  1.00D-08  GRID    =  1.00D-06  GRIDMAX =  1.00D-03  DTMAX   =  0.00D+00  THROCCDE=  1.00D-01  THROCCDE=  1.00D-01



 THRESHOLDS:

 ZERO    =  1.00D-22  ONEINT  =  1.00D-22  TWOINT  =  1.00D-22  PREFAC  =  1.00D-14  LOCALI  =  1.00D-09  EORDER  =  1.00D-04
 ENERGY  =  1.00D-12  ETEST   =  0.00D+00  EDENS   =  0.00D+00  THRDEDEF=  1.00D-06  GRADIENT=  1.00D-02  STEP    =  1.00D-03
 ORBITAL =  1.00D-05  CIVEC   =  1.00D-05  COEFF   =  1.00D-04  PRINTCI =  5.00D-02  PUNCHCI =  9.90D+01  OPTGRAD =  1.00D-08
 OPTENERG=  1.00D-06  OPTSTEP =  1.00D-08  THRGRAD =  1.00D-10  COMPRESS=  1.00D-11  VARMIN  =  1.00D-07  VARMAX  =  1.00D-03
 THRDOUB =  0.00D+00  THRDIV  =  1.00D-05  THRRED  =  1.00D-07  THRPSP  =  1.00D+00  THRDC   =  1.00D-10  THRCS   =  1.00D-10
 THRNRM  =  1.00D-08  THREQ   =  0.00D+00  THRDE   =  1.00D+00  THRREF  =  1.00D-05  SPARFAC =  1.00D+00  THRDLP  =  1.00D-07
 THRDIA  =  1.00D-10  THRDLS  =  1.00D-07  THRGPS  =  0.00D+00  THRKEX  =  0.00D+00  THRDIS  =  2.00D-01  THRVAR  =  1.00D-10
 THRLOC  =  1.00D-06  THRGAP  =  1.00D-06  THRLOCT = -1.00D+00  THRGAPT = -1.00D+00  THRORB  =  1.00D-06  THRMLTP =  0.00D+00
 THRCPQCI=  1.00D-10  KEXTA   =  0.00D+00  THRCOARS=  0.00D+00  SYMTOL  =  1.00D-06  GRADTOL =  1.00D-06  THROVL  =  1.00D-08
 THRORTH =  1.00D-08  GRID    =  1.00D-06  GRIDMAX =  1.00D-03  DTMAX   =  0.00D+00  THROCCDE=  1.00D-01  THROCCDE=  1.00D-01



 Input parameters for SORTINT:

 COMPRESS =    0.000000
 C_FINAL  =    1.000000
 DEBUG    =   -1.000000
 C_SORT1  =    0.000000
 C_SEWARD =    0.000000
 THRESH   =    0.000000
 IO       =  molpro                                                          
 SPRI     =    0.000000
 SETTING GEOMTYP        =    XYZ
 ZUNIT=BOHR
 

 Variable memory set to  995000000 words,  buffer space   230000 words

 SETTING BASIS          =    USERDEF


 Recomputing integrals since basis changed


 Using spherical harmonics

 Library entry H      S aug-cc-pVTZ          selected for orbital group  1
 Library entry H      P aug-cc-pVTZ          selected for orbital group  1
 Library entry H      D aug-cc-pVTZ          selected for orbital group  1


 PROGRAM * SEWARD (Integral evaluation for generally contracted gaussian basis sets)     Author: Roland Lindh, 1990

 Geometry written to block  1 of record 700


 Point group  Cs  



 ATOMIC COORDINATES

 NR  ATOM    CHARGE       X              Y              Z

   1  H       1.00    0.000000000    1.669482877   -1.939266127
   2  N       7.00    0.000000000   -0.158301834   -1.157236032
   3  O       8.00    0.000000000    0.030586747    1.145912568

 Bond lengths in Bohr (Angstrom)

 1-2  1.988056342  2-3  2.310881296
     ( 1.052034110)     ( 1.222865719)

 Bond angles

  1-2-3  108.47547239

 NUCLEAR CHARGE:                   16
 NUMBER OF PRIMITIVE AOS:         203
 NUMBER OF SYMMETRY AOS:          173
 NUMBER OF CONTRACTIONS:          171   ( 114A'  +  57A"  )
 NUMBER OF CORE ORBITALS:           2   (   2A'  +   0A"  )
 NUMBER OF VALENCE ORBITALS:        9   (   7A'  +   2A"  )


 NUCLEAR REPULSION ENERGY   30.04419498


 Eigenvalues of metric

         1 0.107E-02 0.262E-02 0.340E-02 0.644E-02 0.985E-02 0.137E-01 0.146E-01 0.233E-01
         2 0.364E-01 0.553E-01 0.707E-01 0.944E-01 0.132E+00 0.134E+00 0.140E+00 0.142E+00


 Contracted 2-electron integrals neglected if value below      1.0D-22

       46067744. INTEGRALS WRITTEN OUT IN   11250 BLOCKS ON RECORD 1290 OF FILE 1


 NUMBER OF SORTED TWO-ELECTRON INTEGRALS:   55360566.     BUFFER LENGTH:  32768
 NUMBER OF SEGMENTS:   4  SEGMENT LENGTH:   15997996      RECORD LENGTH: 524288

 Memory used in sort:      16.56 MW

 SORT1 READ    46067744. AND WROTE    46504380. INTEGRALS IN    135 RECORDS. CPU TIME:     1.56 SEC, REAL TIME:     1.92 SEC
 SORT2 READ    46504380. AND WROTE    55360566. INTEGRALS IN      4 RECORDS. CPU TIME:     0.96 SEC, REAL TIME:     1.17 SEC

 FILE SIZES:   FILE 1:   758.0 MBYTE,  FILE 4:   566.3 MBYTE,   TOTAL:   1324.3 MBYTE

 OPERATOR DM      FOR CENTER  0  COORDINATES:    0.000000    0.000000    0.000000


 **********************************************************************************************************************************
 DATASETS  * FILE   NREC   LENGTH (MB)   RECORD NAMES
              1      19      420.71       500      610      700      900      950      970     1000      129      960     1100   
                                          VAR    BASINP    GEOM    SYMINP    ZMAT    AOBASIS   BASIS     P2S    ABASIS      S 
                                         1400     1410     1200     1210     1080     1600     1650     1300     1700   
                                           T        V       H0       H01     AOSYM     SMH    MOLCAS    ERIS     OPER   

 PROGRAMS   *        TOTAL       INT
 CPU TIMES  *         6.83      6.73
 REAL TIME  *         8.51 SEC
 DISK USED  *         1.32 GB      
 **********************************************************************************************************************************


 PROGRAM * RHF-SCF (CLOSED SHELL)       Authors: W. Meyer, H.-J. Werner


 NUMBER OF ELECTRONS:       8+    8-
 CONVERGENCE THRESHOLDS:    1.00E-10 (Density)    1.00E-13 (Energy)
 MAX. NUMBER OF ITERATIONS:      500
 INTERPOLATION TYPE:            DIIS
 INTERPOLATION STEPS:              2 (START)      1 (STEP)
 LEVEL SHIFTS:                  0.00 (CLOSED)  0.00 (OPEN) 



 Orbital guess generated from atomic densities. Full valence occupancy:    9   2

 Molecular orbital dump at record        2100.2

 Initial occupancy:   7   1

 ITERATION    DDIFF          GRAD             ENERGY        2-EL.EN.            DIPOLE MOMENTS         DIIS   ORB.
    1      0.000D+00      0.000D+00      -129.78466762    153.480181    0.00000    0.57883   -1.06260    0    start
    2      0.000D+00      0.893D-02      -129.81099721    154.623739    0.00000    0.60673   -0.18800    1    diag
    3      0.373D-02      0.702D-02      -129.83638668    154.777612    0.00000    0.55469   -0.60619    2    diag
    4      0.148D-02      0.106D-02      -129.83720121    154.492252    0.00000    0.56228   -0.54117    3    diag
    5      0.337D-03      0.344D-03      -129.83732691    154.581711    0.00000    0.56834   -0.54334    4    diag
    6      0.155D-03      0.101D-03      -129.83734750    154.565425    0.00000    0.56884   -0.53895    5    diag
    7      0.613D-04      0.514D-04      -129.83735382    154.567810    0.00000    0.57013   -0.53624    6    diag
    8      0.421D-04      0.184D-04      -129.83735459    154.566913    0.00000    0.57018   -0.53521    7    diag
    9      0.158D-04      0.350D-05      -129.83735463    154.566785    0.00000    0.57012   -0.53500    8    diag
   10      0.331D-05      0.773D-06      -129.83735463    154.566770    0.00000    0.57009   -0.53498    9    orth
   11      0.916D-06      0.152D-06      -129.83735463    154.566766    0.00000    0.57008   -0.53498    9    diag
   12      0.212D-06      0.328D-07      -129.83735463    154.566765    0.00000    0.57008   -0.53497    9    diag
   13      0.524D-07      0.901D-08      -129.83735463    154.566765    0.00000    0.57008   -0.53497    9    diag
   14      0.124D-07      0.159D-08      -129.83735463    154.566765    0.00000    0.57008   -0.53497    9    diag
   15      0.142D-08      0.419D-09      -129.83735463    154.566765    0.00000    0.57008   -0.53497    9    diag
   16      0.354D-09      0.121D-09      -129.83735463    154.566765    0.00000    0.57008   -0.53497    9    diag
   17      0.651D-10      0.323D-10      -129.83735463    154.566765    0.00000    0.57008   -0.53497    0    orth

 Final occupancy:   7   1

 !RHF STATE 1.1 Energy               -129.837354629549
 Nuclear energy                        30.04419498
 One-electron energy                 -237.16493210
 Two-electron energy                   77.28338250
 Virial quotient                       -1.00207085
 !RHF STATE 1.1 Dipole moment           0.00000000     0.57007572    -0.53497328
 Dipole moment /Debye                   0.00000000     1.44889304    -1.35967740

 Orbital energies:

         1.1          2.1          3.1          4.1          5.1          6.1          7.1          8.1          9.1
    -20.652723   -15.713062    -1.515857    -0.996540    -0.740681    -0.660000    -0.433018     0.039444     0.192019

         1.2          2.2          3.2
     -0.587202     0.073843     0.239083

 HOMO      7.1    -0.433018 =     -11.7830eV
 LUMO      8.1     0.039444 =       1.0733eV
 LUMO-HOMO         0.472462 =      12.8564eV


 **********************************************************************************************************************************
 DATASETS  * FILE   NREC   LENGTH (MB)   RECORD NAMES
              1      19      420.71       500      610      700      900      950      970     1000      129      960     1100   
                                          VAR    BASINP    GEOM    SYMINP    ZMAT    AOBASIS   BASIS     P2S    ABASIS      S 
                                         1400     1410     1200     1210     1080     1600     1650     1300     1700   
                                           T        V       H0       H01     AOSYM     SMH    MOLCAS    ERIS     OPER   

              2       4        3.13       700     1000      520     2100   
                                         GEOM     BASIS   MCVARS     RHF  

 PROGRAMS   *        TOTAL        HF       INT
 CPU TIMES  *        12.88      6.05      6.73
 REAL TIME  *        15.91 SEC
 DISK USED  *         1.32 GB      
 **********************************************************************************************************************************


 PROGRAM * CCSD (Closed-shell coupled cluster)     Authors: C. Hampel, H.-J. Werner, 1991, M. Deegan, P.J. Knowles, 1992


 Convergence thresholds:  THRVAR = 1.00D-08  THRDEN = 1.00D-12

 CCSD(T)     terms to be evaluated (factor= 1.000)


 Number of core orbitals:           2 (   2   0 )
 Number of closed-shell orbitals:   6 (   5   1 )
 Number of external orbitals:     163 ( 107  56 )

 Molecular orbitals read from record     2100.2  Type=RHF/CANONICAL (state 1.1)

 Number of N-1 electron functions:               6
 Number of N-2 electron functions:              21
 Number of singly external CSFs:               591
 Number of doubly external CSFs:            250014
 Total number of CSFs:                      250606

 Length of J-op  integral file:               0.00 MB
 Length of K-op  integral file:               1.15 MB
 Length of 3-ext integral record:             0.00 MB

 Memory could be reduced to 19.93 Mwords without degradation in triples

 Integral transformation finished. Total CPU:   1.06 sec, npass=  1  Memory used:   5.10 MW

 Reference energy:                   -129.83735463

 MP2 singlet pair energy:              -0.28839654
 MP2 triplet pair energy:              -0.16820569
 MP2 correlation energy:               -0.45660222
 MP2 total energy:                   -130.29395685

 SCS-MP2 correlation energy:           -0.45073716   (PS=  1.200000  PT=  0.333333)
 SCS-MP2 total energy:               -130.28809179

 ITER.      SQ.NORM     CORR.ENERGY   TOTAL ENERGY   ENERGY CHANGE        DEN1      VAR(S)    VAR(P)  DIIS     TIME  TIME/IT
   1      1.12042170    -0.45816571  -130.29552034    -0.00156348     0.01586619  0.34D-02  0.33D-02  1  1     1.98     1.02
   2      1.13132834    -0.45795224  -130.29530687     0.00021347    -0.01290016  0.13D-03  0.52D-03  2  2     2.96     1.05
   3      1.13819859    -0.45834637  -130.29570100    -0.00039413    -0.00346396  0.48D-04  0.62D-04  3  3     3.91     1.05
   4      1.14125255    -0.45837997  -130.29573460    -0.00003360    -0.00099370  0.49D-05  0.10D-04  4  4     4.92     1.06
   5      1.14243762    -0.45841564  -130.29577027    -0.00003568    -0.00024143  0.14D-05  0.18D-05  5  5     5.92     1.06
   6      1.14286470    -0.45839820  -130.29575283     0.00001745    -0.00007095  0.13D-06  0.44D-06  6  6     6.94     1.07
   7      1.14293833    -0.45839986  -130.29575449    -0.00000166     0.00000949  0.17D-07  0.99D-07  6  1     7.90     1.07
   8      1.14297436    -0.45839925  -130.29575388     0.00000061    -0.00000510  0.49D-08  0.16D-07  6  2     8.91     1.07
   9      1.14297985    -0.45839911  -130.29575373     0.00000015     0.00000123  0.23D-08  0.19D-08  6  3     9.85     1.07
  10      1.14298043    -0.45839945  -130.29575408    -0.00000034    -0.00000035  0.55D-09  0.30D-09  6  4    10.79     1.07
  11      1.14297885    -0.45839959  -130.29575422    -0.00000015     0.00000036  0.14D-09  0.30D-10  6  5    11.76     1.07
  12      1.14297763    -0.45839976  -130.29575439    -0.00000016     0.00000050  0.17D-10  0.85D-11  6  6    12.76     1.07
  13      1.14297692    -0.45839978  -130.29575441    -0.00000002     0.00000013  0.63D-11  0.15D-11  6  1    13.77     1.07
  14      1.14297637    -0.45839981  -130.29575444    -0.00000003     0.00000013  0.55D-12  0.50D-12  6  3    14.72     1.07
  15      1.14297620    -0.45839981  -130.29575444     0.00000000     0.00000001  0.15D-12  0.36D-13  6  2    15.73     1.07
  16      1.14297614    -0.45839981  -130.29575444    -0.00000000     0.00000001  0.34D-13  0.85D-14  6  4    16.74     1.08
  17      1.14297611    -0.45839981  -130.29575444    -0.00000000     0.00000001  0.48D-14  0.13D-14  6  5    17.72     1.08
  18      1.14297611    -0.45839981  -130.29575444    -0.00000000     0.00000000  0.57D-15  0.37D-15  6  6    18.72     1.08
  19      1.14297611    -0.45839981  -130.29575444     0.00000000    -0.00000000  0.79D-16  0.54D-16  6  1    19.67     1.08
  20      1.14297612    -0.45839981  -130.29575444     0.00000000    -0.00000000  0.40D-17  0.13D-16  6  3    20.69     1.08
  21      1.14297612    -0.45839981  -130.29575444     0.00000000    -0.00000000  0.63D-18  0.29D-17  6  4    21.67     1.08
  22      1.14297612    -0.45839981  -130.29575444     0.00000000    -0.00000000  0.48D-19  0.10D-17  6  2    22.64     1.08
  23      1.14297612    -0.45839981  -130.29575444    -0.00000000     0.00000000  0.94D-19  0.20D-18  6  5    23.61     1.08
  24      1.14297612    -0.45839981  -130.29575444    -0.00000000     0.00000000  0.53D-20  0.19D-19  6  1    24.57     1.08
  25      1.14297612    -0.45839981  -130.29575444     0.00000000    -0.00000000  0.27D-20  0.14D-20  6  6    25.59     1.08

 Norm of t1 vector:      0.07970956      S-energy:     0.00000000      T1 diagnostic:  0.01627064
                                                                       D1 diagnostic:  0.04498423

 Doubles amplitudes (print threshold =  0.500E-01):

         I         J         SYM. A    SYM. B    A         B      T(IJ, AB)

         6         6         2         2         1         1     -0.13989040


 Total CPU time for triples:     10.20 sec


 RESULTS
 =======

  Reference energy                   -129.837354629549
  CCSD singlet pair energy             -0.315182459623
  CCSD triplet pair energy             -0.143217353354
  CCSD correlation energy              -0.458399812966

  Triples (T) contribution             -0.021666066358
  Total correlation energy             -0.480065879324

  CCSD total energy                  -130.295754442516
  CCSD[T] energy                     -130.318585607117
  CCSD-T energy                      -130.316989287771
 !CCSD(T) total energy               -130.317420508873

 Timing summary (sec):

 STEP                 CPU(USER)    SYS     CPU(TOT)    WALL
 Transformation          1.07      0.17      1.24      1.25
 CCSD iterations        24.52      2.40     26.92     26.92
 Triples                10.20      0.32     10.52     10.51

 Program statistics:

 Available memory in ccsd:               994999756
 Min. memory needed in ccsd:                887758
 Max. memory used in ccsd:                 1088212
 Max. memory used in cckext:               1535578 (25 integral passes)



 **********************************************************************************************************************************
 DATASETS  * FILE   NREC   LENGTH (MB)   RECORD NAMES
              1      20      478.66       500      610      700      900      950      970     1000      129      960     1100   
                                          VAR    BASINP    GEOM    SYMINP    ZMAT    AOBASIS   BASIS     P2S    ABASIS      S 
                                         1400     1410     1200     1210     1080     1600     1650     1300     1700     1380   
                                           T        V       H0       H01     AOSYM     SMH    MOLCAS    ERIS     OPER     JKOP   

              2       4        3.13       700     1000      520     2100   
                                         GEOM     BASIS   MCVARS     RHF  

 PROGRAMS   *        TOTAL   CCSD(T)        HF       INT
 CPU TIMES  *        48.70     35.82      6.05      6.73
 REAL TIME  *        54.63 SEC
 DISK USED  *         1.32 GB      
 **********************************************************************************************************************************

 CCSD(T)/USERDEF energy=   -130.317420508873

        CCSD(T)         HF-SCF  
   -130.31742051   -129.83735463
 **********************************************************************************************************************************
 Molpro calculation terminated
 Variable memory released
