
 Primary working directories    : /tmp/r2666/282342.maple
 Secondary working directories  : /tmp/r2666/282342.maple
 Wavefunction directory         : /ddn/home4/r2666/wfu/
 Main file repository           : /tmp/r2666/282342.maple/

 SHA1      : d5ffa45e93fdbca01ffc919aa182cfdae0147319
 NAME      : 2015.1.35
 ARCHNAME  : linux/x86_64
 FC        : /opt/intel/composer_xe_2015.1.133/bin/intel64/ifort
 BLASLIB   : -Wl,-_start-group /opt/intel/mkl/lib/intel64/libmkl_intel_ilp64.a /opt/intel/mkl/lib/intel64/libmkl_intel_thread.a /opt/intel/mkl/lib/intel64/libmkl_core.a -Wl,-_end-group
 id        : olemiss

 Nodes     nprocs
 cn080        1

 Using customized tuning parameters: mindgm=1; mindgv=20; mindgc=4; mindgr=1; noblas=0; minvec=7
 default implementation of scratch files=df  

 ***,hno CCSD(T)/TZ-F12 QFF
 memory, 995, m;
 gthresh,energy=1.d-12,zero=1.d-22,oneint=1.d-22,twoint=1.d-22;
 gthresh,optgrad=1.d-8,optstep=1.d-8;
 nocompress;
 geomtyp=xyz
 bohr
 geometry={
 3
        110       110
 H        0.0000000000        1.6738228769       -1.9392761901
 N        0.0000000000       -0.1640990632       -1.1569277669
 O        0.0000000000        0.0320439762        1.1456143660
 }
 
 basis={
 default=aug-cc-pvtz
 s,C,8236.0,1235.0,280.8, 79.27,25.59, 8.997,3.319
 s,C,0.9059,0.3643,0.1285000
 p,C,56.0,18.71,4.133,0.2827,0.3827,0.1209
 d,C,30.0,10.0,3.3,1.097,0.318
 f,C,7.0,2.3,0.7610
 s,N,11420.0,1712.0,389.3,110.0,35.57,12.54,4.644
 s,N,1.293,0.5118,0.1787
 p,N,79.89,26.63,5.948,1.742,0.555,0.1725
 d,N,45.0,15.0,5.0,1.654,0.469
 f,N,9.9,3.3,1.093
 s,O,15330.0,2299.0,522.4,147.3,47.55,16.76,6.207
 s,O,1.752,0.6882,0.2384
 p,O,103.5,34.46,7.749,2.28,0.7156,0.214
 d,O,63.0,21.0,7.0,2.314,0.645
 f,O,12.9,4.3,1.428
 s,mg,164900.0,24710.0,5628.0,1596.0,521.0;
 s,mg,188.0,73.01,29.90,12.54,4.306,1.826;
 s,mg,0.7417,0.0761,0.145,0.033,0.0129;
 p,mg,950.70,316.90,74.86,23.72,8.669,3.363;
 p,mg,1.310,0.4911,0.2364,0.08733,0.03237,0.00745;
 d,mg,1.601,0.686,0.126,0.294,0.0468;
 f,mg,1.372,0.588,0.094,0.252;
 }
   {hf,maxit=500;accu,20;}
 {ccsd(t),nocheck,maxit=250;orbital,IGNORE_ERROR;}

 Variables initialized (889), CPU time= 0.00 sec
 Commands  initialized (702), CPU time= 0.01 sec, 572 directives.
 Default parameters read. Elapsed time= 0.05 sec

 Checking input...
 Passed
1


                                         ***  PROGRAM SYSTEM MOLPRO  ***
                                       Copyright, TTI GmbH Stuttgart, 2015
                                    Version 2015.1 linked Jul  9 2018 13:16:40


 **********************************************************************************************************************************
 LABEL *   hno CCSD(T)/TZ-F12 QFF                                                        
  64 bit serial version                                                                  DATE: 04-Mar-20          TIME: 13:48:17  
 **********************************************************************************************************************************

 SHA1:             d5ffa45e93fdbca01ffc919aa182cfdae0147319
 **********************************************************************************************************************************

 THRESHOLDS:

 ZERO    =  1.00D-22  ONEINT  =  1.00D-22  TWOINT  =  1.00D-22  PREFAC  =  1.00D-14  LOCALI  =  1.00D-09  EORDER  =  1.00D-04
 ENERGY  =  1.00D-12  ETEST   =  0.00D+00  EDENS   =  0.00D+00  THRDEDEF=  1.00D-06  GRADIENT=  1.00D-02  STEP    =  1.00D-03
 ORBITAL =  1.00D-05  CIVEC   =  1.00D-05  COEFF   =  1.00D-04  PRINTCI =  5.00D-02  PUNCHCI =  9.90D+01  OPTGRAD =  3.00D-04
 OPTENERG=  1.00D-06  OPTSTEP =  3.00D-04  THRGRAD =  1.00D-10  COMPRESS=  1.00D-11  VARMIN  =  1.00D-07  VARMAX  =  1.00D-03
 THRDOUB =  0.00D+00  THRDIV  =  1.00D-05  THRRED  =  1.00D-07  THRPSP  =  1.00D+00  THRDC   =  1.00D-10  THRCS   =  1.00D-10
 THRNRM  =  1.00D-08  THREQ   =  0.00D+00  THRDE   =  1.00D+00  THRREF  =  1.00D-05  SPARFAC =  1.00D+00  THRDLP  =  1.00D-07
 THRDIA  =  1.00D-10  THRDLS  =  1.00D-07  THRGPS  =  0.00D+00  THRKEX  =  0.00D+00  THRDIS  =  2.00D-01  THRVAR  =  1.00D-10
 THRLOC  =  1.00D-06  THRGAP  =  1.00D-06  THRLOCT = -1.00D+00  THRGAPT = -1.00D+00  THRORB  =  1.00D-06  THRMLTP =  0.00D+00
 THRCPQCI=  1.00D-10  KEXTA   =  0.00D+00  THRCOARS=  0.00D+00  SYMTOL  =  1.00D-06  GRADTOL =  1.00D-06  THROVL  =  1.00D-08
 THRORTH =  1.00D-08  GRID    =  1.00D-06  GRIDMAX =  1.00D-03  DTMAX   =  0.00D+00  THROCCDE=  1.00D-01  THROCCDE=  1.00D-01



 THRESHOLDS:

 ZERO    =  1.00D-22  ONEINT  =  1.00D-22  TWOINT  =  1.00D-22  PREFAC  =  1.00D-14  LOCALI  =  1.00D-09  EORDER  =  1.00D-04
 ENERGY  =  1.00D-12  ETEST   =  0.00D+00  EDENS   =  0.00D+00  THRDEDEF=  1.00D-06  GRADIENT=  1.00D-02  STEP    =  1.00D-03
 ORBITAL =  1.00D-05  CIVEC   =  1.00D-05  COEFF   =  1.00D-04  PRINTCI =  5.00D-02  PUNCHCI =  9.90D+01  OPTGRAD =  1.00D-08
 OPTENERG=  1.00D-06  OPTSTEP =  1.00D-08  THRGRAD =  1.00D-10  COMPRESS=  1.00D-11  VARMIN  =  1.00D-07  VARMAX  =  1.00D-03
 THRDOUB =  0.00D+00  THRDIV  =  1.00D-05  THRRED  =  1.00D-07  THRPSP  =  1.00D+00  THRDC   =  1.00D-10  THRCS   =  1.00D-10
 THRNRM  =  1.00D-08  THREQ   =  0.00D+00  THRDE   =  1.00D+00  THRREF  =  1.00D-05  SPARFAC =  1.00D+00  THRDLP  =  1.00D-07
 THRDIA  =  1.00D-10  THRDLS  =  1.00D-07  THRGPS  =  0.00D+00  THRKEX  =  0.00D+00  THRDIS  =  2.00D-01  THRVAR  =  1.00D-10
 THRLOC  =  1.00D-06  THRGAP  =  1.00D-06  THRLOCT = -1.00D+00  THRGAPT = -1.00D+00  THRORB  =  1.00D-06  THRMLTP =  0.00D+00
 THRCPQCI=  1.00D-10  KEXTA   =  0.00D+00  THRCOARS=  0.00D+00  SYMTOL  =  1.00D-06  GRADTOL =  1.00D-06  THROVL  =  1.00D-08
 THRORTH =  1.00D-08  GRID    =  1.00D-06  GRIDMAX =  1.00D-03  DTMAX   =  0.00D+00  THROCCDE=  1.00D-01  THROCCDE=  1.00D-01



 Input parameters for SORTINT:

 COMPRESS =    0.000000
 C_FINAL  =    1.000000
 DEBUG    =   -1.000000
 C_SORT1  =    0.000000
 C_SEWARD =    0.000000
 THRESH   =    0.000000
 IO       =  molpro                                                          
 SPRI     =    0.000000
 SETTING GEOMTYP        =    XYZ
 ZUNIT=BOHR
 

 Variable memory set to  995000000 words,  buffer space   230000 words

 SETTING BASIS          =    USERDEF


 Recomputing integrals since basis changed


 Using spherical harmonics

 Library entry H      S aug-cc-pVTZ          selected for orbital group  1
 Library entry H      P aug-cc-pVTZ          selected for orbital group  1
 Library entry H      D aug-cc-pVTZ          selected for orbital group  1


 PROGRAM * SEWARD (Integral evaluation for generally contracted gaussian basis sets)     Author: Roland Lindh, 1990

 Geometry written to block  1 of record 700


 Point group  Cs  



 ATOMIC COORDINATES

 NR  ATOM    CHARGE       X              Y              Z

   1  H       1.00    0.000000000    1.673822877   -1.939276190
   2  N       7.00    0.000000000   -0.164099063   -1.156927767
   3  O       8.00    0.000000000    0.032043976    1.145614366

 Bond lengths in Bohr (Angstrom)

 1-2  1.997504972  2-3  2.310881296
     ( 1.057034110)     ( 1.222865719)

 Bond angles

  1-2-3  108.18899349

 NUCLEAR CHARGE:                   16
 NUMBER OF PRIMITIVE AOS:         203
 NUMBER OF SYMMETRY AOS:          173
 NUMBER OF CONTRACTIONS:          171   ( 114A'  +  57A"  )
 NUMBER OF CORE ORBITALS:           2   (   2A'  +   0A"  )
 NUMBER OF VALENCE ORBITALS:        9   (   7A'  +   2A"  )


 NUCLEAR REPULSION ENERGY   30.02681961


 Eigenvalues of metric

         1 0.108E-02 0.262E-02 0.342E-02 0.647E-02 0.100E-01 0.138E-01 0.146E-01 0.235E-01
         2 0.371E-01 0.553E-01 0.712E-01 0.944E-01 0.132E+00 0.135E+00 0.141E+00 0.142E+00


 Contracted 2-electron integrals neglected if value below      1.0D-22

       46068669. INTEGRALS WRITTEN OUT IN   11250 BLOCKS ON RECORD 1290 OF FILE 1


 NUMBER OF SORTED TWO-ELECTRON INTEGRALS:   55360566.     BUFFER LENGTH:  32768
 NUMBER OF SEGMENTS:   4  SEGMENT LENGTH:   15997996      RECORD LENGTH: 524288

 Memory used in sort:      16.56 MW

 SORT1 READ    46068669. AND WROTE    46505311. INTEGRALS IN    135 RECORDS. CPU TIME:     0.72 SEC, REAL TIME:     1.05 SEC
 SORT2 READ    46505311. AND WROTE    55360566. INTEGRALS IN      4 RECORDS. CPU TIME:     0.63 SEC, REAL TIME:     0.87 SEC

 FILE SIZES:   FILE 1:   758.0 MBYTE,  FILE 4:   566.3 MBYTE,   TOTAL:   1324.3 MBYTE

 OPERATOR DM      FOR CENTER  0  COORDINATES:    0.000000    0.000000    0.000000


 **********************************************************************************************************************************
 DATASETS  * FILE   NREC   LENGTH (MB)   RECORD NAMES
              1      19      420.72       500      610      700      900      950      970     1000      129      960     1100   
                                          VAR    BASINP    GEOM    SYMINP    ZMAT    AOBASIS   BASIS     P2S    ABASIS      S 
                                         1400     1410     1200     1210     1080     1600     1650     1300     1700   
                                           T        V       H0       H01     AOSYM     SMH    MOLCAS    ERIS     OPER   

 PROGRAMS   *        TOTAL       INT
 CPU TIMES  *         4.13      4.02
 REAL TIME  *         5.62 SEC
 DISK USED  *         1.32 GB      
 **********************************************************************************************************************************


 PROGRAM * RHF-SCF (CLOSED SHELL)       Authors: W. Meyer, H.-J. Werner


 NUMBER OF ELECTRONS:       8+    8-
 CONVERGENCE THRESHOLDS:    1.00E-10 (Density)    1.00E-13 (Energy)
 MAX. NUMBER OF ITERATIONS:      500
 INTERPOLATION TYPE:            DIIS
 INTERPOLATION STEPS:              2 (START)      1 (STEP)
 LEVEL SHIFTS:                  0.00 (CLOSED)  0.00 (OPEN) 



 Orbital guess generated from atomic densities. Full valence occupancy:    9   2

 Molecular orbital dump at record        2100.2

 Initial occupancy:   7   1

 ITERATION    DDIFF          GRAD             ENERGY        2-EL.EN.            DIPOLE MOMENTS         DIIS   ORB.
    1      0.000D+00      0.000D+00      -129.78420688    153.447219    0.00000    0.57303   -1.06281    0    start
    2      0.000D+00      0.895D-02      -129.81052227    154.594739    0.00000    0.60659   -0.18473    1    diag
    3      0.372D-02      0.705D-02      -129.83619192    154.747611    0.00000    0.55185   -0.60464    2    diag
    4      0.149D-02      0.105D-02      -129.83700648    154.461714    0.00000    0.55956   -0.53973    3    diag
    5      0.336D-03      0.345D-03      -129.83713330    154.551495    0.00000    0.56565   -0.54190    4    diag
    6      0.155D-03      0.102D-03      -129.83715415    154.535126    0.00000    0.56615   -0.53749    5    diag
    7      0.615D-04      0.516D-04      -129.83716054    154.537538    0.00000    0.56745   -0.53478    6    diag
    8      0.422D-04      0.185D-04      -129.83716133    154.536634    0.00000    0.56750   -0.53375    7    diag
    9      0.159D-04      0.353D-05      -129.83716136    154.536504    0.00000    0.56745   -0.53354    8    diag
   10      0.332D-05      0.777D-06      -129.83716136    154.536489    0.00000    0.56741   -0.53351    9    orth
   11      0.914D-06      0.153D-06      -129.83716136    154.536484    0.00000    0.56740   -0.53351    9    diag
   12      0.213D-06      0.330D-07      -129.83716136    154.536484    0.00000    0.56740   -0.53351    9    diag
   13      0.529D-07      0.908D-08      -129.83716136    154.536483    0.00000    0.56740   -0.53351    9    diag
   14      0.126D-07      0.159D-08      -129.83716136    154.536483    0.00000    0.56740   -0.53351    9    diag
   15      0.144D-08      0.419D-09      -129.83716136    154.536483    0.00000    0.56740   -0.53351    9    diag
   16      0.353D-09      0.120D-09      -129.83716136    154.536483    0.00000    0.56740   -0.53351    9    diag
   17      0.656D-10      0.318D-10      -129.83716136    154.536483    0.00000    0.56740   -0.53351    9    diag
   18      0.184D-10      0.104D-10      -129.83716136    154.536483    0.00000    0.56740   -0.53351    0    orth

 Final occupancy:   7   1

 !RHF STATE 1.1 Energy               -129.837161363930
 Nuclear energy                        30.02681961
 One-electron energy                 -237.13222265
 Two-electron energy                   77.26824168
 Virial quotient                       -1.00212160
 !RHF STATE 1.1 Dipole moment           0.00000000     0.56740103    -0.53350746
 Dipole moment /Debye                   0.00000000     1.44209511    -1.35595190

 Orbital energies:

         1.1          2.1          3.1          4.1          5.1          6.1          7.1          8.1          9.1
    -20.652741   -15.713781    -1.515934    -0.995118    -0.740121    -0.659951    -0.432917     0.039441     0.191583

         1.2          2.2          3.2
     -0.587306     0.073923     0.239011

 HOMO      7.1    -0.432917 =     -11.7803eV
 LUMO      8.1     0.039441 =       1.0732eV
 LUMO-HOMO         0.472358 =      12.8535eV


 **********************************************************************************************************************************
 DATASETS  * FILE   NREC   LENGTH (MB)   RECORD NAMES
              1      19      420.72       500      610      700      900      950      970     1000      129      960     1100   
                                          VAR    BASINP    GEOM    SYMINP    ZMAT    AOBASIS   BASIS     P2S    ABASIS      S 
                                         1400     1410     1200     1210     1080     1600     1650     1300     1700   
                                           T        V       H0       H01     AOSYM     SMH    MOLCAS    ERIS     OPER   

              2       4        3.13       700     1000      520     2100   
                                         GEOM     BASIS   MCVARS     RHF  

 PROGRAMS   *        TOTAL        HF       INT
 CPU TIMES  *         8.72      4.60      4.02
 REAL TIME  *        11.19 SEC
 DISK USED  *         1.32 GB      
 **********************************************************************************************************************************


 PROGRAM * CCSD (Closed-shell coupled cluster)     Authors: C. Hampel, H.-J. Werner, 1991, M. Deegan, P.J. Knowles, 1992


 Convergence thresholds:  THRVAR = 1.00D-08  THRDEN = 1.00D-12

 CCSD(T)     terms to be evaluated (factor= 1.000)


 Number of core orbitals:           2 (   2   0 )
 Number of closed-shell orbitals:   6 (   5   1 )
 Number of external orbitals:     163 ( 107  56 )

 Molecular orbitals read from record     2100.2  Type=RHF/CANONICAL (state 1.1)

 Number of N-1 electron functions:               6
 Number of N-2 electron functions:              21
 Number of singly external CSFs:               591
 Number of doubly external CSFs:            250014
 Total number of CSFs:                      250606

 Length of J-op  integral file:               0.00 MB
 Length of K-op  integral file:               1.15 MB
 Length of 3-ext integral record:             0.00 MB

 Memory could be reduced to 19.93 Mwords without degradation in triples

 Integral transformation finished. Total CPU:   0.69 sec, npass=  1  Memory used:   5.10 MW

 Reference energy:                   -129.83716136

 MP2 singlet pair energy:              -0.28851035
 MP2 triplet pair energy:              -0.16827268
 MP2 correlation energy:               -0.45678303
 MP2 total energy:                   -130.29394440

 SCS-MP2 correlation energy:           -0.45091542   (PS=  1.200000  PT=  0.333333)
 SCS-MP2 total energy:               -130.28807679

 ITER.      SQ.NORM     CORR.ENERGY   TOTAL ENERGY   ENERGY CHANGE        DEN1      VAR(S)    VAR(P)  DIIS     TIME  TIME/IT
   1      1.12058268    -0.45833363  -130.29549499    -0.00155059     0.01591909  0.34D-02  0.33D-02  1  1     1.31     0.66
   2      1.13151704    -0.45811758  -130.29527894     0.00021605    -0.01292506  0.13D-03  0.52D-03  2  2     1.92     0.68
   3      1.13841259    -0.45851446  -130.29567582    -0.00039688    -0.00347459  0.49D-04  0.62D-04  3  3     2.55     0.68
   4      1.14147345    -0.45854760  -130.29570896    -0.00003314    -0.00099684  0.50D-05  0.10D-04  4  4     3.17     0.69
   5      1.14266303    -0.45858362  -130.29574499    -0.00003603    -0.00024235  0.15D-05  0.18D-05  5  5     3.81     0.69
   6      1.14309120    -0.45856612  -130.29572748     0.00001750    -0.00007117  0.13D-06  0.43D-06  6  6     4.41     0.69
   7      1.14316517    -0.45856771  -130.29572907    -0.00000159     0.00000945  0.18D-07  0.97D-07  6  1     5.05     0.69
   8      1.14320133    -0.45856707  -130.29572843     0.00000063    -0.00000513  0.47D-08  0.16D-07  6  2     5.68     0.69
   9      1.14320697    -0.45856691  -130.29572827     0.00000016     0.00000121  0.23D-08  0.19D-08  6  3     6.29     0.69
  10      1.14320757    -0.45856725  -130.29572861    -0.00000034    -0.00000034  0.54D-09  0.30D-09  6  4     6.92     0.69
  11      1.14320600    -0.45856740  -130.29572876    -0.00000015     0.00000036  0.14D-09  0.30D-10  6  5     7.51     0.69
  12      1.14320477    -0.45856756  -130.29572893    -0.00000016     0.00000050  0.17D-10  0.85D-11  6  6     8.13     0.69
  13      1.14320406    -0.45856758  -130.29572895    -0.00000002     0.00000013  0.63D-11  0.15D-11  6  1     8.75     0.69
  14      1.14320350    -0.45856761  -130.29572898    -0.00000003     0.00000013  0.56D-12  0.50D-12  6  3     9.38     0.69
  15      1.14320333    -0.45856761  -130.29572898     0.00000000     0.00000001  0.15D-12  0.36D-13  6  2     9.97     0.69
  16      1.14320327    -0.45856762  -130.29572898    -0.00000000     0.00000001  0.35D-13  0.85D-14  6  4    10.61     0.70
  17      1.14320325    -0.45856762  -130.29572898    -0.00000000     0.00000001  0.49D-14  0.13D-14  6  5    11.21     0.70
  18      1.14320325    -0.45856762  -130.29572898     0.00000000     0.00000000  0.56D-15  0.38D-15  6  6    11.83     0.70
  19      1.14320325    -0.45856762  -130.29572898     0.00000000    -0.00000000  0.80D-16  0.54D-16  6  1    12.43     0.70
  20      1.14320325    -0.45856762  -130.29572898     0.00000000    -0.00000000  0.40D-17  0.13D-16  6  3    13.06     0.70
  21      1.14320325    -0.45856762  -130.29572898     0.00000000    -0.00000000  0.62D-18  0.30D-17  6  4    13.67     0.70
  22      1.14320325    -0.45856762  -130.29572898     0.00000000    -0.00000000  0.39D-19  0.10D-17  6  2    14.29     0.70
  23      1.14320325    -0.45856762  -130.29572898    -0.00000000     0.00000000  0.88D-19  0.20D-18  6  5    14.90     0.70
  24      1.14320325    -0.45856762  -130.29572898    -0.00000000     0.00000000  0.52D-20  0.19D-19  6  1    15.49     0.70
  25      1.14320325    -0.45856762  -130.29572898     0.00000000    -0.00000000  0.26D-20  0.13D-20  6  6    16.10     0.70

 Norm of t1 vector:      0.07986480      S-energy:     0.00000000      T1 diagnostic:  0.01630233
                                                                       D1 diagnostic:  0.04497102

 Doubles amplitudes (print threshold =  0.500E-01):

         I         J         SYM. A    SYM. B    A         B      T(IJ, AB)

         6         6         2         2         1         1     -0.13988109


 Total CPU time for triples:      8.23 sec


 RESULTS
 =======

  Reference energy                   -129.837161363930
  CCSD singlet pair energy             -0.315326114802
  CCSD triplet pair energy             -0.143241501831
  CCSD correlation energy              -0.458567616630

  Triples (T) contribution             -0.021696693306
  Total correlation energy             -0.480264309936

  CCSD total energy                  -130.295728980560
  CCSD[T] energy                     -130.318594679739
  CCSD-T energy                      -130.316992794698
 !CCSD(T) total energy               -130.317425673866

 Timing summary (sec):

 STEP                 CPU(USER)    SYS     CPU(TOT)    WALL
 Transformation          0.69      0.16      0.85      0.86
 CCSD iterations        15.41      2.04     17.45     17.46
 Triples                 8.23      0.26      8.49      8.48

 Program statistics:

 Available memory in ccsd:               994999756
 Min. memory needed in ccsd:                887758
 Max. memory used in ccsd:                 1088212
 Max. memory used in cckext:               1535578 (25 integral passes)



 **********************************************************************************************************************************
 DATASETS  * FILE   NREC   LENGTH (MB)   RECORD NAMES
              1      20      478.67       500      610      700      900      950      970     1000      129      960     1100   
                                          VAR    BASINP    GEOM    SYMINP    ZMAT    AOBASIS   BASIS     P2S    ABASIS      S 
                                         1400     1410     1200     1210     1080     1600     1650     1300     1700     1380   
                                           T        V       H0       H01     AOSYM     SMH    MOLCAS    ERIS     OPER     JKOP   

              2       4        3.13       700     1000      520     2100   
                                         GEOM     BASIS   MCVARS     RHF  

 PROGRAMS   *        TOTAL   CCSD(T)        HF       INT
 CPU TIMES  *        33.09     24.37      4.60      4.02
 REAL TIME  *        38.84 SEC
 DISK USED  *         1.32 GB      
 **********************************************************************************************************************************

 CCSD(T)/USERDEF energy=   -130.317425673866

        CCSD(T)         HF-SCF  
   -130.31742567   -129.83716136
 **********************************************************************************************************************************
 Molpro calculation terminated
 Variable memory released
