
 Primary working directories    : /tmp/r2666/282233.maple
 Secondary working directories  : /tmp/r2666/282233.maple
 Wavefunction directory         : /ddn/home4/r2666/wfu/
 Main file repository           : /tmp/r2666/282233.maple/

 SHA1      : d5ffa45e93fdbca01ffc919aa182cfdae0147319
 NAME      : 2015.1.35
 ARCHNAME  : linux/x86_64
 FC        : /opt/intel/composer_xe_2015.1.133/bin/intel64/ifort
 BLASLIB   : -Wl,-_start-group /opt/intel/mkl/lib/intel64/libmkl_intel_ilp64.a /opt/intel/mkl/lib/intel64/libmkl_intel_thread.a /opt/intel/mkl/lib/intel64/libmkl_core.a -Wl,-_end-group
 id        : olemiss

 Nodes     nprocs
 cn084        1

 Using customized tuning parameters: mindgm=1; mindgv=20; mindgc=4; mindgr=1; noblas=0; minvec=7
 default implementation of scratch files=df  

 ***,hno CCSD(T)/TZ-F12 QFF
 memory, 995, m;
 gthresh,energy=1.d-12,zero=1.d-22,oneint=1.d-22,twoint=1.d-22;
 gthresh,optgrad=1.d-8,optstep=1.d-8;
 nocompress;
 geomtyp=xyz
 bohr
 geometry={
 3
          1         1
 H        0.0000000000        1.6668505430       -1.9291807890
 N        0.0000000000       -0.1611701010       -1.1477023540
 O        0.0000000000        0.0360873480        1.1262935520
 }
 
 basis={
 default=aug-cc-pvtz
 s,C,8236.0,1235.0,280.8, 79.27,25.59, 8.997,3.319
 s,C,0.9059,0.3643,0.1285000
 p,C,56.0,18.71,4.133,0.2827,0.3827,0.1209
 d,C,30.0,10.0,3.3,1.097,0.318
 f,C,7.0,2.3,0.7610
 s,N,11420.0,1712.0,389.3,110.0,35.57,12.54,4.644
 s,N,1.293,0.5118,0.1787
 p,N,79.89,26.63,5.948,1.742,0.555,0.1725
 d,N,45.0,15.0,5.0,1.654,0.469
 f,N,9.9,3.3,1.093
 s,O,15330.0,2299.0,522.4,147.3,47.55,16.76,6.207
 s,O,1.752,0.6882,0.2384
 p,O,103.5,34.46,7.749,2.28,0.7156,0.214
 d,O,63.0,21.0,7.0,2.314,0.645
 f,O,12.9,4.3,1.428
 s,mg,164900.0,24710.0,5628.0,1596.0,521.0;
 s,mg,188.0,73.01,29.90,12.54,4.306,1.826;
 s,mg,0.7417,0.0761,0.145,0.033,0.0129;
 p,mg,950.70,316.90,74.86,23.72,8.669,3.363;
 p,mg,1.310,0.4911,0.2364,0.08733,0.03237,0.00745;
 d,mg,1.601,0.686,0.126,0.294,0.0468;
 f,mg,1.372,0.588,0.094,0.252;
 }
   {hf,maxit=500;accu,20;}
 {ccsd(t),nocheck,maxit=250;orbital,IGNORE_ERROR;}

 Variables initialized (889), CPU time= 0.00 sec
 Commands  initialized (702), CPU time= 0.01 sec, 572 directives.
 Default parameters read. Elapsed time= 0.05 sec

 Checking input...
 Passed
1


                                         ***  PROGRAM SYSTEM MOLPRO  ***
                                       Copyright, TTI GmbH Stuttgart, 2015
                                    Version 2015.1 linked Jul  9 2018 13:16:40


 **********************************************************************************************************************************
 LABEL *   hno CCSD(T)/TZ-F12 QFF                                                        
  64 bit serial version                                                                  DATE: 04-Mar-20          TIME: 13:46:50  
 **********************************************************************************************************************************

 SHA1:             d5ffa45e93fdbca01ffc919aa182cfdae0147319
 **********************************************************************************************************************************

 THRESHOLDS:

 ZERO    =  1.00D-22  ONEINT  =  1.00D-22  TWOINT  =  1.00D-22  PREFAC  =  1.00D-14  LOCALI  =  1.00D-09  EORDER  =  1.00D-04
 ENERGY  =  1.00D-12  ETEST   =  0.00D+00  EDENS   =  0.00D+00  THRDEDEF=  1.00D-06  GRADIENT=  1.00D-02  STEP    =  1.00D-03
 ORBITAL =  1.00D-05  CIVEC   =  1.00D-05  COEFF   =  1.00D-04  PRINTCI =  5.00D-02  PUNCHCI =  9.90D+01  OPTGRAD =  3.00D-04
 OPTENERG=  1.00D-06  OPTSTEP =  3.00D-04  THRGRAD =  1.00D-10  COMPRESS=  1.00D-11  VARMIN  =  1.00D-07  VARMAX  =  1.00D-03
 THRDOUB =  0.00D+00  THRDIV  =  1.00D-05  THRRED  =  1.00D-07  THRPSP  =  1.00D+00  THRDC   =  1.00D-10  THRCS   =  1.00D-10
 THRNRM  =  1.00D-08  THREQ   =  0.00D+00  THRDE   =  1.00D+00  THRREF  =  1.00D-05  SPARFAC =  1.00D+00  THRDLP  =  1.00D-07
 THRDIA  =  1.00D-10  THRDLS  =  1.00D-07  THRGPS  =  0.00D+00  THRKEX  =  0.00D+00  THRDIS  =  2.00D-01  THRVAR  =  1.00D-10
 THRLOC  =  1.00D-06  THRGAP  =  1.00D-06  THRLOCT = -1.00D+00  THRGAPT = -1.00D+00  THRORB  =  1.00D-06  THRMLTP =  0.00D+00
 THRCPQCI=  1.00D-10  KEXTA   =  0.00D+00  THRCOARS=  0.00D+00  SYMTOL  =  1.00D-06  GRADTOL =  1.00D-06  THROVL  =  1.00D-08
 THRORTH =  1.00D-08  GRID    =  1.00D-06  GRIDMAX =  1.00D-03  DTMAX   =  0.00D+00  THROCCDE=  1.00D-01  THROCCDE=  1.00D-01



 THRESHOLDS:

 ZERO    =  1.00D-22  ONEINT  =  1.00D-22  TWOINT  =  1.00D-22  PREFAC  =  1.00D-14  LOCALI  =  1.00D-09  EORDER  =  1.00D-04
 ENERGY  =  1.00D-12  ETEST   =  0.00D+00  EDENS   =  0.00D+00  THRDEDEF=  1.00D-06  GRADIENT=  1.00D-02  STEP    =  1.00D-03
 ORBITAL =  1.00D-05  CIVEC   =  1.00D-05  COEFF   =  1.00D-04  PRINTCI =  5.00D-02  PUNCHCI =  9.90D+01  OPTGRAD =  1.00D-08
 OPTENERG=  1.00D-06  OPTSTEP =  1.00D-08  THRGRAD =  1.00D-10  COMPRESS=  1.00D-11  VARMIN  =  1.00D-07  VARMAX  =  1.00D-03
 THRDOUB =  0.00D+00  THRDIV  =  1.00D-05  THRRED  =  1.00D-07  THRPSP  =  1.00D+00  THRDC   =  1.00D-10  THRCS   =  1.00D-10
 THRNRM  =  1.00D-08  THREQ   =  0.00D+00  THRDE   =  1.00D+00  THRREF  =  1.00D-05  SPARFAC =  1.00D+00  THRDLP  =  1.00D-07
 THRDIA  =  1.00D-10  THRDLS  =  1.00D-07  THRGPS  =  0.00D+00  THRKEX  =  0.00D+00  THRDIS  =  2.00D-01  THRVAR  =  1.00D-10
 THRLOC  =  1.00D-06  THRGAP  =  1.00D-06  THRLOCT = -1.00D+00  THRGAPT = -1.00D+00  THRORB  =  1.00D-06  THRMLTP =  0.00D+00
 THRCPQCI=  1.00D-10  KEXTA   =  0.00D+00  THRCOARS=  0.00D+00  SYMTOL  =  1.00D-06  GRADTOL =  1.00D-06  THROVL  =  1.00D-08
 THRORTH =  1.00D-08  GRID    =  1.00D-06  GRIDMAX =  1.00D-03  DTMAX   =  0.00D+00  THROCCDE=  1.00D-01  THROCCDE=  1.00D-01



 Input parameters for SORTINT:

 COMPRESS =    0.000000
 C_FINAL  =    1.000000
 DEBUG    =   -1.000000
 C_SORT1  =    0.000000
 C_SEWARD =    0.000000
 THRESH   =    0.000000
 IO       =  molpro                                                          
 SPRI     =    0.000000
 SETTING GEOMTYP        =    XYZ
 ZUNIT=BOHR
 

 Variable memory set to  995000000 words,  buffer space   230000 words

 SETTING BASIS          =    USERDEF


 Recomputing integrals since basis changed


 Using spherical harmonics

 Library entry H      S aug-cc-pVTZ          selected for orbital group  1
 Library entry H      P aug-cc-pVTZ          selected for orbital group  1
 Library entry H      D aug-cc-pVTZ          selected for orbital group  1


 PROGRAM * SEWARD (Integral evaluation for generally contracted gaussian basis sets)     Author: Roland Lindh, 1990

 Geometry written to block  1 of record 700


 Point group  Cs  



 ATOMIC COORDINATES

 NR  ATOM    CHARGE       X              Y              Z

   1  H       1.00    0.000000000    1.666850543   -1.929180789
   2  N       7.00    0.000000000   -0.161170101   -1.147702354
   3  O       8.00    0.000000000    0.036087348    1.126293552

 Bond lengths in Bohr (Angstrom)

 1-2  1.988056342  2-3  2.282535406
     ( 1.052034110)     ( 1.207865720)

 Bond angles

  1-2-3  108.18899349

 NUCLEAR CHARGE:                   16
 NUMBER OF PRIMITIVE AOS:         203
 NUMBER OF SYMMETRY AOS:          173
 NUMBER OF CONTRACTIONS:          171   ( 114A'  +  57A"  )
 NUMBER OF CORE ORBITALS:           2   (   2A'  +   0A"  )
 NUMBER OF VALENCE ORBITALS:        9   (   7A'  +   2A"  )


 NUCLEAR REPULSION ENERGY   30.36500034


 Eigenvalues of metric

         1 0.104E-02 0.249E-02 0.333E-02 0.636E-02 0.985E-02 0.137E-01 0.145E-01 0.230E-01
         2 0.364E-01 0.531E-01 0.699E-01 0.941E-01 0.131E+00 0.134E+00 0.140E+00 0.142E+00


 Contracted 2-electron integrals neglected if value below      1.0D-22

       46152012. INTEGRALS WRITTEN OUT IN   11271 BLOCKS ON RECORD 1290 OF FILE 1


 NUMBER OF SORTED TWO-ELECTRON INTEGRALS:   55360566.     BUFFER LENGTH:  32768
 NUMBER OF SEGMENTS:   4  SEGMENT LENGTH:   15997996      RECORD LENGTH: 524288

 Memory used in sort:      16.56 MW

 SORT1 READ    46152012. AND WROTE    46589510. INTEGRALS IN    136 RECORDS. CPU TIME:     0.71 SEC, REAL TIME:     1.03 SEC
 SORT2 READ    46589510. AND WROTE    55360566. INTEGRALS IN      4 RECORDS. CPU TIME:     0.62 SEC, REAL TIME:     0.85 SEC

 FILE SIZES:   FILE 1:   759.4 MBYTE,  FILE 4:   570.5 MBYTE,   TOTAL:   1329.8 MBYTE

 OPERATOR DM      FOR CENTER  0  COORDINATES:    0.000000    0.000000    0.000000


 **********************************************************************************************************************************
 DATASETS  * FILE   NREC   LENGTH (MB)   RECORD NAMES
              1      19      421.29       500      610      700      900      950      970     1000      129      960     1100   
                                          VAR    BASINP    GEOM    SYMINP    ZMAT    AOBASIS   BASIS     P2S    ABASIS      S 
                                         1400     1410     1200     1210     1080     1600     1650     1300     1700   
                                           T        V       H0       H01     AOSYM     SMH    MOLCAS    ERIS     OPER   

 PROGRAMS   *        TOTAL       INT
 CPU TIMES  *         4.02      3.93
 REAL TIME  *         5.42 SEC
 DISK USED  *         1.33 GB      
 **********************************************************************************************************************************


 PROGRAM * RHF-SCF (CLOSED SHELL)       Authors: W. Meyer, H.-J. Werner


 NUMBER OF ELECTRONS:       8+    8-
 CONVERGENCE THRESHOLDS:    1.00E-10 (Density)    1.00E-13 (Energy)
 MAX. NUMBER OF ITERATIONS:      500
 INTERPOLATION TYPE:            DIIS
 INTERPOLATION STEPS:              2 (START)      1 (STEP)
 LEVEL SHIFTS:                  0.00 (CLOSED)  0.00 (OPEN) 



 Orbital guess generated from atomic densities. Full valence occupancy:    9   2

 Molecular orbital dump at record        2100.2

 Initial occupancy:   7   1

 ITERATION    DDIFF          GRAD             ENERGY        2-EL.EN.            DIPOLE MOMENTS         DIIS   ORB.
    1      0.000D+00      0.000D+00      -129.78929528    154.054111    0.00000    0.56956   -1.01338    0    start
    2      0.000D+00      0.878D-02      -129.81621009    155.228628    0.00000    0.59753   -0.19631    1    diag
    3      0.364D-02      0.667D-02      -129.83896928    155.349250    0.00000    0.54645   -0.58352    2    diag
    4      0.142D-02      0.104D-02      -129.83975252    155.074760    0.00000    0.55455   -0.52116    3    diag
    5      0.331D-03      0.337D-03      -129.83987290    155.162805    0.00000    0.56058   -0.52357    4    diag
    6      0.153D-03      0.989D-04      -129.83989254    155.146714    0.00000    0.56115   -0.51945    5    diag
    7      0.607D-04      0.496D-04      -129.83989833    155.149253    0.00000    0.56248   -0.51694    6    diag
    8      0.412D-04      0.170D-04      -129.83989895    155.148427    0.00000    0.56253   -0.51603    7    diag
    9      0.143D-04      0.317D-05      -129.83989898    155.148314    0.00000    0.56248   -0.51585    8    diag
   10      0.290D-05      0.722D-06      -129.83989898    155.148301    0.00000    0.56245   -0.51582    9    orth
   11      0.863D-06      0.144D-06      -129.83989898    155.148296    0.00000    0.56244   -0.51582    9    diag
   12      0.204D-06      0.298D-07      -129.83989898    155.148296    0.00000    0.56244   -0.51581    9    diag
   13      0.499D-07      0.787D-08      -129.83989898    155.148295    0.00000    0.56244   -0.51581    9    diag
   14      0.115D-07      0.139D-08      -129.83989898    155.148295    0.00000    0.56244   -0.51581    9    diag
   15      0.147D-08      0.373D-09      -129.83989898    155.148295    0.00000    0.56244   -0.51581    9    diag
   16      0.327D-09      0.110D-09      -129.83989898    155.148295    0.00000    0.56244   -0.51581    9    diag
   17      0.756D-10      0.304D-10      -129.83989898    155.148295    0.00000    0.56244   -0.51581    9    diag
   18      0.238D-10      0.101D-10      -129.83989898    155.148295    0.00000    0.56244   -0.51581    9    diag
   19      0.970D-11      0.242D-11      -129.83989898    155.148295    0.00000    0.56244   -0.51581    9    fixocc
   20      0.244D-11      0.728D-12      -129.83989898    155.148295    0.00000    0.56244   -0.51581    9    orth
   21      0.287D-12      0.414D-12      -129.83989898    155.148295    0.00000    0.56244   -0.51581    9    diag
   22      0.137D-12      0.341D-12      -129.83989898    155.148295    0.00000    0.56244   -0.51581    9    diag
   23      0.110D-12      0.560D-12      -129.83989898    155.148295    0.00000    0.56244   -0.51581    9    diag
   24      0.154D-12      0.324D-12      -129.83989898    155.148295    0.00000    0.56244   -0.51581    0    orth

 Final occupancy:   7   1

 !RHF STATE 1.1 Energy               -129.839898977153
 Nuclear energy                        30.36500034
 One-electron energy                 -237.77904699
 Two-electron energy                   77.57414767
 Virial quotient                       -1.00163060
 !RHF STATE 1.1 Dipole moment           0.00000000     0.56243574    -0.51581391
 Dipole moment /Debye                   0.00000000     1.42947543    -1.31098233

 Orbital energies:

         1.1          2.1          3.1          4.1          5.1          6.1          7.1          8.1          9.1
    -20.651274   -15.710593    -1.528129    -0.992895    -0.745231    -0.664266    -0.428727     0.039708     0.192815

         1.2          2.2          3.2
     -0.594260     0.079122     0.239539

 HOMO      7.1    -0.428727 =     -11.6663eV
 LUMO      8.1     0.039708 =       1.0805eV
 LUMO-HOMO         0.468436 =      12.7468eV


 **********************************************************************************************************************************
 DATASETS  * FILE   NREC   LENGTH (MB)   RECORD NAMES
              1      19      421.29       500      610      700      900      950      970     1000      129      960     1100   
                                          VAR    BASINP    GEOM    SYMINP    ZMAT    AOBASIS   BASIS     P2S    ABASIS      S 
                                         1400     1410     1200     1210     1080     1600     1650     1300     1700   
                                           T        V       H0       H01     AOSYM     SMH    MOLCAS    ERIS     OPER   

              2       4        3.13       700     1000      520     2100   
                                         GEOM     BASIS   MCVARS     RHF  

 PROGRAMS   *        TOTAL        HF       INT
 CPU TIMES  *         9.85      5.83      3.93
 REAL TIME  *        12.51 SEC
 DISK USED  *         1.33 GB      
 **********************************************************************************************************************************


 PROGRAM * CCSD (Closed-shell coupled cluster)     Authors: C. Hampel, H.-J. Werner, 1991, M. Deegan, P.J. Knowles, 1992


 Convergence thresholds:  THRVAR = 1.00D-08  THRDEN = 1.00D-12

 CCSD(T)     terms to be evaluated (factor= 1.000)


 Number of core orbitals:           2 (   2   0 )
 Number of closed-shell orbitals:   6 (   5   1 )
 Number of external orbitals:     163 ( 107  56 )

 Molecular orbitals read from record     2100.2  Type=RHF/CANONICAL (state 1.1)

 Number of N-1 electron functions:               6
 Number of N-2 electron functions:              21
 Number of singly external CSFs:               591
 Number of doubly external CSFs:            250014
 Total number of CSFs:                      250606

 Length of J-op  integral file:               0.00 MB
 Length of K-op  integral file:               1.15 MB
 Length of 3-ext integral record:             0.00 MB

 Memory could be reduced to 19.93 Mwords without degradation in triples

 Integral transformation finished. Total CPU:   0.65 sec, npass=  1  Memory used:   5.10 MW

 Reference energy:                   -129.83989898

 MP2 singlet pair energy:              -0.28686132
 MP2 triplet pair energy:              -0.16718097
 MP2 correlation energy:               -0.45404229
 MP2 total energy:                   -130.29394127

 SCS-MP2 correlation energy:           -0.44825730   (PS=  1.200000  PT=  0.333333)
 SCS-MP2 total energy:               -130.28815628

 ITER.      SQ.NORM     CORR.ENERGY   TOTAL ENERGY   ENERGY CHANGE        DEN1      VAR(S)    VAR(P)  DIIS     TIME  TIME/IT
   1      1.11878878    -0.45618029  -130.29607927    -0.00213800     0.01461575  0.32D-02  0.31D-02  1  1     1.25     0.65
   2      1.12930437    -0.45609998  -130.29599895     0.00008032    -0.01250502  0.12D-03  0.50D-03  2  2     1.82     0.66
   3      1.13586114    -0.45647214  -130.29637112    -0.00037217    -0.00336635  0.44D-04  0.57D-04  3  3     2.41     0.66
   4      1.13872639    -0.45650415  -130.29640313    -0.00003201    -0.00094443  0.44D-05  0.97D-05  4  4     3.01     0.67
   5      1.13980268    -0.45653640  -130.29643538    -0.00003225    -0.00021997  0.13D-05  0.17D-05  5  5     3.61     0.67
   6      1.14019840    -0.45652072  -130.29641969     0.00001568    -0.00006564  0.12D-06  0.43D-06  6  6     4.22     0.67
   7      1.14027121    -0.45652222  -130.29642119    -0.00000150     0.00000848  0.17D-07  0.93D-07  6  1     4.81     0.67
   8      1.14030589    -0.45652179  -130.29642077     0.00000043    -0.00000464  0.49D-08  0.14D-07  6  2     5.40     0.67
   9      1.14031128    -0.45652167  -130.29642065     0.00000012     0.00000093  0.21D-08  0.16D-08  6  3     6.02     0.67
  10      1.14031167    -0.45652200  -130.29642097    -0.00000033    -0.00000023  0.49D-09  0.25D-09  6  4     6.63     0.67
  11      1.14031016    -0.45652214  -130.29642111    -0.00000014     0.00000034  0.12D-09  0.25D-10  6  5     7.24     0.67
  12      1.14030901    -0.45652228  -130.29642126    -0.00000015     0.00000047  0.15D-10  0.74D-11  6  6     7.84     0.67
  13      1.14030836    -0.45652230  -130.29642128    -0.00000002     0.00000012  0.58D-11  0.13D-11  6  1     8.43     0.67
  14      1.14030785    -0.45652233  -130.29642131    -0.00000003     0.00000012  0.54D-12  0.43D-12  6  3     9.03     0.67
  15      1.14030770    -0.45652233  -130.29642131     0.00000000     0.00000001  0.14D-12  0.30D-13  6  2     9.62     0.67
  16      1.14030765    -0.45652233  -130.29642131    -0.00000000     0.00000001  0.32D-13  0.74D-14  6  4    10.19     0.67
  17      1.14030763    -0.45652233  -130.29642131    -0.00000000     0.00000001  0.40D-14  0.12D-14  6  5    10.77     0.67
  18      1.14030763    -0.45652233  -130.29642131     0.00000000     0.00000000  0.45D-15  0.32D-15  6  6    11.39     0.67
  19      1.14030763    -0.45652233  -130.29642131     0.00000000    -0.00000000  0.60D-16  0.40D-16  6  1    12.00     0.67
  20      1.14030763    -0.45652233  -130.29642131     0.00000000    -0.00000000  0.31D-17  0.92D-17  6  3    12.60     0.67
  21      1.14030763    -0.45652233  -130.29642131     0.00000000    -0.00000000  0.50D-18  0.20D-17  6  4    13.20     0.67
  22      1.14030763    -0.45652233  -130.29642131     0.00000000    -0.00000000  0.16D-19  0.69D-18  6  2    13.81     0.67
  23      1.14030763    -0.45652233  -130.29642131    -0.00000000     0.00000000  0.29D-19  0.12D-18  6  4    14.43     0.67
  24      1.14030763    -0.45652233  -130.29642131     0.00000000    -0.00000000  0.30D-20  0.61D-20  6  5    15.05     0.67
  25      1.14030763    -0.45652233  -130.29642131    -0.00000000     0.00000000  0.35D-21  0.50D-21  6  6    15.63     0.67
  26      1.14030763    -0.45652233  -130.29642131     0.00000000    -0.00000000  0.14D-21  0.56D-22  6  1    16.23     0.67
  27      1.14030763    -0.45652233  -130.29642131    -0.00000000    -0.00000000  0.53D-22  0.16D-22  6  3    16.79     0.67

 Norm of t1 vector:      0.07718375      S-energy:    -0.00000000      T1 diagnostic:  0.01575507
                                                                       D1 diagnostic:  0.04297276

 Doubles amplitudes (print threshold =  0.500E-01):

         I         J         SYM. A    SYM. B    A         B      T(IJ, AB)

         6         6         2         2         1         1     -0.13539246


 Total CPU time for triples:      7.57 sec


 RESULTS
 =======

  Reference energy                   -129.839898977153
  CCSD singlet pair energy             -0.313536097762
  CCSD triplet pair energy             -0.142986233842
  CCSD correlation energy              -0.456522331605

  Triples (T) contribution             -0.021194732188
  Total correlation energy             -0.477717063792

  CCSD total energy                  -130.296421308758
  CCSD[T] energy                     -130.318711053487
  CCSD-T energy                      -130.317202208404
 !CCSD(T) total energy               -130.317616040945

 Timing summary (sec):

 STEP                 CPU(USER)    SYS     CPU(TOT)    WALL
 Transformation          0.66      0.14      0.80      0.80
 CCSD iterations        16.14      2.09     18.23     18.23
 Triples                 7.57      0.24      7.81      7.81

 Program statistics:

 Available memory in ccsd:               994999756
 Min. memory needed in ccsd:                887758
 Max. memory used in ccsd:                 1088212
 Max. memory used in cckext:               1535578 (27 integral passes)



 **********************************************************************************************************************************
 DATASETS  * FILE   NREC   LENGTH (MB)   RECORD NAMES
              1      20      479.25       500      610      700      900      950      970     1000      129      960     1100   
                                          VAR    BASINP    GEOM    SYMINP    ZMAT    AOBASIS   BASIS     P2S    ABASIS      S 
                                         1400     1410     1200     1210     1080     1600     1650     1300     1700     1380   
                                           T        V       H0       H01     AOSYM     SMH    MOLCAS    ERIS     OPER     JKOP   

              2       4        3.13       700     1000      520     2100   
                                         GEOM     BASIS   MCVARS     RHF  

 PROGRAMS   *        TOTAL   CCSD(T)        HF       INT
 CPU TIMES  *        34.24     24.39      5.83      3.93
 REAL TIME  *        39.38 SEC
 DISK USED  *         1.33 GB      
 **********************************************************************************************************************************

 CCSD(T)/USERDEF energy=   -130.317616040945

        CCSD(T)         HF-SCF  
   -130.31761604   -129.83989898
 **********************************************************************************************************************************
 Molpro calculation terminated
 Variable memory released
