
 Primary working directories    : /tmp/r2666/282299.maple
 Secondary working directories  : /tmp/r2666/282299.maple
 Wavefunction directory         : /ddn/home4/r2666/wfu/
 Main file repository           : /tmp/r2666/282299.maple/

 SHA1      : d5ffa45e93fdbca01ffc919aa182cfdae0147319
 NAME      : 2015.1.35
 ARCHNAME  : linux/x86_64
 FC        : /opt/intel/composer_xe_2015.1.133/bin/intel64/ifort
 BLASLIB   : -Wl,-_start-group /opt/intel/mkl/lib/intel64/libmkl_intel_ilp64.a /opt/intel/mkl/lib/intel64/libmkl_intel_thread.a /opt/intel/mkl/lib/intel64/libmkl_core.a -Wl,-_end-group
 id        : olemiss

 Nodes     nprocs
 cn075        1

 Using customized tuning parameters: mindgm=1; mindgv=20; mindgc=4; mindgr=1; noblas=0; minvec=7
 default implementation of scratch files=df  

 ***,hno CCSD(T)/TZ-F12 QFF
 memory, 995, m;
 gthresh,energy=1.d-12,zero=1.d-22,oneint=1.d-22,twoint=1.d-22;
 gthresh,optgrad=1.d-8,optstep=1.d-8;
 nocompress;
 geomtyp=xyz
 bohr
 geometry={
 3
         67        67
 H        0.0000000000        1.6672585169       -1.9362713050
 N        0.0000000000       -0.1563626045       -1.1445806931
 O        0.0000000000        0.0308718777        1.1302624071
 }
 
 basis={
 default=aug-cc-pvtz
 s,C,8236.0,1235.0,280.8, 79.27,25.59, 8.997,3.319
 s,C,0.9059,0.3643,0.1285000
 p,C,56.0,18.71,4.133,0.2827,0.3827,0.1209
 d,C,30.0,10.0,3.3,1.097,0.318
 f,C,7.0,2.3,0.7610
 s,N,11420.0,1712.0,389.3,110.0,35.57,12.54,4.644
 s,N,1.293,0.5118,0.1787
 p,N,79.89,26.63,5.948,1.742,0.555,0.1725
 d,N,45.0,15.0,5.0,1.654,0.469
 f,N,9.9,3.3,1.093
 s,O,15330.0,2299.0,522.4,147.3,47.55,16.76,6.207
 s,O,1.752,0.6882,0.2384
 p,O,103.5,34.46,7.749,2.28,0.7156,0.214
 d,O,63.0,21.0,7.0,2.314,0.645
 f,O,12.9,4.3,1.428
 s,mg,164900.0,24710.0,5628.0,1596.0,521.0;
 s,mg,188.0,73.01,29.90,12.54,4.306,1.826;
 s,mg,0.7417,0.0761,0.145,0.033,0.0129;
 p,mg,950.70,316.90,74.86,23.72,8.669,3.363;
 p,mg,1.310,0.4911,0.2364,0.08733,0.03237,0.00745;
 d,mg,1.601,0.686,0.126,0.294,0.0468;
 f,mg,1.372,0.588,0.094,0.252;
 }
   {hf,maxit=500;accu,20;}
 {ccsd(t),nocheck,maxit=250;orbital,IGNORE_ERROR;}

 Variables initialized (889), CPU time= 0.01 sec
 Commands  initialized (702), CPU time= 0.02 sec, 572 directives.
 Default parameters read. Elapsed time= 0.04 sec

 Checking input...
 Passed
1


                                         ***  PROGRAM SYSTEM MOLPRO  ***
                                       Copyright, TTI GmbH Stuttgart, 2015
                                    Version 2015.1 linked Jul  9 2018 13:16:40


 **********************************************************************************************************************************
 LABEL *   hno CCSD(T)/TZ-F12 QFF                                                        
  64 bit serial version                                                                  DATE: 04-Mar-20          TIME: 13:47:37  
 **********************************************************************************************************************************

 SHA1:             d5ffa45e93fdbca01ffc919aa182cfdae0147319
 **********************************************************************************************************************************

 THRESHOLDS:

 ZERO    =  1.00D-22  ONEINT  =  1.00D-22  TWOINT  =  1.00D-22  PREFAC  =  1.00D-14  LOCALI  =  1.00D-09  EORDER  =  1.00D-04
 ENERGY  =  1.00D-12  ETEST   =  0.00D+00  EDENS   =  0.00D+00  THRDEDEF=  1.00D-06  GRADIENT=  1.00D-02  STEP    =  1.00D-03
 ORBITAL =  1.00D-05  CIVEC   =  1.00D-05  COEFF   =  1.00D-04  PRINTCI =  5.00D-02  PUNCHCI =  9.90D+01  OPTGRAD =  3.00D-04
 OPTENERG=  1.00D-06  OPTSTEP =  3.00D-04  THRGRAD =  1.00D-10  COMPRESS=  1.00D-11  VARMIN  =  1.00D-07  VARMAX  =  1.00D-03
 THRDOUB =  0.00D+00  THRDIV  =  1.00D-05  THRRED  =  1.00D-07  THRPSP  =  1.00D+00  THRDC   =  1.00D-10  THRCS   =  1.00D-10
 THRNRM  =  1.00D-08  THREQ   =  0.00D+00  THRDE   =  1.00D+00  THRREF  =  1.00D-05  SPARFAC =  1.00D+00  THRDLP  =  1.00D-07
 THRDIA  =  1.00D-10  THRDLS  =  1.00D-07  THRGPS  =  0.00D+00  THRKEX  =  0.00D+00  THRDIS  =  2.00D-01  THRVAR  =  1.00D-10
 THRLOC  =  1.00D-06  THRGAP  =  1.00D-06  THRLOCT = -1.00D+00  THRGAPT = -1.00D+00  THRORB  =  1.00D-06  THRMLTP =  0.00D+00
 THRCPQCI=  1.00D-10  KEXTA   =  0.00D+00  THRCOARS=  0.00D+00  SYMTOL  =  1.00D-06  GRADTOL =  1.00D-06  THROVL  =  1.00D-08
 THRORTH =  1.00D-08  GRID    =  1.00D-06  GRIDMAX =  1.00D-03  DTMAX   =  0.00D+00  THROCCDE=  1.00D-01  THROCCDE=  1.00D-01



 THRESHOLDS:

 ZERO    =  1.00D-22  ONEINT  =  1.00D-22  TWOINT  =  1.00D-22  PREFAC  =  1.00D-14  LOCALI  =  1.00D-09  EORDER  =  1.00D-04
 ENERGY  =  1.00D-12  ETEST   =  0.00D+00  EDENS   =  0.00D+00  THRDEDEF=  1.00D-06  GRADIENT=  1.00D-02  STEP    =  1.00D-03
 ORBITAL =  1.00D-05  CIVEC   =  1.00D-05  COEFF   =  1.00D-04  PRINTCI =  5.00D-02  PUNCHCI =  9.90D+01  OPTGRAD =  1.00D-08
 OPTENERG=  1.00D-06  OPTSTEP =  1.00D-08  THRGRAD =  1.00D-10  COMPRESS=  1.00D-11  VARMIN  =  1.00D-07  VARMAX  =  1.00D-03
 THRDOUB =  0.00D+00  THRDIV  =  1.00D-05  THRRED  =  1.00D-07  THRPSP  =  1.00D+00  THRDC   =  1.00D-10  THRCS   =  1.00D-10
 THRNRM  =  1.00D-08  THREQ   =  0.00D+00  THRDE   =  1.00D+00  THRREF  =  1.00D-05  SPARFAC =  1.00D+00  THRDLP  =  1.00D-07
 THRDIA  =  1.00D-10  THRDLS  =  1.00D-07  THRGPS  =  0.00D+00  THRKEX  =  0.00D+00  THRDIS  =  2.00D-01  THRVAR  =  1.00D-10
 THRLOC  =  1.00D-06  THRGAP  =  1.00D-06  THRLOCT = -1.00D+00  THRGAPT = -1.00D+00  THRORB  =  1.00D-06  THRMLTP =  0.00D+00
 THRCPQCI=  1.00D-10  KEXTA   =  0.00D+00  THRCOARS=  0.00D+00  SYMTOL  =  1.00D-06  GRADTOL =  1.00D-06  THROVL  =  1.00D-08
 THRORTH =  1.00D-08  GRID    =  1.00D-06  GRIDMAX =  1.00D-03  DTMAX   =  0.00D+00  THROCCDE=  1.00D-01  THROCCDE=  1.00D-01



 Input parameters for SORTINT:

 COMPRESS =    0.000000
 C_FINAL  =    1.000000
 DEBUG    =   -1.000000
 C_SORT1  =    0.000000
 C_SEWARD =    0.000000
 THRESH   =    0.000000
 IO       =  molpro                                                          
 SPRI     =    0.000000
 SETTING GEOMTYP        =    XYZ
 ZUNIT=BOHR
 

 Variable memory set to  995000000 words,  buffer space   230000 words

 SETTING BASIS          =    USERDEF


 Recomputing integrals since basis changed


 Using spherical harmonics

 Library entry H      S aug-cc-pVTZ          selected for orbital group  1
 Library entry H      P aug-cc-pVTZ          selected for orbital group  1
 Library entry H      D aug-cc-pVTZ          selected for orbital group  1


 PROGRAM * SEWARD (Integral evaluation for generally contracted gaussian basis sets)     Author: Roland Lindh, 1990

 Geometry written to block  1 of record 700


 Point group  Cs  



 ATOMIC COORDINATES

 NR  ATOM    CHARGE       X              Y              Z

   1  H       1.00    0.000000000    1.667258517   -1.936271305
   2  N       7.00    0.000000000   -0.156362605   -1.144580693
   3  O       8.00    0.000000000    0.030871878    1.130262407

 Bond lengths in Bohr (Angstrom)

 1-2  1.988056342  2-3  2.282535406
     ( 1.052034110)     ( 1.207865720)

 Bond angles

  1-2-3  108.76195129

 NUCLEAR CHARGE:                   16
 NUMBER OF PRIMITIVE AOS:         203
 NUMBER OF SYMMETRY AOS:          173
 NUMBER OF CONTRACTIONS:          171   ( 114A'  +  57A"  )
 NUMBER OF CORE ORBITALS:           2   (   2A'  +   0A"  )
 NUMBER OF VALENCE ORBITALS:        9   (   7A'  +   2A"  )


 NUCLEAR REPULSION ENERGY   30.35675695


 Eigenvalues of metric

         1 0.104E-02 0.249E-02 0.334E-02 0.636E-02 0.984E-02 0.137E-01 0.144E-01 0.231E-01
         2 0.363E-01 0.531E-01 0.697E-01 0.942E-01 0.131E+00 0.134E+00 0.140E+00 0.142E+00


 Contracted 2-electron integrals neglected if value below      1.0D-22

       46150453. INTEGRALS WRITTEN OUT IN   11270 BLOCKS ON RECORD 1290 OF FILE 1


 NUMBER OF SORTED TWO-ELECTRON INTEGRALS:   55360566.     BUFFER LENGTH:  32768
 NUMBER OF SEGMENTS:   4  SEGMENT LENGTH:   15997996      RECORD LENGTH: 524288

 Memory used in sort:      16.56 MW

 SORT1 READ    46150453. AND WROTE    46587926. INTEGRALS IN    136 RECORDS. CPU TIME:     0.75 SEC, REAL TIME:     1.01 SEC
 SORT2 READ    46587926. AND WROTE    55360566. INTEGRALS IN      4 RECORDS. CPU TIME:     0.63 SEC, REAL TIME:     0.84 SEC

 FILE SIZES:   FILE 1:   759.3 MBYTE,  FILE 4:   570.5 MBYTE,   TOTAL:   1329.8 MBYTE

 OPERATOR DM      FOR CENTER  0  COORDINATES:    0.000000    0.000000    0.000000


 **********************************************************************************************************************************
 DATASETS  * FILE   NREC   LENGTH (MB)   RECORD NAMES
              1      19      421.28       500      610      700      900      950      970     1000      129      960     1100   
                                          VAR    BASINP    GEOM    SYMINP    ZMAT    AOBASIS   BASIS     P2S    ABASIS      S 
                                         1400     1410     1200     1210     1080     1600     1650     1300     1700   
                                           T        V       H0       H01     AOSYM     SMH    MOLCAS    ERIS     OPER   

 PROGRAMS   *        TOTAL       INT
 CPU TIMES  *         4.19      4.08
 REAL TIME  *         5.57 SEC
 DISK USED  *         1.33 GB      
 **********************************************************************************************************************************


 PROGRAM * RHF-SCF (CLOSED SHELL)       Authors: W. Meyer, H.-J. Werner


 NUMBER OF ELECTRONS:       8+    8-
 CONVERGENCE THRESHOLDS:    1.00E-10 (Density)    1.00E-13 (Energy)
 MAX. NUMBER OF ITERATIONS:      500
 INTERPOLATION TYPE:            DIIS
 INTERPOLATION STEPS:              2 (START)      1 (STEP)
 LEVEL SHIFTS:                  0.00 (CLOSED)  0.00 (OPEN) 



 Orbital guess generated from atomic densities. Full valence occupancy:    9   2

 Molecular orbital dump at record        2100.2

 Initial occupancy:   7   1

 ITERATION    DDIFF          GRAD             ENERGY        2-EL.EN.            DIPOLE MOMENTS         DIIS   ORB.
    1      0.000D+00      0.000D+00      -129.78933159    154.036955    0.00000    0.57457   -1.01471    0    start
    2      0.000D+00      0.878D-02      -129.81623328    155.214065    0.00000    0.59729   -0.19870    1    diag
    3      0.364D-02      0.666D-02      -129.83894111    155.334115    0.00000    0.54876   -0.58576    2    diag
    4      0.141D-02      0.104D-02      -129.83972586    155.059377    0.00000    0.55659   -0.52323    3    diag
    5      0.332D-03      0.337D-03      -129.83984603    155.147584    0.00000    0.56266   -0.52569    4    diag
    6      0.153D-03      0.987D-04      -129.83986561    155.131506    0.00000    0.56324   -0.52157    5    diag
    7      0.607D-04      0.495D-04      -129.83987138    155.134043    0.00000    0.56457   -0.51907    6    diag
    8      0.412D-04      0.170D-04      -129.83987200    155.133222    0.00000    0.56463   -0.51816    7    diag
    9      0.143D-04      0.317D-05      -129.83987203    155.133108    0.00000    0.56458   -0.51798    8    diag
   10      0.290D-05      0.726D-06      -129.83987203    155.133094    0.00000    0.56454   -0.51795    9    orth
   11      0.867D-06      0.144D-06      -129.83987203    155.133090    0.00000    0.56454   -0.51795    9    diag
   12      0.205D-06      0.298D-07      -129.83987203    155.133089    0.00000    0.56453   -0.51794    9    diag
   13      0.498D-07      0.787D-08      -129.83987203    155.133089    0.00000    0.56453   -0.51794    9    diag
   14      0.115D-07      0.139D-08      -129.83987203    155.133089    0.00000    0.56453   -0.51794    9    diag
   15      0.147D-08      0.373D-09      -129.83987203    155.133089    0.00000    0.56453   -0.51794    9    diag
   16      0.327D-09      0.109D-09      -129.83987203    155.133089    0.00000    0.56453   -0.51794    9    diag
   17      0.742D-10      0.299D-10      -129.83987203    155.133089    0.00000    0.56453   -0.51794    9    diag
   18      0.234D-10      0.997D-11      -129.83987203    155.133089    0.00000    0.56453   -0.51794    9    diag
   19      0.949D-11      0.245D-11      -129.83987203    155.133089    0.00000    0.56453   -0.51794    9    fixocc
   20      0.240D-11      0.801D-12      -129.83987203    155.133089    0.00000    0.56453   -0.51794    0    orth

 Final occupancy:   7   1

 !RHF STATE 1.1 Energy               -129.839872028122
 Nuclear energy                        30.35675695
 One-electron energy                 -237.76317338
 Two-electron energy                   77.56654440
 Virial quotient                       -1.00164669
 !RHF STATE 1.1 Dipole moment           0.00000000     0.56453255    -0.51794315
 Dipole moment /Debye                   0.00000000     1.43480464    -1.31639395

 Orbital energies:

         1.1          2.1          3.1          4.1          5.1          6.1          7.1          8.1          9.1
    -20.651409   -15.710481    -1.527832    -0.993241    -0.745200    -0.664370    -0.428328     0.039649     0.192763

         1.2          2.2          3.2
     -0.594182     0.078986     0.239596

 HOMO      7.1    -0.428328 =     -11.6554eV
 LUMO      8.1     0.039649 =       1.0789eV
 LUMO-HOMO         0.467977 =      12.7343eV


 **********************************************************************************************************************************
 DATASETS  * FILE   NREC   LENGTH (MB)   RECORD NAMES
              1      19      421.28       500      610      700      900      950      970     1000      129      960     1100   
                                          VAR    BASINP    GEOM    SYMINP    ZMAT    AOBASIS   BASIS     P2S    ABASIS      S 
                                         1400     1410     1200     1210     1080     1600     1650     1300     1700   
                                           T        V       H0       H01     AOSYM     SMH    MOLCAS    ERIS     OPER   

              2       4        3.13       700     1000      520     2100   
                                         GEOM     BASIS   MCVARS     RHF  

 PROGRAMS   *        TOTAL        HF       INT
 CPU TIMES  *         9.15      4.96      4.08
 REAL TIME  *        11.54 SEC
 DISK USED  *         1.33 GB      
 **********************************************************************************************************************************


 PROGRAM * CCSD (Closed-shell coupled cluster)     Authors: C. Hampel, H.-J. Werner, 1991, M. Deegan, P.J. Knowles, 1992


 Convergence thresholds:  THRVAR = 1.00D-08  THRDEN = 1.00D-12

 CCSD(T)     terms to be evaluated (factor= 1.000)


 Number of core orbitals:           2 (   2   0 )
 Number of closed-shell orbitals:   6 (   5   1 )
 Number of external orbitals:     163 ( 107  56 )

 Molecular orbitals read from record     2100.2  Type=RHF/CANONICAL (state 1.1)

 Number of N-1 electron functions:               6
 Number of N-2 electron functions:              21
 Number of singly external CSFs:               591
 Number of doubly external CSFs:            250014
 Total number of CSFs:                      250606

 Length of J-op  integral file:               0.00 MB
 Length of K-op  integral file:               1.15 MB
 Length of 3-ext integral record:             0.00 MB

 Memory could be reduced to 19.93 Mwords without degradation in triples

 Integral transformation finished. Total CPU:   0.68 sec, npass=  1  Memory used:   5.10 MW

 Reference energy:                   -129.83987203

 MP2 singlet pair energy:              -0.28686069
 MP2 triplet pair energy:              -0.16718110
 MP2 correlation energy:               -0.45404178
 MP2 total energy:                   -130.29391381

 SCS-MP2 correlation energy:           -0.44825662   (PS=  1.200000  PT=  0.333333)
 SCS-MP2 total energy:               -130.28812865

 ITER.      SQ.NORM     CORR.ENERGY   TOTAL ENERGY   ENERGY CHANGE        DEN1      VAR(S)    VAR(P)  DIIS     TIME  TIME/IT
   1      1.11880290    -0.45618042  -130.29605245    -0.00213864     0.01462726  0.32D-02  0.31D-02  1  1     1.26     0.64
   2      1.12932836    -0.45609806  -130.29597008     0.00008237    -0.01251151  0.12D-03  0.50D-03  2  2     1.87     0.66
   3      1.13589676    -0.45647170  -130.29634373    -0.00037365    -0.00336754  0.44D-04  0.58D-04  3  3     2.48     0.66
   4      1.13877054    -0.45650341  -130.29637544    -0.00003171    -0.00094656  0.44D-05  0.98D-05  4  4     3.08     0.67
   5      1.13985458    -0.45653586  -130.29640788    -0.00003245    -0.00022103  0.13D-05  0.18D-05  5  5     3.67     0.67
   6      1.14025415    -0.45652009  -130.29639212     0.00001576    -0.00006612  0.12D-06  0.43D-06  6  6     4.25     0.67
   7      1.14032813    -0.45652160  -130.29639363    -0.00000151     0.00000846  0.17D-07  0.94D-07  6  1     4.87     0.67
   8      1.14036316    -0.45652118  -130.29639321     0.00000042    -0.00000467  0.50D-08  0.15D-07  6  2     5.47     0.67
   9      1.14036874    -0.45652105  -130.29639308     0.00000013     0.00000090  0.22D-08  0.17D-08  6  3     6.06     0.67
  10      1.14036911    -0.45652139  -130.29639342    -0.00000033    -0.00000022  0.50D-09  0.26D-09  6  4     6.66     0.67
  11      1.14036757    -0.45652153  -130.29639356    -0.00000014     0.00000034  0.12D-09  0.26D-10  6  5     7.26     0.67
  12      1.14036640    -0.45652168  -130.29639371    -0.00000015     0.00000048  0.16D-10  0.77D-11  6  6     7.86     0.67
  13      1.14036574    -0.45652170  -130.29639372    -0.00000002     0.00000013  0.61D-11  0.14D-11  6  1     8.45     0.67
  14      1.14036521    -0.45652172  -130.29639375    -0.00000003     0.00000012  0.56D-12  0.45D-12  6  3     9.04     0.67
  15      1.14036506    -0.45652172  -130.29639375     0.00000000     0.00000001  0.14D-12  0.31D-13  6  2     9.67     0.67
  16      1.14036501    -0.45652173  -130.29639375    -0.00000000     0.00000001  0.33D-13  0.76D-14  6  4    10.32     0.68
  17      1.14036498    -0.45652173  -130.29639376    -0.00000000     0.00000001  0.41D-14  0.12D-14  6  5    10.94     0.68
  18      1.14036498    -0.45652173  -130.29639376     0.00000000     0.00000000  0.46D-15  0.32D-15  6  6    11.56     0.68
  19      1.14036499    -0.45652173  -130.29639376     0.00000000    -0.00000000  0.61D-16  0.40D-16  6  1    12.14     0.68
  20      1.14036499    -0.45652173  -130.29639376     0.00000000    -0.00000000  0.33D-17  0.92D-17  6  3    12.77     0.68
  21      1.14036499    -0.45652173  -130.29639376     0.00000000    -0.00000000  0.51D-18  0.19D-17  6  4    13.34     0.68
  22      1.14036499    -0.45652173  -130.29639376     0.00000000    -0.00000000  0.16D-19  0.68D-18  6  2    13.95     0.68
  23      1.14036499    -0.45652173  -130.29639376    -0.00000000     0.00000000  0.50D-19  0.14D-18  6  5    14.58     0.68
  24      1.14036499    -0.45652173  -130.29639376    -0.00000000     0.00000000  0.48D-20  0.14D-19  6  1    15.18     0.68
  25      1.14036499    -0.45652173  -130.29639376     0.00000000    -0.00000000  0.20D-20  0.92D-21  6  6    15.78     0.68

 Norm of t1 vector:      0.07735863      S-energy:     0.00000000      T1 diagnostic:  0.01579076
                                                                       D1 diagnostic:  0.04302709

 Doubles amplitudes (print threshold =  0.500E-01):

         I         J         SYM. A    SYM. B    A         B      T(IJ, AB)

         6         6         2         2         1         1     -0.13530688


 Total CPU time for triples:      7.29 sec


 RESULTS
 =======

  Reference energy                   -129.839872028122
  CCSD singlet pair energy             -0.313537172415
  CCSD triplet pair energy             -0.142984554737
  CCSD correlation energy              -0.456521727152

  Triples (T) contribution             -0.021200246660
  Total correlation energy             -0.477721973812

  CCSD total energy                  -130.296393755273
  CCSD[T] energy                     -130.318692183600
  CCSD-T energy                      -130.317179376038
 !CCSD(T) total energy               -130.317594001934

 Timing summary (sec):

 STEP                 CPU(USER)    SYS     CPU(TOT)    WALL
 Transformation          0.69      0.12      0.81      0.81
 CCSD iterations        15.11      1.90     17.01     16.99
 Triples                 7.29      0.25      7.54      7.55

 Program statistics:

 Available memory in ccsd:               994999756
 Min. memory needed in ccsd:                887758
 Max. memory used in ccsd:                 1088212
 Max. memory used in cckext:               1535578 (25 integral passes)



 **********************************************************************************************************************************
 DATASETS  * FILE   NREC   LENGTH (MB)   RECORD NAMES
              1      20      479.24       500      610      700      900      950      970     1000      129      960     1100   
                                          VAR    BASINP    GEOM    SYMINP    ZMAT    AOBASIS   BASIS     P2S    ABASIS      S 
                                         1400     1410     1200     1210     1080     1600     1650     1300     1700     1380   
                                           T        V       H0       H01     AOSYM     SMH    MOLCAS    ERIS     OPER     JKOP   

              2       4        3.13       700     1000      520     2100   
                                         GEOM     BASIS   MCVARS     RHF  

 PROGRAMS   *        TOTAL   CCSD(T)        HF       INT
 CPU TIMES  *        32.27     23.12      4.96      4.08
 REAL TIME  *        37.67 SEC
 DISK USED  *         1.33 GB      
 **********************************************************************************************************************************

 CCSD(T)/USERDEF energy=   -130.317594001934

        CCSD(T)         HF-SCF  
   -130.31759400   -129.83987203
 **********************************************************************************************************************************
 Molpro calculation terminated
 Variable memory released
