
 Primary working directories    : /tmp/r2666/282334.maple
 Secondary working directories  : /tmp/r2666/282334.maple
 Wavefunction directory         : /ddn/home4/r2666/wfu/
 Main file repository           : /tmp/r2666/282334.maple/

 SHA1      : d5ffa45e93fdbca01ffc919aa182cfdae0147319
 NAME      : 2015.1.35
 ARCHNAME  : linux/x86_64
 FC        : /opt/intel/composer_xe_2015.1.133/bin/intel64/ifort
 BLASLIB   : -Wl,-_start-group /opt/intel/mkl/lib/intel64/libmkl_intel_ilp64.a /opt/intel/mkl/lib/intel64/libmkl_intel_thread.a /opt/intel/mkl/lib/intel64/libmkl_core.a -Wl,-_end-group
 id        : olemiss

 Nodes     nprocs
 cn086        1

 Using customized tuning parameters: mindgm=1; mindgv=20; mindgc=4; mindgr=1; noblas=0; minvec=7
 default implementation of scratch files=df  

 ***,hno CCSD(T)/TZ-F12 QFF
 memory, 995, m;
 gthresh,energy=1.d-12,zero=1.d-22,oneint=1.d-22,twoint=1.d-22;
 gthresh,optgrad=1.d-8,optstep=1.d-8;
 nocompress;
 geomtyp=xyz
 bohr
 geometry={
 3
        102       102
 H        0.0000000000        1.6717674218       -1.9277827079
 N        0.0000000000       -0.1692083303       -1.1526476272
 O        0.0000000000        0.0392086985        1.1298407441
 }
 
 basis={
 default=aug-cc-pvtz
 s,C,8236.0,1235.0,280.8, 79.27,25.59, 8.997,3.319
 s,C,0.9059,0.3643,0.1285000
 p,C,56.0,18.71,4.133,0.2827,0.3827,0.1209
 d,C,30.0,10.0,3.3,1.097,0.318
 f,C,7.0,2.3,0.7610
 s,N,11420.0,1712.0,389.3,110.0,35.57,12.54,4.644
 s,N,1.293,0.5118,0.1787
 p,N,79.89,26.63,5.948,1.742,0.555,0.1725
 d,N,45.0,15.0,5.0,1.654,0.469
 f,N,9.9,3.3,1.093
 s,O,15330.0,2299.0,522.4,147.3,47.55,16.76,6.207
 s,O,1.752,0.6882,0.2384
 p,O,103.5,34.46,7.749,2.28,0.7156,0.214
 d,O,63.0,21.0,7.0,2.314,0.645
 f,O,12.9,4.3,1.428
 s,mg,164900.0,24710.0,5628.0,1596.0,521.0;
 s,mg,188.0,73.01,29.90,12.54,4.306,1.826;
 s,mg,0.7417,0.0761,0.145,0.033,0.0129;
 p,mg,950.70,316.90,74.86,23.72,8.669,3.363;
 p,mg,1.310,0.4911,0.2364,0.08733,0.03237,0.00745;
 d,mg,1.601,0.686,0.126,0.294,0.0468;
 f,mg,1.372,0.588,0.094,0.252;
 }
   {hf,maxit=500;accu,20;}
 {ccsd(t),nocheck,maxit=250;orbital,IGNORE_ERROR;}

 Variables initialized (889), CPU time= 0.00 sec
 Commands  initialized (702), CPU time= 0.01 sec, 572 directives.
 Default parameters read. Elapsed time= 0.05 sec

 Checking input...
 Passed
1


                                         ***  PROGRAM SYSTEM MOLPRO  ***
                                       Copyright, TTI GmbH Stuttgart, 2015
                                    Version 2015.1 linked Jul  9 2018 13:16:40


 **********************************************************************************************************************************
 LABEL *   hno CCSD(T)/TZ-F12 QFF                                                        
  64 bit serial version                                                                  DATE: 04-Mar-20          TIME: 13:48:14  
 **********************************************************************************************************************************

 SHA1:             d5ffa45e93fdbca01ffc919aa182cfdae0147319
 **********************************************************************************************************************************

 THRESHOLDS:

 ZERO    =  1.00D-22  ONEINT  =  1.00D-22  TWOINT  =  1.00D-22  PREFAC  =  1.00D-14  LOCALI  =  1.00D-09  EORDER  =  1.00D-04
 ENERGY  =  1.00D-12  ETEST   =  0.00D+00  EDENS   =  0.00D+00  THRDEDEF=  1.00D-06  GRADIENT=  1.00D-02  STEP    =  1.00D-03
 ORBITAL =  1.00D-05  CIVEC   =  1.00D-05  COEFF   =  1.00D-04  PRINTCI =  5.00D-02  PUNCHCI =  9.90D+01  OPTGRAD =  3.00D-04
 OPTENERG=  1.00D-06  OPTSTEP =  3.00D-04  THRGRAD =  1.00D-10  COMPRESS=  1.00D-11  VARMIN  =  1.00D-07  VARMAX  =  1.00D-03
 THRDOUB =  0.00D+00  THRDIV  =  1.00D-05  THRRED  =  1.00D-07  THRPSP  =  1.00D+00  THRDC   =  1.00D-10  THRCS   =  1.00D-10
 THRNRM  =  1.00D-08  THREQ   =  0.00D+00  THRDE   =  1.00D+00  THRREF  =  1.00D-05  SPARFAC =  1.00D+00  THRDLP  =  1.00D-07
 THRDIA  =  1.00D-10  THRDLS  =  1.00D-07  THRGPS  =  0.00D+00  THRKEX  =  0.00D+00  THRDIS  =  2.00D-01  THRVAR  =  1.00D-10
 THRLOC  =  1.00D-06  THRGAP  =  1.00D-06  THRLOCT = -1.00D+00  THRGAPT = -1.00D+00  THRORB  =  1.00D-06  THRMLTP =  0.00D+00
 THRCPQCI=  1.00D-10  KEXTA   =  0.00D+00  THRCOARS=  0.00D+00  SYMTOL  =  1.00D-06  GRADTOL =  1.00D-06  THROVL  =  1.00D-08
 THRORTH =  1.00D-08  GRID    =  1.00D-06  GRIDMAX =  1.00D-03  DTMAX   =  0.00D+00  THROCCDE=  1.00D-01  THROCCDE=  1.00D-01



 THRESHOLDS:

 ZERO    =  1.00D-22  ONEINT  =  1.00D-22  TWOINT  =  1.00D-22  PREFAC  =  1.00D-14  LOCALI  =  1.00D-09  EORDER  =  1.00D-04
 ENERGY  =  1.00D-12  ETEST   =  0.00D+00  EDENS   =  0.00D+00  THRDEDEF=  1.00D-06  GRADIENT=  1.00D-02  STEP    =  1.00D-03
 ORBITAL =  1.00D-05  CIVEC   =  1.00D-05  COEFF   =  1.00D-04  PRINTCI =  5.00D-02  PUNCHCI =  9.90D+01  OPTGRAD =  1.00D-08
 OPTENERG=  1.00D-06  OPTSTEP =  1.00D-08  THRGRAD =  1.00D-10  COMPRESS=  1.00D-11  VARMIN  =  1.00D-07  VARMAX  =  1.00D-03
 THRDOUB =  0.00D+00  THRDIV  =  1.00D-05  THRRED  =  1.00D-07  THRPSP  =  1.00D+00  THRDC   =  1.00D-10  THRCS   =  1.00D-10
 THRNRM  =  1.00D-08  THREQ   =  0.00D+00  THRDE   =  1.00D+00  THRREF  =  1.00D-05  SPARFAC =  1.00D+00  THRDLP  =  1.00D-07
 THRDIA  =  1.00D-10  THRDLS  =  1.00D-07  THRGPS  =  0.00D+00  THRKEX  =  0.00D+00  THRDIS  =  2.00D-01  THRVAR  =  1.00D-10
 THRLOC  =  1.00D-06  THRGAP  =  1.00D-06  THRLOCT = -1.00D+00  THRGAPT = -1.00D+00  THRORB  =  1.00D-06  THRMLTP =  0.00D+00
 THRCPQCI=  1.00D-10  KEXTA   =  0.00D+00  THRCOARS=  0.00D+00  SYMTOL  =  1.00D-06  GRADTOL =  1.00D-06  THROVL  =  1.00D-08
 THRORTH =  1.00D-08  GRID    =  1.00D-06  GRIDMAX =  1.00D-03  DTMAX   =  0.00D+00  THROCCDE=  1.00D-01  THROCCDE=  1.00D-01



 Input parameters for SORTINT:

 COMPRESS =    0.000000
 C_FINAL  =    1.000000
 DEBUG    =   -1.000000
 C_SORT1  =    0.000000
 C_SEWARD =    0.000000
 THRESH   =    0.000000
 IO       =  molpro                                                          
 SPRI     =    0.000000
 SETTING GEOMTYP        =    XYZ
 ZUNIT=BOHR
 

 Variable memory set to  995000000 words,  buffer space   230000 words

 SETTING BASIS          =    USERDEF


 Recomputing integrals since basis changed


 Using spherical harmonics

 Library entry H      S aug-cc-pVTZ          selected for orbital group  1
 Library entry H      P aug-cc-pVTZ          selected for orbital group  1
 Library entry H      D aug-cc-pVTZ          selected for orbital group  1


 PROGRAM * SEWARD (Integral evaluation for generally contracted gaussian basis sets)     Author: Roland Lindh, 1990

 Geometry written to block  1 of record 700


 Point group  Cs  



 ATOMIC COORDINATES

 NR  ATOM    CHARGE       X              Y              Z

   1  H       1.00    0.000000000    1.671767422   -1.927782708
   2  N       7.00    0.000000000   -0.169208330   -1.152647627
   3  O       8.00    0.000000000    0.039208698    1.129840744

 Bond lengths in Bohr (Angstrom)

 1-2  1.997504972  2-3  2.291984036
     ( 1.057034110)     ( 1.212865720)

 Bond angles

  1-2-3  107.61603570

 NUCLEAR CHARGE:                   16
 NUMBER OF PRIMITIVE AOS:         203
 NUMBER OF SYMMETRY AOS:          173
 NUMBER OF CONTRACTIONS:          171   ( 114A'  +  57A"  )
 NUMBER OF CORE ORBITALS:           2   (   2A'  +   0A"  )
 NUMBER OF VALENCE ORBITALS:        9   (   7A'  +   2A"  )


 NUCLEAR REPULSION ENERGY   30.24537711


 Eigenvalues of metric

         1 0.106E-02 0.254E-02 0.337E-02 0.642E-02 0.100E-01 0.137E-01 0.145E-01 0.233E-01
         2 0.371E-01 0.540E-01 0.707E-01 0.941E-01 0.131E+00 0.134E+00 0.141E+00 0.142E+00


 Contracted 2-electron integrals neglected if value below      1.0D-22

       46131587. INTEGRALS WRITTEN OUT IN   11266 BLOCKS ON RECORD 1290 OF FILE 1


 NUMBER OF SORTED TWO-ELECTRON INTEGRALS:   55360566.     BUFFER LENGTH:  32768
 NUMBER OF SEGMENTS:   4  SEGMENT LENGTH:   15997996      RECORD LENGTH: 524288

 Memory used in sort:      16.56 MW

 SORT1 READ    46131587. AND WROTE    46568932. INTEGRALS IN    136 RECORDS. CPU TIME:     0.69 SEC, REAL TIME:     1.00 SEC
 SORT2 READ    46568932. AND WROTE    55360566. INTEGRALS IN      4 RECORDS. CPU TIME:     0.63 SEC, REAL TIME:     0.85 SEC

 FILE SIZES:   FILE 1:   759.1 MBYTE,  FILE 4:   570.5 MBYTE,   TOTAL:   1329.5 MBYTE

 OPERATOR DM      FOR CENTER  0  COORDINATES:    0.000000    0.000000    0.000000


 **********************************************************************************************************************************
 DATASETS  * FILE   NREC   LENGTH (MB)   RECORD NAMES
              1      19      421.15       500      610      700      900      950      970     1000      129      960     1100   
                                          VAR    BASINP    GEOM    SYMINP    ZMAT    AOBASIS   BASIS     P2S    ABASIS      S 
                                         1400     1410     1200     1210     1080     1600     1650     1300     1700   
                                           T        V       H0       H01     AOSYM     SMH    MOLCAS    ERIS     OPER   

 PROGRAMS   *        TOTAL       INT
 CPU TIMES  *         3.98      3.89
 REAL TIME  *         5.43 SEC
 DISK USED  *         1.33 GB      
 **********************************************************************************************************************************


 PROGRAM * RHF-SCF (CLOSED SHELL)       Authors: W. Meyer, H.-J. Werner


 NUMBER OF ELECTRONS:       8+    8-
 CONVERGENCE THRESHOLDS:    1.00E-10 (Density)    1.00E-13 (Energy)
 MAX. NUMBER OF ITERATIONS:      500
 INTERPOLATION TYPE:            DIIS
 INTERPOLATION STEPS:              2 (START)      1 (STEP)
 LEVEL SHIFTS:                  0.00 (CLOSED)  0.00 (OPEN) 



 Orbital guess generated from atomic densities. Full valence occupancy:    9   2

 Molecular orbital dump at record        2100.2

 Initial occupancy:   7   1

 ITERATION    DDIFF          GRAD             ENERGY        2-EL.EN.            DIPOLE MOMENTS         DIIS   ORB.
    1      0.000D+00      0.000D+00      -129.78733532    153.839325    0.00000    0.56346   -1.02881    0    start
    2      0.000D+00      0.886D-02      -129.81408178    155.006675    0.00000    0.60056   -0.18899    1    diag
    3      0.366D-02      0.683D-02      -129.83798014    155.137474    0.00000    0.54476   -0.58800    2    diag
    4      0.144D-02      0.104D-02      -129.83877315    154.858937    0.00000    0.55300   -0.52494    3    diag
    5      0.332D-03      0.341D-03      -129.83889653    154.947661    0.00000    0.55905   -0.52725    4    diag
    6      0.154D-03      0.100D-03      -129.83891680    154.931415    0.00000    0.55958   -0.52302    5    diag
    7      0.611D-04      0.505D-04      -129.83892284    154.933931    0.00000    0.56091   -0.52043    6    diag
    8      0.416D-04      0.176D-04      -129.83892352    154.933073    0.00000    0.56096   -0.51948    7    diag
    9      0.148D-04      0.329D-05      -129.83892355    154.932954    0.00000    0.56091   -0.51929    8    diag
   10      0.304D-05      0.739D-06      -129.83892355    154.932940    0.00000    0.56087   -0.51926    9    orth
   11      0.876D-06      0.147D-06      -129.83892355    154.932935    0.00000    0.56087   -0.51926    9    diag
   12      0.207D-06      0.309D-07      -129.83892355    154.932935    0.00000    0.56086   -0.51926    9    diag
   13      0.513D-07      0.827D-08      -129.83892355    154.932934    0.00000    0.56086   -0.51926    9    diag
   14      0.119D-07      0.145D-08      -129.83892355    154.932934    0.00000    0.56086   -0.51926    9    diag
   15      0.147D-08      0.384D-09      -129.83892355    154.932934    0.00000    0.56086   -0.51926    9    diag
   16      0.332D-09      0.111D-09      -129.83892355    154.932934    0.00000    0.56086   -0.51926    9    diag
   17      0.727D-10      0.301D-10      -129.83892355    154.932934    0.00000    0.56086   -0.51926    0    orth

 Final occupancy:   7   1

 !RHF STATE 1.1 Energy               -129.838923551628
 Nuclear energy                        30.24537711
 One-electron energy                 -237.55076783
 Two-electron energy                   77.46646718
 Virial quotient                       -1.00182077
 !RHF STATE 1.1 Dipole moment           0.00000000     0.56086452    -0.51925638
 Dipole moment /Debye                   0.00000000     1.42548205    -1.31973164

 Orbital energies:

         1.1          2.1          3.1          4.1          5.1          6.1          7.1          8.1          9.1
    -20.651696   -15.712215    -1.524281    -0.992460    -0.743177    -0.662721    -0.430322     0.039659     0.192142

         1.2          2.2          3.2
     -0.592044     0.077520     0.239276

 HOMO      7.1    -0.430322 =     -11.7096eV
 LUMO      8.1     0.039659 =       1.0792eV
 LUMO-HOMO         0.469981 =      12.7888eV


 **********************************************************************************************************************************
 DATASETS  * FILE   NREC   LENGTH (MB)   RECORD NAMES
              1      19      421.15       500      610      700      900      950      970     1000      129      960     1100   
                                          VAR    BASINP    GEOM    SYMINP    ZMAT    AOBASIS   BASIS     P2S    ABASIS      S 
                                         1400     1410     1200     1210     1080     1600     1650     1300     1700   
                                           T        V       H0       H01     AOSYM     SMH    MOLCAS    ERIS     OPER   

              2       4        3.13       700     1000      520     2100   
                                         GEOM     BASIS   MCVARS     RHF  

 PROGRAMS   *        TOTAL        HF       INT
 CPU TIMES  *         8.15      4.17      3.89
 REAL TIME  *        10.56 SEC
 DISK USED  *         1.33 GB      
 **********************************************************************************************************************************


 PROGRAM * CCSD (Closed-shell coupled cluster)     Authors: C. Hampel, H.-J. Werner, 1991, M. Deegan, P.J. Knowles, 1992


 Convergence thresholds:  THRVAR = 1.00D-08  THRDEN = 1.00D-12

 CCSD(T)     terms to be evaluated (factor= 1.000)


 Number of core orbitals:           2 (   2   0 )
 Number of closed-shell orbitals:   6 (   5   1 )
 Number of external orbitals:     163 ( 107  56 )

 Molecular orbitals read from record     2100.2  Type=RHF/CANONICAL (state 1.1)

 Number of N-1 electron functions:               6
 Number of N-2 electron functions:              21
 Number of singly external CSFs:               591
 Number of doubly external CSFs:            250014
 Total number of CSFs:                      250606

 Length of J-op  integral file:               0.00 MB
 Length of K-op  integral file:               1.15 MB
 Length of 3-ext integral record:             0.00 MB

 Memory could be reduced to 19.93 Mwords without degradation in triples

 Integral transformation finished. Total CPU:   0.64 sec, npass=  1  Memory used:   5.10 MW

 Reference energy:                   -129.83892355

 MP2 singlet pair energy:              -0.28748399
 MP2 triplet pair energy:              -0.16758656
 MP2 correlation energy:               -0.45507055
 MP2 total energy:                   -130.29399410

 SCS-MP2 correlation energy:           -0.44925687   (PS=  1.200000  PT=  0.333333)
 SCS-MP2 total energy:               -130.28818043

 ITER.      SQ.NORM     CORR.ENERGY   TOTAL ENERGY   ENERGY CHANGE        DEN1      VAR(S)    VAR(P)  DIIS     TIME  TIME/IT
   1      1.11948278    -0.45700637  -130.29592992    -0.00193582     0.01507031  0.33D-02  0.32D-02  1  1     1.21     0.63
   2      1.13014785    -0.45688229  -130.29580584     0.00012408    -0.01265492  0.12D-03  0.51D-03  2  2     1.80     0.65
   3      1.13682494    -0.45726335  -130.29618690    -0.00038106    -0.00340859  0.45D-04  0.59D-04  3  3     2.38     0.65
   4      1.13975283    -0.45729565  -130.29621920    -0.00003230    -0.00096226  0.46D-05  0.99D-05  4  4     2.97     0.65
   5      1.14086292    -0.45732919  -130.29625274    -0.00003354    -0.00022702  0.14D-05  0.17D-05  5  5     3.55     0.66
   6      1.14126706    -0.45731294  -130.29623649     0.00001625    -0.00006722  0.13D-06  0.42D-06  6  6     4.11     0.66
   7      1.14133968    -0.45731441  -130.29623796    -0.00000147     0.00000878  0.18D-07  0.93D-07  6  1     4.71     0.66
   8      1.14137473    -0.45731389  -130.29623744     0.00000052    -0.00000479  0.47D-08  0.15D-07  6  2     5.28     0.66
   9      1.14138018    -0.45731376  -130.29623731     0.00000013     0.00000103  0.21D-08  0.17D-08  6  3     5.88     0.66
  10      1.14138068    -0.45731408  -130.29623763    -0.00000033    -0.00000027  0.49D-09  0.26D-09  6  4     6.47     0.66
  11      1.14137917    -0.45731422  -130.29623777    -0.00000014     0.00000034  0.12D-09  0.27D-10  6  5     7.07     0.66
  12      1.14137800    -0.45731437  -130.29623792    -0.00000015     0.00000047  0.16D-10  0.76D-11  6  6     7.67     0.66
  13      1.14137734    -0.45731439  -130.29623794    -0.00000002     0.00000012  0.59D-11  0.14D-11  6  1     8.27     0.66
  14      1.14137682    -0.45731442  -130.29623797    -0.00000003     0.00000012  0.54D-12  0.44D-12  6  3     8.85     0.66
  15      1.14137667    -0.45731442  -130.29623797     0.00000000     0.00000001  0.14D-12  0.31D-13  6  2     9.47     0.66
  16      1.14137662    -0.45731442  -130.29623797    -0.00000000     0.00000001  0.33D-13  0.76D-14  6  4    10.05     0.66
  17      1.14137659    -0.45731442  -130.29623798    -0.00000000     0.00000001  0.43D-14  0.12D-14  6  5    10.61     0.66
  18      1.14137659    -0.45731442  -130.29623798     0.00000000     0.00000000  0.47D-15  0.34D-15  6  6    11.21     0.66
  19      1.14137659    -0.45731442  -130.29623798     0.00000000    -0.00000000  0.65D-16  0.44D-16  6  1    11.79     0.66
  20      1.14137660    -0.45731442  -130.29623797     0.00000000    -0.00000000  0.33D-17  0.11D-16  6  3    12.40     0.66
  21      1.14137660    -0.45731442  -130.29623797     0.00000000    -0.00000000  0.53D-18  0.23D-17  6  4    12.95     0.66
  22      1.14137660    -0.45731442  -130.29623797     0.00000000    -0.00000000  0.18D-19  0.81D-18  6  2    13.59     0.66
  23      1.14137660    -0.45731442  -130.29623797    -0.00000000     0.00000000  0.57D-19  0.16D-18  6  5    14.18     0.66
  24      1.14137660    -0.45731442  -130.29623797    -0.00000000     0.00000000  0.45D-20  0.15D-19  6  1    14.77     0.66
  25      1.14137660    -0.45731442  -130.29623797     0.00000000    -0.00000000  0.21D-20  0.10D-20  6  6    15.38     0.66

 Norm of t1 vector:      0.07804969      S-energy:     0.00000000      T1 diagnostic:  0.01593183
                                                                       D1 diagnostic:  0.04358256

 Doubles amplitudes (print threshold =  0.500E-01):

         I         J         SYM. A    SYM. B    A         B      T(IJ, AB)

         6         6         2         2         1         1     -0.13694082


 Total CPU time for triples:      6.38 sec


 RESULTS
 =======

  Reference energy                   -129.838923551628
  CCSD singlet pair energy             -0.314225328730
  CCSD triplet pair energy             -0.143089094531
  CCSD correlation energy              -0.457314423255

  Triples (T) contribution             -0.021377307126
  Total correlation energy             -0.478691730380

  CCSD total energy                  -130.296237974883
  CCSD[T] energy                     -130.318734755091
  CCSD-T energy                      -130.317194562658
 !CCSD(T) total energy               -130.317615282008

 Timing summary (sec):

 STEP                 CPU(USER)    SYS     CPU(TOT)    WALL
 Transformation          0.65      0.14      0.79      0.80
 CCSD iterations        14.73      1.91     16.64     16.63
 Triples                 6.38      0.20      6.58      6.58

 Program statistics:

 Available memory in ccsd:               994999756
 Min. memory needed in ccsd:                887758
 Max. memory used in ccsd:                 1088212
 Max. memory used in cckext:               1535578 (25 integral passes)



 **********************************************************************************************************************************
 DATASETS  * FILE   NREC   LENGTH (MB)   RECORD NAMES
              1      20      479.11       500      610      700      900      950      970     1000      129      960     1100   
                                          VAR    BASINP    GEOM    SYMINP    ZMAT    AOBASIS   BASIS     P2S    ABASIS      S 
                                         1400     1410     1200     1210     1080     1600     1650     1300     1700     1380   
                                           T        V       H0       H01     AOSYM     SMH    MOLCAS    ERIS     OPER     JKOP   

              2       4        3.13       700     1000      520     2100   
                                         GEOM     BASIS   MCVARS     RHF  

 PROGRAMS   *        TOTAL   CCSD(T)        HF       INT
 CPU TIMES  *        29.95     21.80      4.17      3.89
 REAL TIME  *        34.98 SEC
 DISK USED  *         1.33 GB      
 **********************************************************************************************************************************

 CCSD(T)/USERDEF energy=   -130.317615282008

        CCSD(T)         HF-SCF  
   -130.31761528   -129.83892355
 **********************************************************************************************************************************
 Molpro calculation terminated
 Variable memory released
