
 Primary working directories    : /tmp/r2666/282275.maple
 Secondary working directories  : /tmp/r2666/282275.maple
 Wavefunction directory         : /ddn/home4/r2666/wfu/
 Main file repository           : /tmp/r2666/282275.maple/

 SHA1      : d5ffa45e93fdbca01ffc919aa182cfdae0147319
 NAME      : 2015.1.35
 ARCHNAME  : linux/x86_64
 FC        : /opt/intel/composer_xe_2015.1.133/bin/intel64/ifort
 BLASLIB   : -Wl,-_start-group /opt/intel/mkl/lib/intel64/libmkl_intel_ilp64.a /opt/intel/mkl/lib/intel64/libmkl_intel_thread.a /opt/intel/mkl/lib/intel64/libmkl_core.a -Wl,-_end-group
 id        : olemiss

 Nodes     nprocs
 cn063        1

 Using customized tuning parameters: mindgm=1; mindgv=20; mindgc=4; mindgr=1; noblas=0; minvec=7
 default implementation of scratch files=df  

 ***,hno CCSD(T)/TZ-F12 QFF
 memory, 995, m;
 gthresh,energy=1.d-12,zero=1.d-22,oneint=1.d-22,twoint=1.d-22;
 gthresh,optgrad=1.d-8,optstep=1.d-8;
 nocompress;
 geomtyp=xyz
 bohr
 geometry={
 3
         43        43
 H        0.0000000000        1.6639076473       -1.9299389204
 N        0.0000000000       -0.1574785329       -1.1569959334
 O        0.0000000000        0.0353386756        1.1363452627
 }
 
 basis={
 default=aug-cc-pvtz
 s,C,8236.0,1235.0,280.8, 79.27,25.59, 8.997,3.319
 s,C,0.9059,0.3643,0.1285000
 p,C,56.0,18.71,4.133,0.2827,0.3827,0.1209
 d,C,30.0,10.0,3.3,1.097,0.318
 f,C,7.0,2.3,0.7610
 s,N,11420.0,1712.0,389.3,110.0,35.57,12.54,4.644
 s,N,1.293,0.5118,0.1787
 p,N,79.89,26.63,5.948,1.742,0.555,0.1725
 d,N,45.0,15.0,5.0,1.654,0.469
 f,N,9.9,3.3,1.093
 s,O,15330.0,2299.0,522.4,147.3,47.55,16.76,6.207
 s,O,1.752,0.6882,0.2384
 p,O,103.5,34.46,7.749,2.28,0.7156,0.214
 d,O,63.0,21.0,7.0,2.314,0.645
 f,O,12.9,4.3,1.428
 s,mg,164900.0,24710.0,5628.0,1596.0,521.0;
 s,mg,188.0,73.01,29.90,12.54,4.306,1.826;
 s,mg,0.7417,0.0761,0.145,0.033,0.0129;
 p,mg,950.70,316.90,74.86,23.72,8.669,3.363;
 p,mg,1.310,0.4911,0.2364,0.08733,0.03237,0.00745;
 d,mg,1.601,0.686,0.126,0.294,0.0468;
 f,mg,1.372,0.588,0.094,0.252;
 }
   {hf,maxit=500;accu,20;}
 {ccsd(t),nocheck,maxit=250;orbital,IGNORE_ERROR;}

 Variables initialized (889), CPU time= 0.00 sec
 Commands  initialized (702), CPU time= 0.01 sec, 572 directives.
 Default parameters read. Elapsed time= 0.05 sec

 Checking input...
 Passed
1


                                         ***  PROGRAM SYSTEM MOLPRO  ***
                                       Copyright, TTI GmbH Stuttgart, 2015
                                    Version 2015.1 linked Jul  9 2018 13:16:40


 **********************************************************************************************************************************
 LABEL *   hno CCSD(T)/TZ-F12 QFF                                                        
  64 bit serial version                                                                  DATE: 04-Mar-20          TIME: 13:47:10  
 **********************************************************************************************************************************

 SHA1:             d5ffa45e93fdbca01ffc919aa182cfdae0147319
 **********************************************************************************************************************************

 THRESHOLDS:

 ZERO    =  1.00D-22  ONEINT  =  1.00D-22  TWOINT  =  1.00D-22  PREFAC  =  1.00D-14  LOCALI  =  1.00D-09  EORDER  =  1.00D-04
 ENERGY  =  1.00D-12  ETEST   =  0.00D+00  EDENS   =  0.00D+00  THRDEDEF=  1.00D-06  GRADIENT=  1.00D-02  STEP    =  1.00D-03
 ORBITAL =  1.00D-05  CIVEC   =  1.00D-05  COEFF   =  1.00D-04  PRINTCI =  5.00D-02  PUNCHCI =  9.90D+01  OPTGRAD =  3.00D-04
 OPTENERG=  1.00D-06  OPTSTEP =  3.00D-04  THRGRAD =  1.00D-10  COMPRESS=  1.00D-11  VARMIN  =  1.00D-07  VARMAX  =  1.00D-03
 THRDOUB =  0.00D+00  THRDIV  =  1.00D-05  THRRED  =  1.00D-07  THRPSP  =  1.00D+00  THRDC   =  1.00D-10  THRCS   =  1.00D-10
 THRNRM  =  1.00D-08  THREQ   =  0.00D+00  THRDE   =  1.00D+00  THRREF  =  1.00D-05  SPARFAC =  1.00D+00  THRDLP  =  1.00D-07
 THRDIA  =  1.00D-10  THRDLS  =  1.00D-07  THRGPS  =  0.00D+00  THRKEX  =  0.00D+00  THRDIS  =  2.00D-01  THRVAR  =  1.00D-10
 THRLOC  =  1.00D-06  THRGAP  =  1.00D-06  THRLOCT = -1.00D+00  THRGAPT = -1.00D+00  THRORB  =  1.00D-06  THRMLTP =  0.00D+00
 THRCPQCI=  1.00D-10  KEXTA   =  0.00D+00  THRCOARS=  0.00D+00  SYMTOL  =  1.00D-06  GRADTOL =  1.00D-06  THROVL  =  1.00D-08
 THRORTH =  1.00D-08  GRID    =  1.00D-06  GRIDMAX =  1.00D-03  DTMAX   =  0.00D+00  THROCCDE=  1.00D-01  THROCCDE=  1.00D-01



 THRESHOLDS:

 ZERO    =  1.00D-22  ONEINT  =  1.00D-22  TWOINT  =  1.00D-22  PREFAC  =  1.00D-14  LOCALI  =  1.00D-09  EORDER  =  1.00D-04
 ENERGY  =  1.00D-12  ETEST   =  0.00D+00  EDENS   =  0.00D+00  THRDEDEF=  1.00D-06  GRADIENT=  1.00D-02  STEP    =  1.00D-03
 ORBITAL =  1.00D-05  CIVEC   =  1.00D-05  COEFF   =  1.00D-04  PRINTCI =  5.00D-02  PUNCHCI =  9.90D+01  OPTGRAD =  1.00D-08
 OPTENERG=  1.00D-06  OPTSTEP =  1.00D-08  THRGRAD =  1.00D-10  COMPRESS=  1.00D-11  VARMIN  =  1.00D-07  VARMAX  =  1.00D-03
 THRDOUB =  0.00D+00  THRDIV  =  1.00D-05  THRRED  =  1.00D-07  THRPSP  =  1.00D+00  THRDC   =  1.00D-10  THRCS   =  1.00D-10
 THRNRM  =  1.00D-08  THREQ   =  0.00D+00  THRDE   =  1.00D+00  THRREF  =  1.00D-05  SPARFAC =  1.00D+00  THRDLP  =  1.00D-07
 THRDIA  =  1.00D-10  THRDLS  =  1.00D-07  THRGPS  =  0.00D+00  THRKEX  =  0.00D+00  THRDIS  =  2.00D-01  THRVAR  =  1.00D-10
 THRLOC  =  1.00D-06  THRGAP  =  1.00D-06  THRLOCT = -1.00D+00  THRGAPT = -1.00D+00  THRORB  =  1.00D-06  THRMLTP =  0.00D+00
 THRCPQCI=  1.00D-10  KEXTA   =  0.00D+00  THRCOARS=  0.00D+00  SYMTOL  =  1.00D-06  GRADTOL =  1.00D-06  THROVL  =  1.00D-08
 THRORTH =  1.00D-08  GRID    =  1.00D-06  GRIDMAX =  1.00D-03  DTMAX   =  0.00D+00  THROCCDE=  1.00D-01  THROCCDE=  1.00D-01



 Input parameters for SORTINT:

 COMPRESS =    0.000000
 C_FINAL  =    1.000000
 DEBUG    =   -1.000000
 C_SORT1  =    0.000000
 C_SEWARD =    0.000000
 THRESH   =    0.000000
 IO       =  molpro                                                          
 SPRI     =    0.000000
 SETTING GEOMTYP        =    XYZ
 ZUNIT=BOHR
 

 Variable memory set to  995000000 words,  buffer space   230000 words

 SETTING BASIS          =    USERDEF


 Recomputing integrals since basis changed


 Using spherical harmonics

 Library entry H      S aug-cc-pVTZ          selected for orbital group  1
 Library entry H      P aug-cc-pVTZ          selected for orbital group  1
 Library entry H      D aug-cc-pVTZ          selected for orbital group  1


 PROGRAM * SEWARD (Integral evaluation for generally contracted gaussian basis sets)     Author: Roland Lindh, 1990

 Geometry written to block  1 of record 700


 Point group  Cs  



 ATOMIC COORDINATES

 NR  ATOM    CHARGE       X              Y              Z

   1  H       1.00    0.000000000    1.663907647   -1.929938920
   2  N       7.00    0.000000000   -0.157478533   -1.156995933
   3  O       8.00    0.000000000    0.035338676    1.136345263

 Bond lengths in Bohr (Angstrom)

 1-2  1.978607712  2-3  2.301432666
     ( 1.047034111)     ( 1.217865719)

 Bond angles

  1-2-3  108.18899349

 NUCLEAR CHARGE:                   16
 NUMBER OF PRIMITIVE AOS:         203
 NUMBER OF SYMMETRY AOS:          173
 NUMBER OF CONTRACTIONS:          171   ( 114A'  +  57A"  )
 NUMBER OF CORE ORBITALS:           2   (   2A'  +   0A"  )
 NUMBER OF VALENCE ORBITALS:        9   (   7A'  +   2A"  )


 NUCLEAR REPULSION ENERGY   30.17470089


 Eigenvalues of metric

         1 0.105E-02 0.257E-02 0.336E-02 0.637E-02 0.969E-02 0.137E-01 0.145E-01 0.230E-01
         2 0.358E-01 0.545E-01 0.701E-01 0.942E-01 0.131E+00 0.134E+00 0.140E+00 0.142E+00


 Contracted 2-electron integrals neglected if value below      1.0D-22

       46096631. INTEGRALS WRITTEN OUT IN   11257 BLOCKS ON RECORD 1290 OF FILE 1


 NUMBER OF SORTED TWO-ELECTRON INTEGRALS:   55360566.     BUFFER LENGTH:  32768
 NUMBER OF SEGMENTS:   4  SEGMENT LENGTH:   15997996      RECORD LENGTH: 524288

 Memory used in sort:      16.56 MW

 SORT1 READ    46096631. AND WROTE    46533565. INTEGRALS IN    135 RECORDS. CPU TIME:     1.28 SEC, REAL TIME:     1.63 SEC
 SORT2 READ    46533565. AND WROTE    55360566. INTEGRALS IN      4 RECORDS. CPU TIME:     0.78 SEC, REAL TIME:     1.04 SEC

 FILE SIZES:   FILE 1:   758.5 MBYTE,  FILE 4:   566.3 MBYTE,   TOTAL:   1324.7 MBYTE

 OPERATOR DM      FOR CENTER  0  COORDINATES:    0.000000    0.000000    0.000000


 **********************************************************************************************************************************
 DATASETS  * FILE   NREC   LENGTH (MB)   RECORD NAMES
              1      19      420.90       500      610      700      900      950      970     1000      129      960     1100   
                                          VAR    BASINP    GEOM    SYMINP    ZMAT    AOBASIS   BASIS     P2S    ABASIS      S 
                                         1400     1410     1200     1210     1080     1600     1650     1300     1700   
                                           T        V       H0       H01     AOSYM     SMH    MOLCAS    ERIS     OPER   

 PROGRAMS   *        TOTAL       INT
 CPU TIMES  *         5.76      5.68
 REAL TIME  *         7.37 SEC
 DISK USED  *         1.33 GB      
 **********************************************************************************************************************************


 PROGRAM * RHF-SCF (CLOSED SHELL)       Authors: W. Meyer, H.-J. Werner


 NUMBER OF ELECTRONS:       8+    8-
 CONVERGENCE THRESHOLDS:    1.00E-10 (Density)    1.00E-13 (Energy)
 MAX. NUMBER OF ITERATIONS:      500
 INTERPOLATION TYPE:            DIIS
 INTERPOLATION STEPS:              2 (START)      1 (STEP)
 LEVEL SHIFTS:                  0.00 (CLOSED)  0.00 (OPEN) 



 Orbital guess generated from atomic densities. Full valence occupancy:    9   2

 Molecular orbital dump at record        2100.2

 Initial occupancy:   7   1

 ITERATION    DDIFF          GRAD             ENERGY        2-EL.EN.            DIPOLE MOMENTS         DIIS   ORB.
    1      0.000D+00      0.000D+00      -129.78669711    153.717468    0.00000    0.57724   -1.04479    0    start
    2      0.000D+00      0.886D-02      -129.81326273    154.865769    0.00000    0.60418   -0.19235    1    diag
    3      0.371D-02      0.687D-02      -129.83751481    155.009798    0.00000    0.55287   -0.59838    2    diag
    4      0.145D-02      0.105D-02      -129.83831782    154.728760    0.00000    0.56076   -0.53426    3    diag
    5      0.336D-03      0.341D-03      -129.83844088    154.817286    0.00000    0.56671   -0.53648    4    diag
    6      0.154D-03      0.998D-04      -129.83846096    154.801132    0.00000    0.56723   -0.53219    5    diag
    7      0.610D-04      0.506D-04      -129.83846706    154.803542    0.00000    0.56853   -0.52954    6    diag
    8      0.417D-04      0.179D-04      -129.83846777    154.802672    0.00000    0.56857   -0.52855    7    diag
    9      0.152D-04      0.336D-05      -129.83846780    154.802552    0.00000    0.56852   -0.52836    8    diag
   10      0.315D-05      0.749D-06      -129.83846781    154.802538    0.00000    0.56848   -0.52833    9    orth
   11      0.899D-06      0.147D-06      -129.83846781    154.802534    0.00000    0.56848   -0.52833    9    diag
   12      0.209D-06      0.313D-07      -129.83846781    154.802534    0.00000    0.56847   -0.52833    9    diag
   13      0.511D-07      0.847D-08      -129.83846781    154.802533    0.00000    0.56847   -0.52833    9    diag
   14      0.119D-07      0.148D-08      -129.83846781    154.802533    0.00000    0.56847   -0.52833    9    diag
   15      0.140D-08      0.391D-09      -129.83846781    154.802533    0.00000    0.56847   -0.52833    9    diag
   16      0.333D-09      0.112D-09      -129.83846781    154.802533    0.00000    0.56847   -0.52833    9    diag
   17      0.635D-10      0.288D-10      -129.83846781    154.802533    0.00000    0.56847   -0.52833    0    orth

 Final occupancy:   7   1

 !RHF STATE 1.1 Energy               -129.838467805786
 Nuclear energy                        30.17470089
 One-electron energy                 -237.41443535
 Two-electron energy                   77.40126666
 Virial quotient                       -1.00186276
 !RHF STATE 1.1 Dipole moment           0.00000000     0.56847433    -0.52832676
 Dipole moment /Debye                   0.00000000     1.44482300    -1.34278472

 Orbital energies:

         1.1          2.1          3.1          4.1          5.1          6.1          7.1          8.1          9.1
    -20.652116   -15.711609    -1.520077    -0.996482    -0.742749    -0.661394    -0.432035     0.039584     0.192762

         1.2          2.2          3.2
     -0.589489     0.075622     0.239260

 HOMO      7.1    -0.432035 =     -11.7563eV
 LUMO      8.1     0.039584 =       1.0771eV
 LUMO-HOMO         0.471619 =      12.8334eV


 **********************************************************************************************************************************
 DATASETS  * FILE   NREC   LENGTH (MB)   RECORD NAMES
              1      19      420.90       500      610      700      900      950      970     1000      129      960     1100   
                                          VAR    BASINP    GEOM    SYMINP    ZMAT    AOBASIS   BASIS     P2S    ABASIS      S 
                                         1400     1410     1200     1210     1080     1600     1650     1300     1700   
                                           T        V       H0       H01     AOSYM     SMH    MOLCAS    ERIS     OPER   

              2       4        3.13       700     1000      520     2100   
                                         GEOM     BASIS   MCVARS     RHF  

 PROGRAMS   *        TOTAL        HF       INT
 CPU TIMES  *        10.83      5.07      5.68
 REAL TIME  *        13.91 SEC
 DISK USED  *         1.33 GB      
 **********************************************************************************************************************************


 PROGRAM * CCSD (Closed-shell coupled cluster)     Authors: C. Hampel, H.-J. Werner, 1991, M. Deegan, P.J. Knowles, 1992


 Convergence thresholds:  THRVAR = 1.00D-08  THRDEN = 1.00D-12

 CCSD(T)     terms to be evaluated (factor= 1.000)


 Number of core orbitals:           2 (   2   0 )
 Number of closed-shell orbitals:   6 (   5   1 )
 Number of external orbitals:     163 ( 107  56 )

 Molecular orbitals read from record     2100.2  Type=RHF/CANONICAL (state 1.1)

 Number of N-1 electron functions:               6
 Number of N-2 electron functions:              21
 Number of singly external CSFs:               591
 Number of doubly external CSFs:            250014
 Total number of CSFs:                      250606

 Length of J-op  integral file:               0.00 MB
 Length of K-op  integral file:               1.15 MB
 Length of 3-ext integral record:             0.00 MB

 Memory could be reduced to 19.93 Mwords without degradation in triples

 Integral transformation finished. Total CPU:   0.90 sec, npass=  1  Memory used:   5.10 MW

 Reference energy:                   -129.83846781

 MP2 singlet pair energy:              -0.28776884
 MP2 triplet pair energy:              -0.16779544
 MP2 correlation energy:               -0.45556428
 MP2 total energy:                   -130.29403209

 SCS-MP2 correlation energy:           -0.44972866   (PS=  1.200000  PT=  0.333333)
 SCS-MP2 total energy:               -130.28819646

 ITER.      SQ.NORM     CORR.ENERGY   TOTAL ENERGY   ENERGY CHANGE        DEN1      VAR(S)    VAR(P)  DIIS     TIME  TIME/IT
   1      1.11970239    -0.45733314  -130.29580094    -0.00176886     0.01538181  0.33D-02  0.32D-02  1  1     1.69     0.88
   2      1.13044066    -0.45716948  -130.29563728     0.00016366    -0.01273630  0.13D-03  0.51D-03  2  2     2.54     0.91
   3      1.13716961    -0.45755216  -130.29601996    -0.00038268    -0.00341961  0.46D-04  0.60D-04  3  3     3.37     0.92
   4      1.14014503    -0.45758591  -130.29605372    -0.00003376    -0.00097210  0.46D-05  0.10D-04  4  4     4.22     0.92
   5      1.14128114    -0.45761988  -130.29608769    -0.00003397    -0.00023218  0.13D-05  0.18D-05  5  5     5.08     0.93
   6      1.14169289    -0.45760317  -130.29607098     0.00001671    -0.00006848  0.12D-06  0.43D-06  6  6     5.92     0.93
   7      1.14176492    -0.45760485  -130.29607266    -0.00000168     0.00000921  0.16D-07  0.97D-07  6  1     6.75     0.93
   8      1.14180006    -0.45760433  -130.29607213     0.00000053    -0.00000489  0.49D-08  0.15D-07  6  2     7.61     0.93
   9      1.14180521    -0.45760421  -130.29607201     0.00000012     0.00000117  0.22D-08  0.18D-08  6  3     8.46     0.93
  10      1.14180572    -0.45760454  -130.29607234    -0.00000033    -0.00000033  0.52D-09  0.28D-09  6  4     9.30     0.93
  11      1.14180419    -0.45760468  -130.29607249    -0.00000014     0.00000035  0.13D-09  0.28D-10  6  5    10.11     0.93
  12      1.14180301    -0.45760484  -130.29607264    -0.00000016     0.00000048  0.16D-10  0.79D-11  6  6    10.93     0.93
  13      1.14180234    -0.45760486  -130.29607266    -0.00000002     0.00000012  0.58D-11  0.14D-11  6  1    11.79     0.93
  14      1.14180182    -0.45760489  -130.29607269    -0.00000003     0.00000012  0.53D-12  0.46D-12  6  3    12.65     0.93
  15      1.14180165    -0.45760489  -130.29607269     0.00000000     0.00000001  0.14D-12  0.33D-13  6  2    13.49     0.93
  16      1.14180160    -0.45760489  -130.29607269    -0.00000000     0.00000001  0.32D-13  0.78D-14  6  4    14.33     0.93
  17      1.14180157    -0.45760489  -130.29607270    -0.00000000     0.00000001  0.44D-14  0.12D-14  6  5    15.20     0.93
  18      1.14180157    -0.45760489  -130.29607270     0.00000000     0.00000000  0.51D-15  0.34D-15  6  6    16.03     0.93
  19      1.14180158    -0.45760489  -130.29607269     0.00000000    -0.00000000  0.70D-16  0.48D-16  6  1    16.87     0.93
  20      1.14180158    -0.45760489  -130.29607269     0.00000000    -0.00000000  0.35D-17  0.12D-16  6  3    17.74     0.93
  21      1.14180158    -0.45760489  -130.29607269     0.00000000    -0.00000000  0.57D-18  0.26D-17  6  4    18.60     0.94
  22      1.14180158    -0.45760489  -130.29607269     0.00000000    -0.00000000  0.39D-19  0.91D-18  6  2    19.43     0.94
  23      1.14180158    -0.45760489  -130.29607269    -0.00000000     0.00000000  0.80D-19  0.18D-18  6  5    20.31     0.94
  24      1.14180158    -0.45760489  -130.29607269    -0.00000000     0.00000000  0.49D-20  0.17D-19  6  1    21.18     0.94
  25      1.14180158    -0.45760489  -130.29607269     0.00000000    -0.00000000  0.25D-20  0.12D-20  6  6    22.03     0.94

 Norm of t1 vector:      0.07854705      S-energy:     0.00000000      T1 diagnostic:  0.01603335
                                                                       D1 diagnostic:  0.04426726

 Doubles amplitudes (print threshold =  0.500E-01):

         I         J         SYM. A    SYM. B    A         B      T(IJ, AB)

         6         6         2         2         1         1     -0.13846632


 Total CPU time for triples:      6.90 sec


 RESULTS
 =======

  Reference energy                   -129.838467805786
  CCSD singlet pair energy             -0.314486711490
  CCSD triplet pair energy             -0.143118177328
  CCSD correlation energy              -0.457604888810

  Triples (T) contribution             -0.021472416431
  Total correlation energy             -0.479077305241

  CCSD total energy                  -130.296072694596
  CCSD[T] energy                     -130.318679714760
  CCSD-T energy                      -130.317121989064
 !CCSD(T) total energy               -130.317545111026

 Timing summary (sec):

 STEP                 CPU(USER)    SYS     CPU(TOT)    WALL
 Transformation          0.91      0.16      1.07      1.07
 CCSD iterations        21.13      2.28     23.41     23.41
 Triples                 6.90      0.22      7.12      7.13

 Program statistics:

 Available memory in ccsd:               994999756
 Min. memory needed in ccsd:                887758
 Max. memory used in ccsd:                 1088212
 Max. memory used in cckext:               1535578 (25 integral passes)



 **********************************************************************************************************************************
 DATASETS  * FILE   NREC   LENGTH (MB)   RECORD NAMES
              1      20      478.86       500      610      700      900      950      970     1000      129      960     1100   
                                          VAR    BASINP    GEOM    SYMINP    ZMAT    AOBASIS   BASIS     P2S    ABASIS      S 
                                         1400     1410     1200     1210     1080     1600     1650     1300     1700     1380   
                                           T        V       H0       H01     AOSYM     SMH    MOLCAS    ERIS     OPER     JKOP   

              2       4        3.13       700     1000      520     2100   
                                         GEOM     BASIS   MCVARS     RHF  

 PROGRAMS   *        TOTAL   CCSD(T)        HF       INT
 CPU TIMES  *        39.79     28.96      5.07      5.68
 REAL TIME  *        45.62 SEC
 DISK USED  *         1.33 GB      
 **********************************************************************************************************************************

 CCSD(T)/USERDEF energy=   -130.317545111026

        CCSD(T)         HF-SCF  
   -130.31754511   -129.83846781
 **********************************************************************************************************************************
 Molpro calculation terminated
 Variable memory released
