
 Primary working directories    : /tmp/r2666/282335.maple
 Secondary working directories  : /tmp/r2666/282335.maple
 Wavefunction directory         : /ddn/home4/r2666/wfu/
 Main file repository           : /tmp/r2666/282335.maple/

 SHA1      : d5ffa45e93fdbca01ffc919aa182cfdae0147319
 NAME      : 2015.1.35
 ARCHNAME  : linux/x86_64
 FC        : /opt/intel/composer_xe_2015.1.133/bin/intel64/ifort
 BLASLIB   : -Wl,-_start-group /opt/intel/mkl/lib/intel64/libmkl_intel_ilp64.a /opt/intel/mkl/lib/intel64/libmkl_intel_thread.a /opt/intel/mkl/lib/intel64/libmkl_core.a -Wl,-_end-group
 id        : olemiss

 Nodes     nprocs
 cn084        1

 Using customized tuning parameters: mindgm=1; mindgv=20; mindgc=4; mindgr=1; noblas=0; minvec=7
 default implementation of scratch files=df  

 ***,hno CCSD(T)/TZ-F12 QFF
 memory, 995, m;
 gthresh,energy=1.d-12,zero=1.d-22,oneint=1.d-22,twoint=1.d-22;
 gthresh,optgrad=1.d-8,optstep=1.d-8;
 nocompress;
 geomtyp=xyz
 bohr
 geometry={
 3
        103       103
 H        0.0000000000        1.6719932434       -1.9313649475
 N        0.0000000000       -0.1668070837       -1.1510832866
 O        0.0000000000        0.0365816303        1.1318586430
 }
 
 basis={
 default=aug-cc-pvtz
 s,C,8236.0,1235.0,280.8, 79.27,25.59, 8.997,3.319
 s,C,0.9059,0.3643,0.1285000
 p,C,56.0,18.71,4.133,0.2827,0.3827,0.1209
 d,C,30.0,10.0,3.3,1.097,0.318
 f,C,7.0,2.3,0.7610
 s,N,11420.0,1712.0,389.3,110.0,35.57,12.54,4.644
 s,N,1.293,0.5118,0.1787
 p,N,79.89,26.63,5.948,1.742,0.555,0.1725
 d,N,45.0,15.0,5.0,1.654,0.469
 f,N,9.9,3.3,1.093
 s,O,15330.0,2299.0,522.4,147.3,47.55,16.76,6.207
 s,O,1.752,0.6882,0.2384
 p,O,103.5,34.46,7.749,2.28,0.7156,0.214
 d,O,63.0,21.0,7.0,2.314,0.645
 f,O,12.9,4.3,1.428
 s,mg,164900.0,24710.0,5628.0,1596.0,521.0;
 s,mg,188.0,73.01,29.90,12.54,4.306,1.826;
 s,mg,0.7417,0.0761,0.145,0.033,0.0129;
 p,mg,950.70,316.90,74.86,23.72,8.669,3.363;
 p,mg,1.310,0.4911,0.2364,0.08733,0.03237,0.00745;
 d,mg,1.601,0.686,0.126,0.294,0.0468;
 f,mg,1.372,0.588,0.094,0.252;
 }
   {hf,maxit=500;accu,20;}
 {ccsd(t),nocheck,maxit=250;orbital,IGNORE_ERROR;}

 Variables initialized (889), CPU time= 0.01 sec
 Commands  initialized (702), CPU time= 0.01 sec, 572 directives.
 Default parameters read. Elapsed time= 0.04 sec

 Checking input...
 Passed
1


                                         ***  PROGRAM SYSTEM MOLPRO  ***
                                       Copyright, TTI GmbH Stuttgart, 2015
                                    Version 2015.1 linked Jul  9 2018 13:16:40


 **********************************************************************************************************************************
 LABEL *   hno CCSD(T)/TZ-F12 QFF                                                        
  64 bit serial version                                                                  DATE: 04-Mar-20          TIME: 13:48:14  
 **********************************************************************************************************************************

 SHA1:             d5ffa45e93fdbca01ffc919aa182cfdae0147319
 **********************************************************************************************************************************

 THRESHOLDS:

 ZERO    =  1.00D-22  ONEINT  =  1.00D-22  TWOINT  =  1.00D-22  PREFAC  =  1.00D-14  LOCALI  =  1.00D-09  EORDER  =  1.00D-04
 ENERGY  =  1.00D-12  ETEST   =  0.00D+00  EDENS   =  0.00D+00  THRDEDEF=  1.00D-06  GRADIENT=  1.00D-02  STEP    =  1.00D-03
 ORBITAL =  1.00D-05  CIVEC   =  1.00D-05  COEFF   =  1.00D-04  PRINTCI =  5.00D-02  PUNCHCI =  9.90D+01  OPTGRAD =  3.00D-04
 OPTENERG=  1.00D-06  OPTSTEP =  3.00D-04  THRGRAD =  1.00D-10  COMPRESS=  1.00D-11  VARMIN  =  1.00D-07  VARMAX  =  1.00D-03
 THRDOUB =  0.00D+00  THRDIV  =  1.00D-05  THRRED  =  1.00D-07  THRPSP  =  1.00D+00  THRDC   =  1.00D-10  THRCS   =  1.00D-10
 THRNRM  =  1.00D-08  THREQ   =  0.00D+00  THRDE   =  1.00D+00  THRREF  =  1.00D-05  SPARFAC =  1.00D+00  THRDLP  =  1.00D-07
 THRDIA  =  1.00D-10  THRDLS  =  1.00D-07  THRGPS  =  0.00D+00  THRKEX  =  0.00D+00  THRDIS  =  2.00D-01  THRVAR  =  1.00D-10
 THRLOC  =  1.00D-06  THRGAP  =  1.00D-06  THRLOCT = -1.00D+00  THRGAPT = -1.00D+00  THRORB  =  1.00D-06  THRMLTP =  0.00D+00
 THRCPQCI=  1.00D-10  KEXTA   =  0.00D+00  THRCOARS=  0.00D+00  SYMTOL  =  1.00D-06  GRADTOL =  1.00D-06  THROVL  =  1.00D-08
 THRORTH =  1.00D-08  GRID    =  1.00D-06  GRIDMAX =  1.00D-03  DTMAX   =  0.00D+00  THROCCDE=  1.00D-01  THROCCDE=  1.00D-01



 THRESHOLDS:

 ZERO    =  1.00D-22  ONEINT  =  1.00D-22  TWOINT  =  1.00D-22  PREFAC  =  1.00D-14  LOCALI  =  1.00D-09  EORDER  =  1.00D-04
 ENERGY  =  1.00D-12  ETEST   =  0.00D+00  EDENS   =  0.00D+00  THRDEDEF=  1.00D-06  GRADIENT=  1.00D-02  STEP    =  1.00D-03
 ORBITAL =  1.00D-05  CIVEC   =  1.00D-05  COEFF   =  1.00D-04  PRINTCI =  5.00D-02  PUNCHCI =  9.90D+01  OPTGRAD =  1.00D-08
 OPTENERG=  1.00D-06  OPTSTEP =  1.00D-08  THRGRAD =  1.00D-10  COMPRESS=  1.00D-11  VARMIN  =  1.00D-07  VARMAX  =  1.00D-03
 THRDOUB =  0.00D+00  THRDIV  =  1.00D-05  THRRED  =  1.00D-07  THRPSP  =  1.00D+00  THRDC   =  1.00D-10  THRCS   =  1.00D-10
 THRNRM  =  1.00D-08  THREQ   =  0.00D+00  THRDE   =  1.00D+00  THRREF  =  1.00D-05  SPARFAC =  1.00D+00  THRDLP  =  1.00D-07
 THRDIA  =  1.00D-10  THRDLS  =  1.00D-07  THRGPS  =  0.00D+00  THRKEX  =  0.00D+00  THRDIS  =  2.00D-01  THRVAR  =  1.00D-10
 THRLOC  =  1.00D-06  THRGAP  =  1.00D-06  THRLOCT = -1.00D+00  THRGAPT = -1.00D+00  THRORB  =  1.00D-06  THRMLTP =  0.00D+00
 THRCPQCI=  1.00D-10  KEXTA   =  0.00D+00  THRCOARS=  0.00D+00  SYMTOL  =  1.00D-06  GRADTOL =  1.00D-06  THROVL  =  1.00D-08
 THRORTH =  1.00D-08  GRID    =  1.00D-06  GRIDMAX =  1.00D-03  DTMAX   =  0.00D+00  THROCCDE=  1.00D-01  THROCCDE=  1.00D-01



 Input parameters for SORTINT:

 COMPRESS =    0.000000
 C_FINAL  =    1.000000
 DEBUG    =   -1.000000
 C_SORT1  =    0.000000
 C_SEWARD =    0.000000
 THRESH   =    0.000000
 IO       =  molpro                                                          
 SPRI     =    0.000000
 SETTING GEOMTYP        =    XYZ
 ZUNIT=BOHR
 

 Variable memory set to  995000000 words,  buffer space   230000 words

 SETTING BASIS          =    USERDEF


 Recomputing integrals since basis changed


 Using spherical harmonics

 Library entry H      S aug-cc-pVTZ          selected for orbital group  1
 Library entry H      P aug-cc-pVTZ          selected for orbital group  1
 Library entry H      D aug-cc-pVTZ          selected for orbital group  1


 PROGRAM * SEWARD (Integral evaluation for generally contracted gaussian basis sets)     Author: Roland Lindh, 1990

 Geometry written to block  1 of record 700


 Point group  Cs  



 ATOMIC COORDINATES

 NR  ATOM    CHARGE       X              Y              Z

   1  H       1.00    0.000000000    1.671993243   -1.931364948
   2  N       7.00    0.000000000   -0.166807084   -1.151083287
   3  O       8.00    0.000000000    0.036581630    1.131858643

 Bond lengths in Bohr (Angstrom)

 1-2  1.997504972  2-3  2.291984036
     ( 1.057034110)     ( 1.212865720)

 Bond angles

  1-2-3  107.90251459

 NUCLEAR CHARGE:                   16
 NUMBER OF PRIMITIVE AOS:         203
 NUMBER OF SYMMETRY AOS:          173
 NUMBER OF CONTRACTIONS:          171   ( 114A'  +  57A"  )
 NUMBER OF CORE ORBITALS:           2   (   2A'  +   0A"  )
 NUMBER OF VALENCE ORBITALS:        9   (   7A'  +   2A"  )


 NUCLEAR REPULSION ENERGY   30.24120048


 Eigenvalues of metric

         1 0.106E-02 0.254E-02 0.337E-02 0.642E-02 0.100E-01 0.137E-01 0.145E-01 0.233E-01
         2 0.370E-01 0.539E-01 0.706E-01 0.942E-01 0.131E+00 0.134E+00 0.141E+00 0.142E+00


 Contracted 2-electron integrals neglected if value below      1.0D-22

       46130766. INTEGRALS WRITTEN OUT IN   11266 BLOCKS ON RECORD 1290 OF FILE 1


 NUMBER OF SORTED TWO-ELECTRON INTEGRALS:   55360566.     BUFFER LENGTH:  32768
 NUMBER OF SEGMENTS:   4  SEGMENT LENGTH:   15997996      RECORD LENGTH: 524288

 Memory used in sort:      16.56 MW

 SORT1 READ    46130766. AND WROTE    46568102. INTEGRALS IN    136 RECORDS. CPU TIME:     0.77 SEC, REAL TIME:     1.00 SEC
 SORT2 READ    46568102. AND WROTE    55360566. INTEGRALS IN      4 RECORDS. CPU TIME:     0.65 SEC, REAL TIME:     0.85 SEC

 FILE SIZES:   FILE 1:   759.1 MBYTE,  FILE 4:   570.5 MBYTE,   TOTAL:   1329.5 MBYTE

 OPERATOR DM      FOR CENTER  0  COORDINATES:    0.000000    0.000000    0.000000


 **********************************************************************************************************************************
 DATASETS  * FILE   NREC   LENGTH (MB)   RECORD NAMES
              1      19      421.14       500      610      700      900      950      970     1000      129      960     1100   
                                          VAR    BASINP    GEOM    SYMINP    ZMAT    AOBASIS   BASIS     P2S    ABASIS      S 
                                         1400     1410     1200     1210     1080     1600     1650     1300     1700   
                                           T        V       H0       H01     AOSYM     SMH    MOLCAS    ERIS     OPER   

 PROGRAMS   *        TOTAL       INT
 CPU TIMES  *         4.11      4.02
 REAL TIME  *         5.46 SEC
 DISK USED  *         1.33 GB      
 **********************************************************************************************************************************


 PROGRAM * RHF-SCF (CLOSED SHELL)       Authors: W. Meyer, H.-J. Werner


 NUMBER OF ELECTRONS:       8+    8-
 CONVERGENCE THRESHOLDS:    1.00E-10 (Density)    1.00E-13 (Energy)
 MAX. NUMBER OF ITERATIONS:      500
 INTERPOLATION TYPE:            DIIS
 INTERPOLATION STEPS:              2 (START)      1 (STEP)
 LEVEL SHIFTS:                  0.00 (CLOSED)  0.00 (OPEN) 



 Orbital guess generated from atomic densities. Full valence occupancy:    9   2

 Molecular orbital dump at record        2100.2

 Initial occupancy:   7   1

 ITERATION    DDIFF          GRAD             ENERGY        2-EL.EN.            DIPOLE MOMENTS         DIIS   ORB.
    1      0.000D+00      0.000D+00      -129.78737080    153.830586    0.00000    0.56600   -1.02949    0    start
    2      0.000D+00      0.886D-02      -129.81411106    154.999259    0.00000    0.60040   -0.19019    1    diag
    3      0.366D-02      0.682D-02      -129.83798267    155.129793    0.00000    0.54593   -0.58913    2    diag
    4      0.144D-02      0.104D-02      -129.83877646    154.851121    0.00000    0.55402   -0.52600    3    diag
    5      0.332D-03      0.340D-03      -129.83889975    154.939929    0.00000    0.56009   -0.52832    4    diag
    6      0.154D-03      0.100D-03      -129.83891998    154.923691    0.00000    0.56063   -0.52409    5    diag
    7      0.611D-04      0.505D-04      -129.83892601    154.926206    0.00000    0.56197   -0.52151    6    diag
    8      0.416D-04      0.176D-04      -129.83892669    154.925350    0.00000    0.56202   -0.52056    7    diag
    9      0.148D-04      0.330D-05      -129.83892672    154.925231    0.00000    0.56197   -0.52037    8    diag
   10      0.304D-05      0.741D-06      -129.83892672    154.925217    0.00000    0.56193   -0.52034    9    orth
   11      0.878D-06      0.147D-06      -129.83892672    154.925212    0.00000    0.56192   -0.52034    9    diag
   12      0.207D-06      0.309D-07      -129.83892672    154.925212    0.00000    0.56192   -0.52034    9    diag
   13      0.512D-07      0.828D-08      -129.83892672    154.925211    0.00000    0.56192   -0.52034    9    diag
   14      0.119D-07      0.145D-08      -129.83892672    154.925211    0.00000    0.56192   -0.52034    9    diag
   15      0.147D-08      0.384D-09      -129.83892672    154.925211    0.00000    0.56192   -0.52034    9    diag
   16      0.332D-09      0.111D-09      -129.83892672    154.925211    0.00000    0.56192   -0.52034    9    diag
   17      0.721D-10      0.299D-10      -129.83892672    154.925211    0.00000    0.56192   -0.52034    9    diag
   18      0.217D-10      0.991D-11      -129.83892672    154.925211    0.00000    0.56192   -0.52034    0    orth

 Final occupancy:   7   1

 !RHF STATE 1.1 Energy               -129.838926721775
 Nuclear energy                        30.24120048
 One-electron energy                 -237.54273285
 Two-electron energy                   77.46260565
 Virial quotient                       -1.00182903
 !RHF STATE 1.1 Dipole moment           0.00000000     0.56191868    -0.52033612
 Dipole moment /Debye                   0.00000000     1.42816128    -1.32247588

 Orbital energies:

         1.1          2.1          3.1          4.1          5.1          6.1          7.1          8.1          9.1
    -20.651765   -15.712161    -1.524133    -0.992632    -0.743160    -0.662772    -0.430133     0.039629     0.192121

         1.2          2.2          3.2
     -0.592005     0.077453     0.239303

 HOMO      7.1    -0.430133 =     -11.7045eV
 LUMO      8.1     0.039629 =       1.0784eV
 LUMO-HOMO         0.469762 =      12.7829eV


 **********************************************************************************************************************************
 DATASETS  * FILE   NREC   LENGTH (MB)   RECORD NAMES
              1      19      421.14       500      610      700      900      950      970     1000      129      960     1100   
                                          VAR    BASINP    GEOM    SYMINP    ZMAT    AOBASIS   BASIS     P2S    ABASIS      S 
                                         1400     1410     1200     1210     1080     1600     1650     1300     1700   
                                           T        V       H0       H01     AOSYM     SMH    MOLCAS    ERIS     OPER   

              2       4        3.13       700     1000      520     2100   
                                         GEOM     BASIS   MCVARS     RHF  

 PROGRAMS   *        TOTAL        HF       INT
 CPU TIMES  *         8.53      4.41      4.02
 REAL TIME  *        10.93 SEC
 DISK USED  *         1.33 GB      
 **********************************************************************************************************************************


 PROGRAM * CCSD (Closed-shell coupled cluster)     Authors: C. Hampel, H.-J. Werner, 1991, M. Deegan, P.J. Knowles, 1992


 Convergence thresholds:  THRVAR = 1.00D-08  THRDEN = 1.00D-12

 CCSD(T)     terms to be evaluated (factor= 1.000)


 Number of core orbitals:           2 (   2   0 )
 Number of closed-shell orbitals:   6 (   5   1 )
 Number of external orbitals:     163 ( 107  56 )

 Molecular orbitals read from record     2100.2  Type=RHF/CANONICAL (state 1.1)

 Number of N-1 electron functions:               6
 Number of N-2 electron functions:              21
 Number of singly external CSFs:               591
 Number of doubly external CSFs:            250014
 Total number of CSFs:                      250606

 Length of J-op  integral file:               0.00 MB
 Length of K-op  integral file:               1.15 MB
 Length of 3-ext integral record:             0.00 MB

 Memory could be reduced to 19.93 Mwords without degradation in triples

 Integral transformation finished. Total CPU:   0.69 sec, npass=  1  Memory used:   5.10 MW

 Reference energy:                   -129.83892672

 MP2 singlet pair energy:              -0.28748311
 MP2 triplet pair energy:              -0.16758575
 MP2 correlation energy:               -0.45506886
 MP2 total energy:                   -130.29399558

 SCS-MP2 correlation energy:           -0.44925530   (PS=  1.200000  PT=  0.333333)
 SCS-MP2 total energy:               -130.28818203

 ITER.      SQ.NORM     CORR.ENERGY   TOTAL ENERGY   ENERGY CHANGE        DEN1      VAR(S)    VAR(P)  DIIS     TIME  TIME/IT
   1      1.11948949    -0.45700537  -130.29593209    -0.00193651     0.01507572  0.33D-02  0.32D-02  1  1     1.30     0.64
   2      1.13015949    -0.45688024  -130.29580696     0.00012513    -0.01265816  0.12D-03  0.51D-03  2  2     1.89     0.65
   3      1.13684243    -0.45726203  -130.29618876    -0.00038179    -0.00340918  0.46D-04  0.59D-04  3  3     2.50     0.66
   4      1.13977458    -0.45729417  -130.29622089    -0.00003213    -0.00096332  0.46D-05  0.99D-05  4  4     3.09     0.66
   5      1.14088856    -0.45732780  -130.29625452    -0.00003363    -0.00022755  0.14D-05  0.17D-05  5  5     3.70     0.66
   6      1.14129460    -0.45731151  -130.29623823     0.00001629    -0.00006746  0.13D-06  0.42D-06  6  6     4.31     0.66
   7      1.14136779    -0.45731298  -130.29623970    -0.00000147     0.00000877  0.18D-07  0.93D-07  6  1     4.88     0.66
   8      1.14140301    -0.45731247  -130.29623919     0.00000051    -0.00000481  0.48D-08  0.15D-07  6  2     5.47     0.67
   9      1.14140855    -0.45731233  -130.29623905     0.00000014     0.00000101  0.22D-08  0.17D-08  6  3     6.07     0.67
  10      1.14140904    -0.45731266  -130.29623938    -0.00000033    -0.00000027  0.50D-09  0.27D-09  6  4     6.64     0.67
  11      1.14140751    -0.45731280  -130.29623952    -0.00000014     0.00000035  0.12D-09  0.27D-10  6  5     7.22     0.67
  12      1.14140633    -0.45731295  -130.29623968    -0.00000015     0.00000048  0.16D-10  0.77D-11  6  6     7.79     0.67
  13      1.14140567    -0.45731297  -130.29623969    -0.00000002     0.00000013  0.60D-11  0.14D-11  6  1     8.38     0.67
  14      1.14140514    -0.45731300  -130.29623972    -0.00000003     0.00000012  0.55D-12  0.45D-12  6  3     8.98     0.67
  15      1.14140499    -0.45731300  -130.29623972     0.00000000     0.00000001  0.14D-12  0.32D-13  6  2     9.59     0.67
  16      1.14140493    -0.45731300  -130.29623973    -0.00000000     0.00000001  0.33D-13  0.78D-14  6  4    10.17     0.67
  17      1.14140491    -0.45731300  -130.29623973    -0.00000000     0.00000001  0.43D-14  0.12D-14  6  5    10.80     0.67
  18      1.14140491    -0.45731300  -130.29623973     0.00000000     0.00000000  0.48D-15  0.34D-15  6  6    11.41     0.67
  19      1.14140491    -0.45731300  -130.29623973     0.00000000    -0.00000000  0.66D-16  0.44D-16  6  1    12.02     0.67
  20      1.14140491    -0.45731300  -130.29623973     0.00000000    -0.00000000  0.34D-17  0.11D-16  6  3    12.65     0.67
  21      1.14140491    -0.45731300  -130.29623973     0.00000000    -0.00000000  0.53D-18  0.23D-17  6  4    13.23     0.67
  22      1.14140491    -0.45731300  -130.29623973     0.00000000    -0.00000000  0.18D-19  0.81D-18  6  2    13.81     0.67
  23      1.14140491    -0.45731300  -130.29623973    -0.00000000     0.00000000  0.32D-19  0.14D-18  6  4    14.41     0.67
  24      1.14140491    -0.45731300  -130.29623973     0.00000000    -0.00000000  0.36D-20  0.68D-20  6  5    14.98     0.67
  25      1.14140491    -0.45731300  -130.29623973    -0.00000000     0.00000000  0.39D-21  0.58D-21  6  6    15.62     0.67
  26      1.14140491    -0.45731300  -130.29623973     0.00000000    -0.00000000  0.15D-21  0.65D-22  6  1    16.20     0.67
  27      1.14140491    -0.45731300  -130.29623973     0.00000000    -0.00000000  0.57D-22  0.18D-22  6  3    16.80     0.67

 Norm of t1 vector:      0.07813808      S-energy:     0.00000000      T1 diagnostic:  0.01594987
                                                                       D1 diagnostic:  0.04360982

 Doubles amplitudes (print threshold =  0.500E-01):

         I         J         SYM. A    SYM. B    A         B      T(IJ, AB)

         6         6         2         2         1         1     -0.13689954


 Total CPU time for triples:      7.27 sec


 RESULTS
 =======

  Reference energy                   -129.838926721774
  CCSD singlet pair energy             -0.314225340010
  CCSD triplet pair energy             -0.143087664249
  CCSD correlation energy              -0.457313004257

  Triples (T) contribution             -0.021379931613
  Total correlation energy             -0.478692935870

  CCSD total energy                  -130.296239726032
  CCSD[T] energy                     -130.318740755958
  CCSD-T energy                      -130.317198527733
 !CCSD(T) total energy               -130.317619657645

 Timing summary (sec):

 STEP                 CPU(USER)    SYS     CPU(TOT)    WALL
 Transformation          0.70      0.11      0.81      0.84
 CCSD iterations        16.10      2.12     18.22     18.22
 Triples                 7.27      0.28      7.55      7.55

 Program statistics:

 Available memory in ccsd:               994999756
 Min. memory needed in ccsd:                887758
 Max. memory used in ccsd:                 1088212
 Max. memory used in cckext:               1535578 (27 integral passes)



 **********************************************************************************************************************************
 DATASETS  * FILE   NREC   LENGTH (MB)   RECORD NAMES
              1      20      479.10       500      610      700      900      950      970     1000      129      960     1100   
                                          VAR    BASINP    GEOM    SYMINP    ZMAT    AOBASIS   BASIS     P2S    ABASIS      S 
                                         1400     1410     1200     1210     1080     1600     1650     1300     1700     1380   
                                           T        V       H0       H01     AOSYM     SMH    MOLCAS    ERIS     OPER     JKOP   

              2       4        3.13       700     1000      520     2100   
                                         GEOM     BASIS   MCVARS     RHF  

 PROGRAMS   *        TOTAL   CCSD(T)        HF       INT
 CPU TIMES  *        32.65     24.12      4.41      4.02
 REAL TIME  *        37.61 SEC
 DISK USED  *         1.33 GB      
 **********************************************************************************************************************************

 CCSD(T)/USERDEF energy=   -130.317619657645

        CCSD(T)         HF-SCF  
   -130.31761966   -129.83892672
 **********************************************************************************************************************************
 Molpro calculation terminated
 Variable memory released
