
 Primary working directories    : /tmp/r2666/282270.maple
 Secondary working directories  : /tmp/r2666/282270.maple
 Wavefunction directory         : /ddn/home4/r2666/wfu/
 Main file repository           : /tmp/r2666/282270.maple/

 SHA1      : d5ffa45e93fdbca01ffc919aa182cfdae0147319
 NAME      : 2015.1.35
 ARCHNAME  : linux/x86_64
 FC        : /opt/intel/composer_xe_2015.1.133/bin/intel64/ifort
 BLASLIB   : -Wl,-_start-group /opt/intel/mkl/lib/intel64/libmkl_intel_ilp64.a /opt/intel/mkl/lib/intel64/libmkl_intel_thread.a /opt/intel/mkl/lib/intel64/libmkl_core.a -Wl,-_end-group
 id        : olemiss

 Nodes     nprocs
 cn074        1

 Using customized tuning parameters: mindgm=1; mindgv=20; mindgc=4; mindgr=1; noblas=0; minvec=7
 default implementation of scratch files=df  

 ***,hno CCSD(T)/TZ-F12 QFF
 memory, 995, m;
 gthresh,energy=1.d-12,zero=1.d-22,oneint=1.d-22,twoint=1.d-22;
 gthresh,optgrad=1.d-8,optstep=1.d-8;
 nocompress;
 geomtyp=xyz
 bohr
 geometry={
 3
         38        38
 H        0.0000000000        1.6628819028       -1.9242062493
 N        0.0000000000       -0.1600259007       -1.1548587216
 O        0.0000000000        0.0389117878        1.1284753799
 }
 
 basis={
 default=aug-cc-pvtz
 s,C,8236.0,1235.0,280.8, 79.27,25.59, 8.997,3.319
 s,C,0.9059,0.3643,0.1285000
 p,C,56.0,18.71,4.133,0.2827,0.3827,0.1209
 d,C,30.0,10.0,3.3,1.097,0.318
 f,C,7.0,2.3,0.7610
 s,N,11420.0,1712.0,389.3,110.0,35.57,12.54,4.644
 s,N,1.293,0.5118,0.1787
 p,N,79.89,26.63,5.948,1.742,0.555,0.1725
 d,N,45.0,15.0,5.0,1.654,0.469
 f,N,9.9,3.3,1.093
 s,O,15330.0,2299.0,522.4,147.3,47.55,16.76,6.207
 s,O,1.752,0.6882,0.2384
 p,O,103.5,34.46,7.749,2.28,0.7156,0.214
 d,O,63.0,21.0,7.0,2.314,0.645
 f,O,12.9,4.3,1.428
 s,mg,164900.0,24710.0,5628.0,1596.0,521.0;
 s,mg,188.0,73.01,29.90,12.54,4.306,1.826;
 s,mg,0.7417,0.0761,0.145,0.033,0.0129;
 p,mg,950.70,316.90,74.86,23.72,8.669,3.363;
 p,mg,1.310,0.4911,0.2364,0.08733,0.03237,0.00745;
 d,mg,1.601,0.686,0.126,0.294,0.0468;
 f,mg,1.372,0.588,0.094,0.252;
 }
   {hf,maxit=500;accu,20;}
 {ccsd(t),nocheck,maxit=250;orbital,IGNORE_ERROR;}

 Variables initialized (889), CPU time= 0.01 sec
 Commands  initialized (702), CPU time= 0.00 sec, 572 directives.
 Default parameters read. Elapsed time= 0.05 sec

 Checking input...
 Passed
1


                                         ***  PROGRAM SYSTEM MOLPRO  ***
                                       Copyright, TTI GmbH Stuttgart, 2015
                                    Version 2015.1 linked Jul  9 2018 13:16:40


 **********************************************************************************************************************************
 LABEL *   hno CCSD(T)/TZ-F12 QFF                                                        
  64 bit serial version                                                                  DATE: 04-Mar-20          TIME: 13:47:03  
 **********************************************************************************************************************************

 SHA1:             d5ffa45e93fdbca01ffc919aa182cfdae0147319
 **********************************************************************************************************************************

 THRESHOLDS:

 ZERO    =  1.00D-22  ONEINT  =  1.00D-22  TWOINT  =  1.00D-22  PREFAC  =  1.00D-14  LOCALI  =  1.00D-09  EORDER  =  1.00D-04
 ENERGY  =  1.00D-12  ETEST   =  0.00D+00  EDENS   =  0.00D+00  THRDEDEF=  1.00D-06  GRADIENT=  1.00D-02  STEP    =  1.00D-03
 ORBITAL =  1.00D-05  CIVEC   =  1.00D-05  COEFF   =  1.00D-04  PRINTCI =  5.00D-02  PUNCHCI =  9.90D+01  OPTGRAD =  3.00D-04
 OPTENERG=  1.00D-06  OPTSTEP =  3.00D-04  THRGRAD =  1.00D-10  COMPRESS=  1.00D-11  VARMIN  =  1.00D-07  VARMAX  =  1.00D-03
 THRDOUB =  0.00D+00  THRDIV  =  1.00D-05  THRRED  =  1.00D-07  THRPSP  =  1.00D+00  THRDC   =  1.00D-10  THRCS   =  1.00D-10
 THRNRM  =  1.00D-08  THREQ   =  0.00D+00  THRDE   =  1.00D+00  THRREF  =  1.00D-05  SPARFAC =  1.00D+00  THRDLP  =  1.00D-07
 THRDIA  =  1.00D-10  THRDLS  =  1.00D-07  THRGPS  =  0.00D+00  THRKEX  =  0.00D+00  THRDIS  =  2.00D-01  THRVAR  =  1.00D-10
 THRLOC  =  1.00D-06  THRGAP  =  1.00D-06  THRLOCT = -1.00D+00  THRGAPT = -1.00D+00  THRORB  =  1.00D-06  THRMLTP =  0.00D+00
 THRCPQCI=  1.00D-10  KEXTA   =  0.00D+00  THRCOARS=  0.00D+00  SYMTOL  =  1.00D-06  GRADTOL =  1.00D-06  THROVL  =  1.00D-08
 THRORTH =  1.00D-08  GRID    =  1.00D-06  GRIDMAX =  1.00D-03  DTMAX   =  0.00D+00  THROCCDE=  1.00D-01  THROCCDE=  1.00D-01



 THRESHOLDS:

 ZERO    =  1.00D-22  ONEINT  =  1.00D-22  TWOINT  =  1.00D-22  PREFAC  =  1.00D-14  LOCALI  =  1.00D-09  EORDER  =  1.00D-04
 ENERGY  =  1.00D-12  ETEST   =  0.00D+00  EDENS   =  0.00D+00  THRDEDEF=  1.00D-06  GRADIENT=  1.00D-02  STEP    =  1.00D-03
 ORBITAL =  1.00D-05  CIVEC   =  1.00D-05  COEFF   =  1.00D-04  PRINTCI =  5.00D-02  PUNCHCI =  9.90D+01  OPTGRAD =  1.00D-08
 OPTENERG=  1.00D-06  OPTSTEP =  1.00D-08  THRGRAD =  1.00D-10  COMPRESS=  1.00D-11  VARMIN  =  1.00D-07  VARMAX  =  1.00D-03
 THRDOUB =  0.00D+00  THRDIV  =  1.00D-05  THRRED  =  1.00D-07  THRPSP  =  1.00D+00  THRDC   =  1.00D-10  THRCS   =  1.00D-10
 THRNRM  =  1.00D-08  THREQ   =  0.00D+00  THRDE   =  1.00D+00  THRREF  =  1.00D-05  SPARFAC =  1.00D+00  THRDLP  =  1.00D-07
 THRDIA  =  1.00D-10  THRDLS  =  1.00D-07  THRGPS  =  0.00D+00  THRKEX  =  0.00D+00  THRDIS  =  2.00D-01  THRVAR  =  1.00D-10
 THRLOC  =  1.00D-06  THRGAP  =  1.00D-06  THRLOCT = -1.00D+00  THRGAPT = -1.00D+00  THRORB  =  1.00D-06  THRMLTP =  0.00D+00
 THRCPQCI=  1.00D-10  KEXTA   =  0.00D+00  THRCOARS=  0.00D+00  SYMTOL  =  1.00D-06  GRADTOL =  1.00D-06  THROVL  =  1.00D-08
 THRORTH =  1.00D-08  GRID    =  1.00D-06  GRIDMAX =  1.00D-03  DTMAX   =  0.00D+00  THROCCDE=  1.00D-01  THROCCDE=  1.00D-01



 Input parameters for SORTINT:

 COMPRESS =    0.000000
 C_FINAL  =    1.000000
 DEBUG    =   -1.000000
 C_SORT1  =    0.000000
 C_SEWARD =    0.000000
 THRESH   =    0.000000
 IO       =  molpro                                                          
 SPRI     =    0.000000
 SETTING GEOMTYP        =    XYZ
 ZUNIT=BOHR
 

 Variable memory set to  995000000 words,  buffer space   230000 words

 SETTING BASIS          =    USERDEF


 Recomputing integrals since basis changed


 Using spherical harmonics

 Library entry H      S aug-cc-pVTZ          selected for orbital group  1
 Library entry H      P aug-cc-pVTZ          selected for orbital group  1
 Library entry H      D aug-cc-pVTZ          selected for orbital group  1


 PROGRAM * SEWARD (Integral evaluation for generally contracted gaussian basis sets)     Author: Roland Lindh, 1990

 Geometry written to block  1 of record 700


 Point group  Cs  



 ATOMIC COORDINATES

 NR  ATOM    CHARGE       X              Y              Z

   1  H       1.00    0.000000000    1.662881903   -1.924206249
   2  N       7.00    0.000000000   -0.160025901   -1.154858722
   3  O       8.00    0.000000000    0.038911788    1.128475380

 Bond lengths in Bohr (Angstrom)

 1-2  1.978607712  2-3  2.291984036
     ( 1.047034111)     ( 1.212865720)

 Bond angles

  1-2-3  107.90251459

 NUCLEAR CHARGE:                   16
 NUMBER OF PRIMITIVE AOS:         203
 NUMBER OF SYMMETRY AOS:          173
 NUMBER OF CONTRACTIONS:          171   ( 114A'  +  57A"  )
 NUMBER OF CORE ORBITALS:           2   (   2A'  +   0A"  )
 NUMBER OF VALENCE ORBITALS:        9   (   7A'  +   2A"  )


 NUCLEAR REPULSION ENERGY   30.28445393


 Eigenvalues of metric

         1 0.104E-02 0.253E-02 0.333E-02 0.635E-02 0.969E-02 0.137E-01 0.145E-01 0.229E-01
         2 0.358E-01 0.538E-01 0.699E-01 0.941E-01 0.131E+00 0.134E+00 0.140E+00 0.142E+00


 Contracted 2-electron integrals neglected if value below      1.0D-22

       46130130. INTEGRALS WRITTEN OUT IN   11265 BLOCKS ON RECORD 1290 OF FILE 1


 NUMBER OF SORTED TWO-ELECTRON INTEGRALS:   55360566.     BUFFER LENGTH:  32768
 NUMBER OF SEGMENTS:   4  SEGMENT LENGTH:   15997996      RECORD LENGTH: 524288

 Memory used in sort:      16.56 MW

 SORT1 READ    46130130. AND WROTE    46567453. INTEGRALS IN    136 RECORDS. CPU TIME:     0.74 SEC, REAL TIME:     1.01 SEC
 SORT2 READ    46567453. AND WROTE    55360566. INTEGRALS IN      4 RECORDS. CPU TIME:     0.60 SEC, REAL TIME:     0.84 SEC

 FILE SIZES:   FILE 1:   759.0 MBYTE,  FILE 4:   570.5 MBYTE,   TOTAL:   1329.5 MBYTE

 OPERATOR DM      FOR CENTER  0  COORDINATES:    0.000000    0.000000    0.000000


 **********************************************************************************************************************************
 DATASETS  * FILE   NREC   LENGTH (MB)   RECORD NAMES
              1      19      421.14       500      610      700      900      950      970     1000      129      960     1100   
                                          VAR    BASINP    GEOM    SYMINP    ZMAT    AOBASIS   BASIS     P2S    ABASIS      S 
                                         1400     1410     1200     1210     1080     1600     1650     1300     1700   
                                           T        V       H0       H01     AOSYM     SMH    MOLCAS    ERIS     OPER   

 PROGRAMS   *        TOTAL       INT
 CPU TIMES  *         4.02      3.93
 REAL TIME  *         5.51 SEC
 DISK USED  *         1.33 GB      
 **********************************************************************************************************************************


 PROGRAM * RHF-SCF (CLOSED SHELL)       Authors: W. Meyer, H.-J. Werner


 NUMBER OF ELECTRONS:       8+    8-
 CONVERGENCE THRESHOLDS:    1.00E-10 (Density)    1.00E-13 (Energy)
 MAX. NUMBER OF ITERATIONS:      500
 INTERPOLATION TYPE:            DIIS
 INTERPOLATION STEPS:              2 (START)      1 (STEP)
 LEVEL SHIFTS:                  0.00 (CLOSED)  0.00 (OPEN) 



 Orbital guess generated from atomic densities. Full valence occupancy:    9   2

 Molecular orbital dump at record        2100.2

 Initial occupancy:   7   1

 ITERATION    DDIFF          GRAD             ENERGY        2-EL.EN.            DIPOLE MOMENTS         DIIS   ORB.
    1      0.000D+00      0.000D+00      -129.78820860    153.914917    0.00000    0.57254   -1.02805    0    start
    2      0.000D+00      0.882D-02      -129.81496924    155.072465    0.00000    0.60126   -0.19435    1    diag
    3      0.368D-02      0.676D-02      -129.83837044    155.205649    0.00000    0.54940   -0.59013    2    diag
    4      0.143D-02      0.104D-02      -129.83916246    154.928321    0.00000    0.55755   -0.52697    3    diag
    5      0.333D-03      0.339D-03      -129.83928382    155.016323    0.00000    0.56348   -0.52925    4    diag
    6      0.154D-03      0.992D-04      -129.83930361    155.000229    0.00000    0.56402   -0.52505    5    diag
    7      0.608D-04      0.501D-04      -129.83930953    155.002690    0.00000    0.56532   -0.52246    6    diag
    8      0.414D-04      0.174D-04      -129.83931020    155.001842    0.00000    0.56537   -0.52151    7    diag
    9      0.147D-04      0.325D-05      -129.83931023    155.001727    0.00000    0.56532   -0.52132    8    diag
   10      0.302D-05      0.730D-06      -129.83931023    155.001714    0.00000    0.56529   -0.52130    9    orth
   11      0.880D-06      0.144D-06      -129.83931023    155.001710    0.00000    0.56528   -0.52130    9    diag
   12      0.206D-06      0.303D-07      -129.83931023    155.001709    0.00000    0.56528   -0.52129    9    diag
   13      0.503D-07      0.809D-08      -129.83931023    155.001709    0.00000    0.56528   -0.52129    9    diag
   14      0.116D-07      0.141D-08      -129.83931023    155.001709    0.00000    0.56528   -0.52129    9    diag
   15      0.142D-08      0.374D-09      -129.83931023    155.001709    0.00000    0.56528   -0.52129    9    diag
   16      0.324D-09      0.107D-09      -129.83931023    155.001709    0.00000    0.56528   -0.52129    9    diag
   17      0.674D-10      0.282D-10      -129.83931023    155.001709    0.00000    0.56528   -0.52129    0    orth

 Final occupancy:   7   1

 !RHF STATE 1.1 Energy               -129.839310226437
 Nuclear energy                        30.28445393
 One-electron energy                 -237.62461864
 Two-electron energy                   77.50085449
 Virial quotient                       -1.00171034
 !RHF STATE 1.1 Dipole moment           0.00000000     0.56527518    -0.52129406
 Dipole moment /Debye                   0.00000000     1.43669208    -1.32491056

 Orbital energies:

         1.1          2.1          3.1          4.1          5.1          6.1          7.1          8.1          9.1
    -20.651581   -15.710818    -1.524264    -0.995147    -0.744272    -0.662776    -0.430734     0.039690     0.193038

         1.2          2.2          3.2
     -0.591864     0.077430     0.239392

 HOMO      7.1    -0.430734 =     -11.7209eV
 LUMO      8.1     0.039690 =       1.0800eV
 LUMO-HOMO         0.470424 =      12.8009eV


 **********************************************************************************************************************************
 DATASETS  * FILE   NREC   LENGTH (MB)   RECORD NAMES
              1      19      421.14       500      610      700      900      950      970     1000      129      960     1100   
                                          VAR    BASINP    GEOM    SYMINP    ZMAT    AOBASIS   BASIS     P2S    ABASIS      S 
                                         1400     1410     1200     1210     1080     1600     1650     1300     1700   
                                           T        V       H0       H01     AOSYM     SMH    MOLCAS    ERIS     OPER   

              2       4        3.13       700     1000      520     2100   
                                         GEOM     BASIS   MCVARS     RHF  

 PROGRAMS   *        TOTAL        HF       INT
 CPU TIMES  *         8.20      4.18      3.93
 REAL TIME  *        10.69 SEC
 DISK USED  *         1.33 GB      
 **********************************************************************************************************************************


 PROGRAM * CCSD (Closed-shell coupled cluster)     Authors: C. Hampel, H.-J. Werner, 1991, M. Deegan, P.J. Knowles, 1992


 Convergence thresholds:  THRVAR = 1.00D-08  THRDEN = 1.00D-12

 CCSD(T)     terms to be evaluated (factor= 1.000)


 Number of core orbitals:           2 (   2   0 )
 Number of closed-shell orbitals:   6 (   5   1 )
 Number of external orbitals:     163 ( 107  56 )

 Molecular orbitals read from record     2100.2  Type=RHF/CANONICAL (state 1.1)

 Number of N-1 electron functions:               6
 Number of N-2 electron functions:              21
 Number of singly external CSFs:               591
 Number of doubly external CSFs:            250014
 Total number of CSFs:                      250606

 Length of J-op  integral file:               0.00 MB
 Length of K-op  integral file:               1.15 MB
 Length of 3-ext integral record:             0.00 MB

 Memory could be reduced to 19.93 Mwords without degradation in triples

 Integral transformation finished. Total CPU:   0.64 sec, npass=  1  Memory used:   5.10 MW

 Reference energy:                   -129.83931023

 MP2 singlet pair energy:              -0.28725739
 MP2 triplet pair energy:              -0.16745431
 MP2 correlation energy:               -0.45471170
 MP2 total energy:                   -130.29402193

 SCS-MP2 correlation energy:           -0.44890266   (PS=  1.200000  PT=  0.333333)
 SCS-MP2 total energy:               -130.28821289

 ITER.      SQ.NORM     CORR.ENERGY   TOTAL ENERGY   ENERGY CHANGE        DEN1      VAR(S)    VAR(P)  DIIS     TIME  TIME/IT
   1      1.11915294    -0.45667167  -130.29598189    -0.00195997     0.01496167  0.32D-02  0.31D-02  1  1     1.25     0.63
   2      1.12975749    -0.45655286  -130.29586309     0.00011881    -0.01260253  0.12D-03  0.50D-03  2  2     1.84     0.65
   3      1.13637811    -0.45692777  -130.29623800    -0.00037491    -0.00338665  0.44D-04  0.59D-04  3  3     2.42     0.66
   4      1.13928785    -0.45696109  -130.29627132    -0.00003332    -0.00095500  0.44D-05  0.98D-05  4  4     3.01     0.66
   5      1.14038536    -0.45699386  -130.29630409    -0.00003277    -0.00022472  0.13D-05  0.18D-05  5  5     3.63     0.66
   6      1.14078544    -0.45697777  -130.29628799     0.00001610    -0.00006656  0.12D-06  0.43D-06  6  6     4.23     0.66
   7      1.14085682    -0.45697939  -130.29628962    -0.00000162     0.00000888  0.16D-07  0.94D-07  6  1     4.82     0.66
   8      1.14089137    -0.45697892  -130.29628915     0.00000047    -0.00000472  0.49D-08  0.15D-07  6  2     5.43     0.66
   9      1.14089644    -0.45697881  -130.29628904     0.00000011     0.00000108  0.22D-08  0.17D-08  6  3     6.05     0.66
  10      1.14089690    -0.45697914  -130.29628936    -0.00000032    -0.00000029  0.50D-09  0.26D-09  6  4     6.66     0.66
  11      1.14089539    -0.45697928  -130.29628950    -0.00000014     0.00000034  0.12D-09  0.26D-10  6  5     7.24     0.66
  12      1.14089425    -0.45697943  -130.29628965    -0.00000015     0.00000047  0.15D-10  0.75D-11  6  6     7.85     0.66
  13      1.14089360    -0.45697945  -130.29628967    -0.00000002     0.00000012  0.56D-11  0.14D-11  6  1     8.42     0.66
  14      1.14089310    -0.45697947  -130.29628970    -0.00000003     0.00000012  0.52D-12  0.44D-12  6  3     9.00     0.67
  15      1.14089294    -0.45697947  -130.29628970     0.00000000     0.00000001  0.13D-12  0.31D-13  6  2     9.60     0.67
  16      1.14089289    -0.45697948  -130.29628970    -0.00000000     0.00000001  0.31D-13  0.74D-14  6  4    10.22     0.67
  17      1.14089287    -0.45697948  -130.29628970    -0.00000000     0.00000001  0.42D-14  0.12D-14  6  5    10.82     0.67
  18      1.14089286    -0.45697948  -130.29628970     0.00000000     0.00000000  0.47D-15  0.32D-15  6  6    11.42     0.67
  19      1.14089287    -0.45697948  -130.29628970     0.00000000    -0.00000000  0.64D-16  0.43D-16  6  1    12.02     0.67
  20      1.14089287    -0.45697948  -130.29628970     0.00000000    -0.00000000  0.32D-17  0.10D-16  6  3    12.63     0.67
  21      1.14089287    -0.45697948  -130.29628970     0.00000000    -0.00000000  0.52D-18  0.23D-17  6  4    13.19     0.67
  22      1.14089287    -0.45697948  -130.29628970     0.00000000    -0.00000000  0.26D-19  0.80D-18  6  2    13.78     0.67
  23      1.14089287    -0.45697948  -130.29628970    -0.00000000     0.00000000  0.64D-19  0.16D-18  6  5    14.35     0.67
  24      1.14089287    -0.45697948  -130.29628970    -0.00000000     0.00000000  0.46D-20  0.15D-19  6  1    14.95     0.67
  25      1.14089287    -0.45697948  -130.29628970     0.00000000    -0.00000000  0.22D-20  0.10D-20  6  6    15.51     0.67

 Norm of t1 vector:      0.07764652      S-energy:     0.00000000      T1 diagnostic:  0.01584953
                                                                       D1 diagnostic:  0.04358037

 Doubles amplitudes (print threshold =  0.500E-01):

         I         J         SYM. A    SYM. B    A         B      T(IJ, AB)

         6         6         2         2         1         1     -0.13699346


 Total CPU time for triples:      6.80 sec


 RESULTS
 =======

  Reference energy                   -129.839310226437
  CCSD singlet pair energy             -0.313937535167
  CCSD triplet pair energy             -0.143041940903
  CCSD correlation energy              -0.456979476064

  Triples (T) contribution             -0.021313490637
  Total correlation energy             -0.478292966701

  CCSD total energy                  -130.296289702501
  CCSD[T] energy                     -130.318713451575
  CCSD-T energy                      -130.317186134107
 !CCSD(T) total energy               -130.317603193138

 Timing summary (sec):

 STEP                 CPU(USER)    SYS     CPU(TOT)    WALL
 Transformation          0.66      0.14      0.80      0.82
 CCSD iterations        14.85      1.83     16.68     16.68
 Triples                 6.80      0.21      7.01      7.01

 Program statistics:

 Available memory in ccsd:               994999756
 Min. memory needed in ccsd:                887758
 Max. memory used in ccsd:                 1088212
 Max. memory used in cckext:               1535578 (25 integral passes)



 **********************************************************************************************************************************
 DATASETS  * FILE   NREC   LENGTH (MB)   RECORD NAMES
              1      20      479.09       500      610      700      900      950      970     1000      129      960     1100   
                                          VAR    BASINP    GEOM    SYMINP    ZMAT    AOBASIS   BASIS     P2S    ABASIS      S 
                                         1400     1410     1200     1210     1080     1600     1650     1300     1700     1380   
                                           T        V       H0       H01     AOSYM     SMH    MOLCAS    ERIS     OPER     JKOP   

              2       4        3.13       700     1000      520     2100   
                                         GEOM     BASIS   MCVARS     RHF  

 PROGRAMS   *        TOTAL   CCSD(T)        HF       INT
 CPU TIMES  *        30.57     22.36      4.18      3.93
 REAL TIME  *        36.55 SEC
 DISK USED  *         1.33 GB      
 **********************************************************************************************************************************

 CCSD(T)/USERDEF energy=   -130.317603193138

        CCSD(T)         HF-SCF  
   -130.31760319   -129.83931023
 **********************************************************************************************************************************
 Molpro calculation terminated
 Variable memory released
