
 Primary working directories    : /tmp/r2666/282355.maple
 Secondary working directories  : /tmp/r2666/282355.maple
 Wavefunction directory         : /ddn/home4/r2666/wfu/
 Main file repository           : /tmp/r2666/282355.maple/

 SHA1      : d5ffa45e93fdbca01ffc919aa182cfdae0147319
 NAME      : 2015.1.35
 ARCHNAME  : linux/x86_64
 FC        : /opt/intel/composer_xe_2015.1.133/bin/intel64/ifort
 BLASLIB   : -Wl,-_start-group /opt/intel/mkl/lib/intel64/libmkl_intel_ilp64.a /opt/intel/mkl/lib/intel64/libmkl_intel_thread.a /opt/intel/mkl/lib/intel64/libmkl_core.a -Wl,-_end-group
 id        : olemiss

 Nodes     nprocs
 cn075        1

 Using customized tuning parameters: mindgm=1; mindgv=20; mindgc=4; mindgr=1; noblas=0; minvec=7
 default implementation of scratch files=df  

 ***,hno CCSD(T)/TZ-F12 QFF
 memory, 995, m;
 gthresh,energy=1.d-12,zero=1.d-22,oneint=1.d-22,twoint=1.d-22;
 gthresh,optgrad=1.d-8,optstep=1.d-8;
 nocompress;
 geomtyp=xyz
 bohr
 geometry={
 3
        123       123
 H        0.0000000000        1.6775706023       -1.9406967482
 N        0.0000000000       -0.1676306373       -1.1513329879
 O        0.0000000000        0.0318278250        1.1414401451
 }
 
 basis={
 default=aug-cc-pvtz
 s,C,8236.0,1235.0,280.8, 79.27,25.59, 8.997,3.319
 s,C,0.9059,0.3643,0.1285000
 p,C,56.0,18.71,4.133,0.2827,0.3827,0.1209
 d,C,30.0,10.0,3.3,1.097,0.318
 f,C,7.0,2.3,0.7610
 s,N,11420.0,1712.0,389.3,110.0,35.57,12.54,4.644
 s,N,1.293,0.5118,0.1787
 p,N,79.89,26.63,5.948,1.742,0.555,0.1725
 d,N,45.0,15.0,5.0,1.654,0.469
 f,N,9.9,3.3,1.093
 s,O,15330.0,2299.0,522.4,147.3,47.55,16.76,6.207
 s,O,1.752,0.6882,0.2384
 p,O,103.5,34.46,7.749,2.28,0.7156,0.214
 d,O,63.0,21.0,7.0,2.314,0.645
 f,O,12.9,4.3,1.428
 s,mg,164900.0,24710.0,5628.0,1596.0,521.0;
 s,mg,188.0,73.01,29.90,12.54,4.306,1.826;
 s,mg,0.7417,0.0761,0.145,0.033,0.0129;
 p,mg,950.70,316.90,74.86,23.72,8.669,3.363;
 p,mg,1.310,0.4911,0.2364,0.08733,0.03237,0.00745;
 d,mg,1.601,0.686,0.126,0.294,0.0468;
 f,mg,1.372,0.588,0.094,0.252;
 }
   {hf,maxit=500;accu,20;}
 {ccsd(t),nocheck,maxit=250;orbital,IGNORE_ERROR;}

 Variables initialized (889), CPU time= 0.01 sec
 Commands  initialized (702), CPU time= 0.01 sec, 572 directives.
 Default parameters read. Elapsed time= 0.04 sec

 Checking input...
 Passed
1


                                         ***  PROGRAM SYSTEM MOLPRO  ***
                                       Copyright, TTI GmbH Stuttgart, 2015
                                    Version 2015.1 linked Jul  9 2018 13:16:40


 **********************************************************************************************************************************
 LABEL *   hno CCSD(T)/TZ-F12 QFF                                                        
  64 bit serial version                                                                  DATE: 04-Mar-20          TIME: 13:48:22  
 **********************************************************************************************************************************

 SHA1:             d5ffa45e93fdbca01ffc919aa182cfdae0147319
 **********************************************************************************************************************************

 THRESHOLDS:

 ZERO    =  1.00D-22  ONEINT  =  1.00D-22  TWOINT  =  1.00D-22  PREFAC  =  1.00D-14  LOCALI  =  1.00D-09  EORDER  =  1.00D-04
 ENERGY  =  1.00D-12  ETEST   =  0.00D+00  EDENS   =  0.00D+00  THRDEDEF=  1.00D-06  GRADIENT=  1.00D-02  STEP    =  1.00D-03
 ORBITAL =  1.00D-05  CIVEC   =  1.00D-05  COEFF   =  1.00D-04  PRINTCI =  5.00D-02  PUNCHCI =  9.90D+01  OPTGRAD =  3.00D-04
 OPTENERG=  1.00D-06  OPTSTEP =  3.00D-04  THRGRAD =  1.00D-10  COMPRESS=  1.00D-11  VARMIN  =  1.00D-07  VARMAX  =  1.00D-03
 THRDOUB =  0.00D+00  THRDIV  =  1.00D-05  THRRED  =  1.00D-07  THRPSP  =  1.00D+00  THRDC   =  1.00D-10  THRCS   =  1.00D-10
 THRNRM  =  1.00D-08  THREQ   =  0.00D+00  THRDE   =  1.00D+00  THRREF  =  1.00D-05  SPARFAC =  1.00D+00  THRDLP  =  1.00D-07
 THRDIA  =  1.00D-10  THRDLS  =  1.00D-07  THRGPS  =  0.00D+00  THRKEX  =  0.00D+00  THRDIS  =  2.00D-01  THRVAR  =  1.00D-10
 THRLOC  =  1.00D-06  THRGAP  =  1.00D-06  THRLOCT = -1.00D+00  THRGAPT = -1.00D+00  THRORB  =  1.00D-06  THRMLTP =  0.00D+00
 THRCPQCI=  1.00D-10  KEXTA   =  0.00D+00  THRCOARS=  0.00D+00  SYMTOL  =  1.00D-06  GRADTOL =  1.00D-06  THROVL  =  1.00D-08
 THRORTH =  1.00D-08  GRID    =  1.00D-06  GRIDMAX =  1.00D-03  DTMAX   =  0.00D+00  THROCCDE=  1.00D-01  THROCCDE=  1.00D-01



 THRESHOLDS:

 ZERO    =  1.00D-22  ONEINT  =  1.00D-22  TWOINT  =  1.00D-22  PREFAC  =  1.00D-14  LOCALI  =  1.00D-09  EORDER  =  1.00D-04
 ENERGY  =  1.00D-12  ETEST   =  0.00D+00  EDENS   =  0.00D+00  THRDEDEF=  1.00D-06  GRADIENT=  1.00D-02  STEP    =  1.00D-03
 ORBITAL =  1.00D-05  CIVEC   =  1.00D-05  COEFF   =  1.00D-04  PRINTCI =  5.00D-02  PUNCHCI =  9.90D+01  OPTGRAD =  1.00D-08
 OPTENERG=  1.00D-06  OPTSTEP =  1.00D-08  THRGRAD =  1.00D-10  COMPRESS=  1.00D-11  VARMIN  =  1.00D-07  VARMAX  =  1.00D-03
 THRDOUB =  0.00D+00  THRDIV  =  1.00D-05  THRRED  =  1.00D-07  THRPSP  =  1.00D+00  THRDC   =  1.00D-10  THRCS   =  1.00D-10
 THRNRM  =  1.00D-08  THREQ   =  0.00D+00  THRDE   =  1.00D+00  THRREF  =  1.00D-05  SPARFAC =  1.00D+00  THRDLP  =  1.00D-07
 THRDIA  =  1.00D-10  THRDLS  =  1.00D-07  THRGPS  =  0.00D+00  THRKEX  =  0.00D+00  THRDIS  =  2.00D-01  THRVAR  =  1.00D-10
 THRLOC  =  1.00D-06  THRGAP  =  1.00D-06  THRLOCT = -1.00D+00  THRGAPT = -1.00D+00  THRORB  =  1.00D-06  THRMLTP =  0.00D+00
 THRCPQCI=  1.00D-10  KEXTA   =  0.00D+00  THRCOARS=  0.00D+00  SYMTOL  =  1.00D-06  GRADTOL =  1.00D-06  THROVL  =  1.00D-08
 THRORTH =  1.00D-08  GRID    =  1.00D-06  GRIDMAX =  1.00D-03  DTMAX   =  0.00D+00  THROCCDE=  1.00D-01  THROCCDE=  1.00D-01



 Input parameters for SORTINT:

 COMPRESS =    0.000000
 C_FINAL  =    1.000000
 DEBUG    =   -1.000000
 C_SORT1  =    0.000000
 C_SEWARD =    0.000000
 THRESH   =    0.000000
 IO       =  molpro                                                          
 SPRI     =    0.000000
 SETTING GEOMTYP        =    XYZ
 ZUNIT=BOHR
 

 Variable memory set to  995000000 words,  buffer space   230000 words

 SETTING BASIS          =    USERDEF


 Recomputing integrals since basis changed


 Using spherical harmonics

 Library entry H      S aug-cc-pVTZ          selected for orbital group  1
 Library entry H      P aug-cc-pVTZ          selected for orbital group  1
 Library entry H      D aug-cc-pVTZ          selected for orbital group  1


 PROGRAM * SEWARD (Integral evaluation for generally contracted gaussian basis sets)     Author: Roland Lindh, 1990

 Geometry written to block  1 of record 700


 Point group  Cs  



 ATOMIC COORDINATES

 NR  ATOM    CHARGE       X              Y              Z

   1  H       1.00    0.000000000    1.677570602   -1.940696748
   2  N       7.00    0.000000000   -0.167630637   -1.151332988
   3  O       8.00    0.000000000    0.031827825    1.141440145

 Bond lengths in Bohr (Angstrom)

 1-2  2.006953602  2-3  2.301432666
     ( 1.062034110)     ( 1.217865719)

 Bond angles

  1-2-3  108.18899349

 NUCLEAR CHARGE:                   16
 NUMBER OF PRIMITIVE AOS:         203
 NUMBER OF SYMMETRY AOS:          173
 NUMBER OF CONTRACTIONS:          171   ( 114A'  +  57A"  )
 NUMBER OF CORE ORBITALS:           2   (   2A'  +   0A"  )
 NUMBER OF VALENCE ORBITALS:        9   (   7A'  +   2A"  )


 NUCLEAR REPULSION ENERGY   30.11018194


 Eigenvalues of metric

         1 0.108E-02 0.258E-02 0.342E-02 0.648E-02 0.102E-01 0.138E-01 0.146E-01 0.237E-01
         2 0.376E-01 0.547E-01 0.712E-01 0.943E-01 0.132E+00 0.135E+00 0.141E+00 0.142E+00


 Contracted 2-electron integrals neglected if value below      1.0D-22

       46096699. INTEGRALS WRITTEN OUT IN   11257 BLOCKS ON RECORD 1290 OF FILE 1


 NUMBER OF SORTED TWO-ELECTRON INTEGRALS:   55360566.     BUFFER LENGTH:  32768
 NUMBER OF SEGMENTS:   4  SEGMENT LENGTH:   15997996      RECORD LENGTH: 524288

 Memory used in sort:      16.56 MW

 SORT1 READ    46096699. AND WROTE    46533635. INTEGRALS IN    135 RECORDS. CPU TIME:     0.78 SEC, REAL TIME:     1.04 SEC
 SORT2 READ    46533635. AND WROTE    55360566. INTEGRALS IN      4 RECORDS. CPU TIME:     0.66 SEC, REAL TIME:     0.86 SEC

 FILE SIZES:   FILE 1:   758.5 MBYTE,  FILE 4:   566.3 MBYTE,   TOTAL:   1324.7 MBYTE

 OPERATOR DM      FOR CENTER  0  COORDINATES:    0.000000    0.000000    0.000000


 **********************************************************************************************************************************
 DATASETS  * FILE   NREC   LENGTH (MB)   RECORD NAMES
              1      19      420.90       500      610      700      900      950      970     1000      129      960     1100   
                                          VAR    BASINP    GEOM    SYMINP    ZMAT    AOBASIS   BASIS     P2S    ABASIS      S 
                                         1400     1410     1200     1210     1080     1600     1650     1300     1700   
                                           T        V       H0       H01     AOSYM     SMH    MOLCAS    ERIS     OPER   

 PROGRAMS   *        TOTAL       INT
 CPU TIMES  *         4.08      3.97
 REAL TIME  *         5.36 SEC
 DISK USED  *         1.33 GB      
 **********************************************************************************************************************************


 PROGRAM * RHF-SCF (CLOSED SHELL)       Authors: W. Meyer, H.-J. Werner


 NUMBER OF ELECTRONS:       8+    8-
 CONVERGENCE THRESHOLDS:    1.00E-10 (Density)    1.00E-13 (Energy)
 MAX. NUMBER OF ITERATIONS:      500
 INTERPOLATION TYPE:            DIIS
 INTERPOLATION STEPS:              2 (START)      1 (STEP)
 LEVEL SHIFTS:                  0.00 (CLOSED)  0.00 (OPEN) 



 Orbital guess generated from atomic densities. Full valence occupancy:    9   2

 Molecular orbital dump at record        2100.2

 Initial occupancy:   7   1

 ITERATION    DDIFF          GRAD             ENERGY        2-EL.EN.            DIPOLE MOMENTS         DIIS   ORB.
    1      0.000D+00      0.000D+00      -129.78537489    153.592020    0.00000    0.56749   -1.04713    0    start
    2      0.000D+00      0.892D-02      -129.81189480    154.756676    0.00000    0.60303   -0.18616    1    diag
    3      0.368D-02      0.697D-02      -129.83687515    154.896769    0.00000    0.54776   -0.59701    2    diag
    4      0.147D-02      0.105D-02      -129.83768081    154.613704    0.00000    0.55555   -0.53294    3    diag
    5      0.333D-03      0.343D-03      -129.83780680    154.703448    0.00000    0.56172   -0.53523    4    diag
    6      0.155D-03      0.101D-03      -129.83782757    154.687074    0.00000    0.56224   -0.53089    5    diag
    7      0.614D-04      0.512D-04      -129.83783383    154.689564    0.00000    0.56357   -0.52825    6    diag
    8      0.420D-04      0.181D-04      -129.83783456    154.688681    0.00000    0.56363   -0.52726    7    diag
    9      0.154D-04      0.344D-05      -129.83783459    154.688555    0.00000    0.56357   -0.52705    8    diag
   10      0.319D-05      0.766D-06      -129.83783460    154.688539    0.00000    0.56354   -0.52703    9    orth
   11      0.896D-06      0.151D-06      -129.83783460    154.688535    0.00000    0.56353   -0.52702    9    diag
   12      0.211D-06      0.322D-07      -129.83783460    154.688534    0.00000    0.56353   -0.52702    9    diag
   13      0.524D-07      0.874D-08      -129.83783460    154.688534    0.00000    0.56353   -0.52702    9    diag
   14      0.124D-07      0.153D-08      -129.83783460    154.688534    0.00000    0.56353   -0.52702    9    diag
   15      0.148D-08      0.402D-09      -129.83783460    154.688534    0.00000    0.56353   -0.52702    9    diag
   16      0.342D-09      0.114D-09      -129.83783460    154.688534    0.00000    0.56353   -0.52702    9    diag
   17      0.685D-10      0.300D-10      -129.83783460    154.688534    0.00000    0.56353   -0.52702    9    diag
   18      0.197D-10      0.973D-11      -129.83783460    154.688534    0.00000    0.56353   -0.52702    9    diag
   19      0.748D-11      0.209D-11      -129.83783460    154.688534    0.00000    0.56353   -0.52702    9    fixocc
   20      0.168D-11      0.565D-12      -129.83783460    154.688534    0.00000    0.56353   -0.52702    9    orth
   21      0.177D-12      0.726D-12      -129.83783460    154.688534    0.00000    0.56353   -0.52702    9    diag
   22      0.764D-13      0.310D-12      -129.83783460    154.688534    0.00000    0.56353   -0.52702    0    orth

 Final occupancy:   7   1

 !RHF STATE 1.1 Energy               -129.837834595648
 Nuclear energy                        30.11018194
 One-electron energy                 -237.29228334
 Two-electron energy                   77.34426680
 Virial quotient                       -1.00203875
 !RHF STATE 1.1 Dipole moment           0.00000000     0.56352510    -0.52702027
 Dipole moment /Debye                   0.00000000     1.43224413    -1.33946418

 Orbital energies:

         1.1          2.1          3.1          4.1          5.1          6.1          7.1          8.1          9.1
    -20.652380   -15.713610    -1.519879    -0.992731    -0.741062    -0.661382    -0.431136     0.039488     0.191365

         1.2          2.2          3.2
     -0.589695     0.075661     0.239120

 HOMO      7.1    -0.431136 =     -11.7318eV
 LUMO      8.1     0.039488 =       1.0745eV
 LUMO-HOMO         0.470624 =      12.8063eV


 **********************************************************************************************************************************
 DATASETS  * FILE   NREC   LENGTH (MB)   RECORD NAMES
              1      19      420.90       500      610      700      900      950      970     1000      129      960     1100   
                                          VAR    BASINP    GEOM    SYMINP    ZMAT    AOBASIS   BASIS     P2S    ABASIS      S 
                                         1400     1410     1200     1210     1080     1600     1650     1300     1700   
                                           T        V       H0       H01     AOSYM     SMH    MOLCAS    ERIS     OPER   

              2       4        3.13       700     1000      520     2100   
                                         GEOM     BASIS   MCVARS     RHF  

 PROGRAMS   *        TOTAL        HF       INT
 CPU TIMES  *         9.41      5.34      3.97
 REAL TIME  *        11.87 SEC
 DISK USED  *         1.33 GB      
 **********************************************************************************************************************************


 PROGRAM * CCSD (Closed-shell coupled cluster)     Authors: C. Hampel, H.-J. Werner, 1991, M. Deegan, P.J. Knowles, 1992


 Convergence thresholds:  THRVAR = 1.00D-08  THRDEN = 1.00D-12

 CCSD(T)     terms to be evaluated (factor= 1.000)


 Number of core orbitals:           2 (   2   0 )
 Number of closed-shell orbitals:   6 (   5   1 )
 Number of external orbitals:     163 ( 107  56 )

 Molecular orbitals read from record     2100.2  Type=RHF/CANONICAL (state 1.1)

 Number of N-1 electron functions:               6
 Number of N-2 electron functions:              21
 Number of singly external CSFs:               591
 Number of doubly external CSFs:            250014
 Total number of CSFs:                      250606

 Length of J-op  integral file:               0.00 MB
 Length of K-op  integral file:               1.15 MB
 Length of 3-ext integral record:             0.00 MB

 Memory could be reduced to 19.93 Mwords without degradation in triples

 Integral transformation finished. Total CPU:   0.65 sec, npass=  1  Memory used:   5.10 MW

 Reference energy:                   -129.83783460

 MP2 singlet pair energy:              -0.28810875
 MP2 triplet pair energy:              -0.16799392
 MP2 correlation energy:               -0.45610268
 MP2 total energy:                   -130.29393727

 SCS-MP2 correlation energy:           -0.45026006   (PS=  1.200000  PT=  0.333333)
 SCS-MP2 total energy:               -130.28809465

 ITER.      SQ.NORM     CORR.ENERGY   TOTAL ENERGY   ENERGY CHANGE        DEN1      VAR(S)    VAR(P)  DIIS     TIME  TIME/IT
   1      1.12020839    -0.45783612  -130.29567072    -0.00173345     0.01555493  0.34D-02  0.32D-02  1  1     1.23     0.63
   2      1.13104545    -0.45766234  -130.29549694     0.00017378    -0.01282056  0.13D-03  0.52D-03  2  2     1.84     0.65
   3      1.13786897    -0.45805557  -130.29589017    -0.00039323    -0.00345356  0.48D-04  0.60D-04  3  3     2.40     0.65
   4      1.14087866    -0.45808750  -130.29592210    -0.00003193    -0.00098482  0.49D-05  0.10D-04  4  4     3.00     0.66
   5      1.14204034    -0.45812280  -130.29595740    -0.00003530    -0.00023658  0.15D-05  0.18D-05  5  5     3.61     0.66
   6      1.14246125    -0.45810579  -130.29594039     0.00001701    -0.00006986  0.13D-06  0.42D-06  6  6     4.18     0.66
   7      1.14253602    -0.45810724  -130.29594184    -0.00000146     0.00000905  0.19D-07  0.95D-07  6  1     4.79     0.67
   8      1.14257215    -0.45810665  -130.29594125     0.00000059    -0.00000502  0.47D-08  0.16D-07  6  2     5.38     0.67
   9      1.14257805    -0.45810648  -130.29594108     0.00000017     0.00000107  0.22D-08  0.18D-08  6  3     5.96     0.67
  10      1.14257860    -0.45810682  -130.29594142    -0.00000034    -0.00000029  0.52D-09  0.29D-09  6  4     6.54     0.67
  11      1.14257705    -0.45810697  -130.29594157    -0.00000015     0.00000035  0.13D-09  0.29D-10  6  5     7.13     0.67
  12      1.14257582    -0.45810713  -130.29594173    -0.00000016     0.00000050  0.17D-10  0.83D-11  6  6     7.73     0.67
  13      1.14257512    -0.45810715  -130.29594175    -0.00000002     0.00000013  0.64D-11  0.15D-11  6  1     8.33     0.67
  14      1.14257456    -0.45810718  -130.29594178    -0.00000003     0.00000013  0.57D-12  0.49D-12  6  3     8.91     0.67
  15      1.14257440    -0.45810718  -130.29594178     0.00000000     0.00000001  0.15D-12  0.35D-13  6  2     9.51     0.67
  16      1.14257434    -0.45810718  -130.29594178    -0.00000000     0.00000001  0.36D-13  0.84D-14  6  4    10.08     0.67
  17      1.14257431    -0.45810718  -130.29594178    -0.00000000     0.00000001  0.47D-14  0.13D-14  6  5    10.67     0.67
  18      1.14257431    -0.45810718  -130.29594178     0.00000000     0.00000000  0.53D-15  0.37D-15  6  6    11.25     0.67
  19      1.14257432    -0.45810718  -130.29594178     0.00000000    -0.00000000  0.74D-16  0.50D-16  6  1    11.83     0.67
  20      1.14257432    -0.45810718  -130.29594178     0.00000000    -0.00000000  0.39D-17  0.12D-16  6  3    12.43     0.67
  21      1.14257432    -0.45810718  -130.29594178     0.00000000    -0.00000000  0.58D-18  0.26D-17  6  4    13.01     0.67
  22      1.14257432    -0.45810718  -130.29594178     0.00000000    -0.00000000  0.21D-19  0.92D-18  6  2    13.61     0.67
  23      1.14257432    -0.45810718  -130.29594178    -0.00000000     0.00000000  0.67D-19  0.18D-18  6  5    14.24     0.67
  24      1.14257432    -0.45810718  -130.29594178    -0.00000000     0.00000000  0.50D-20  0.17D-19  6  1    14.84     0.67
  25      1.14257432    -0.45810718  -130.29594178     0.00000000    -0.00000000  0.23D-20  0.12D-20  6  6    15.45     0.67

 Norm of t1 vector:      0.07928863      S-energy:     0.00000000      T1 diagnostic:  0.01618472
                                                                       D1 diagnostic:  0.04431447

 Doubles amplitudes (print threshold =  0.500E-01):

         I         J         SYM. A    SYM. B    A         B      T(IJ, AB)

         6         6         2         2         1         1     -0.13832187


 Total CPU time for triples:      6.67 sec


 RESULTS
 =======

  Reference energy                   -129.837834595648
  CCSD singlet pair energy             -0.314920134030
  CCSD triplet pair energy             -0.143187049124
  CCSD correlation energy              -0.458107183154

  Triples (T) contribution             -0.021572613102
  Total correlation energy             -0.479679796256

  CCSD total energy                  -130.295941778803
  CCSD[T] energy                     -130.318665579257
  CCSD-T energy                      -130.317085100087
 !CCSD(T) total energy               -130.317514391905

 Timing summary (sec):

 STEP                 CPU(USER)    SYS     CPU(TOT)    WALL
 Transformation          0.65      0.15      0.80      0.81
 CCSD iterations        14.80      1.95     16.75     16.74
 Triples                 6.67      0.21      6.88      6.88

 Program statistics:

 Available memory in ccsd:               994999756
 Min. memory needed in ccsd:                887758
 Max. memory used in ccsd:                 1088212
 Max. memory used in cckext:               1535578 (25 integral passes)



 **********************************************************************************************************************************
 DATASETS  * FILE   NREC   LENGTH (MB)   RECORD NAMES
              1      20      478.86       500      610      700      900      950      970     1000      129      960     1100   
                                          VAR    BASINP    GEOM    SYMINP    ZMAT    AOBASIS   BASIS     P2S    ABASIS      S 
                                         1400     1410     1200     1210     1080     1600     1650     1300     1700     1380   
                                           T        V       H0       H01     AOSYM     SMH    MOLCAS    ERIS     OPER     JKOP   

              2       4        3.13       700     1000      520     2100   
                                         GEOM     BASIS   MCVARS     RHF  

 PROGRAMS   *        TOTAL   CCSD(T)        HF       INT
 CPU TIMES  *        31.57     22.16      5.34      3.97
 REAL TIME  *        36.42 SEC
 DISK USED  *         1.33 GB      
 **********************************************************************************************************************************

 CCSD(T)/USERDEF energy=   -130.317514391905

        CCSD(T)         HF-SCF  
   -130.31751439   -129.83783460
 **********************************************************************************************************************************
 Molpro calculation terminated
 Variable memory released
