
 Primary working directories    : /tmp/r2666/282265.maple
 Secondary working directories  : /tmp/r2666/282265.maple
 Wavefunction directory         : /ddn/home4/r2666/wfu/
 Main file repository           : /tmp/r2666/282265.maple/

 SHA1      : d5ffa45e93fdbca01ffc919aa182cfdae0147319
 NAME      : 2015.1.35
 ARCHNAME  : linux/x86_64
 FC        : /opt/intel/composer_xe_2015.1.133/bin/intel64/ifort
 BLASLIB   : -Wl,-_start-group /opt/intel/mkl/lib/intel64/libmkl_intel_ilp64.a /opt/intel/mkl/lib/intel64/libmkl_intel_thread.a /opt/intel/mkl/lib/intel64/libmkl_core.a -Wl,-_end-group
 id        : olemiss

 Nodes     nprocs
 cn076        1

 Using customized tuning parameters: mindgm=1; mindgv=20; mindgc=4; mindgr=1; noblas=0; minvec=7
 default implementation of scratch files=df  

 ***,hno CCSD(T)/TZ-F12 QFF
 memory, 995, m;
 gthresh,energy=1.d-12,zero=1.d-22,oneint=1.d-22,twoint=1.d-22;
 gthresh,optgrad=1.d-8,optstep=1.d-8;
 nocompress;
 geomtyp=xyz
 bohr
 geometry={
 3
         33        33
 H        0.0000000000        1.6622967505       -1.9255908814
 N        0.0000000000       -0.1577897769       -1.1495924851
 O        0.0000000000        0.0372608164        1.1245937755
 }
 
 basis={
 default=aug-cc-pvtz
 s,C,8236.0,1235.0,280.8, 79.27,25.59, 8.997,3.319
 s,C,0.9059,0.3643,0.1285000
 p,C,56.0,18.71,4.133,0.2827,0.3827,0.1209
 d,C,30.0,10.0,3.3,1.097,0.318
 f,C,7.0,2.3,0.7610
 s,N,11420.0,1712.0,389.3,110.0,35.57,12.54,4.644
 s,N,1.293,0.5118,0.1787
 p,N,79.89,26.63,5.948,1.742,0.555,0.1725
 d,N,45.0,15.0,5.0,1.654,0.469
 f,N,9.9,3.3,1.093
 s,O,15330.0,2299.0,522.4,147.3,47.55,16.76,6.207
 s,O,1.752,0.6882,0.2384
 p,O,103.5,34.46,7.749,2.28,0.7156,0.214
 d,O,63.0,21.0,7.0,2.314,0.645
 f,O,12.9,4.3,1.428
 s,mg,164900.0,24710.0,5628.0,1596.0,521.0;
 s,mg,188.0,73.01,29.90,12.54,4.306,1.826;
 s,mg,0.7417,0.0761,0.145,0.033,0.0129;
 p,mg,950.70,316.90,74.86,23.72,8.669,3.363;
 p,mg,1.310,0.4911,0.2364,0.08733,0.03237,0.00745;
 d,mg,1.601,0.686,0.126,0.294,0.0468;
 f,mg,1.372,0.588,0.094,0.252;
 }
   {hf,maxit=500;accu,20;}
 {ccsd(t),nocheck,maxit=250;orbital,IGNORE_ERROR;}

 Variables initialized (889), CPU time= 0.01 sec
 Commands  initialized (702), CPU time= 0.01 sec, 572 directives.
 Default parameters read. Elapsed time= 0.05 sec

 Checking input...
 Passed
1


                                         ***  PROGRAM SYSTEM MOLPRO  ***
                                       Copyright, TTI GmbH Stuttgart, 2015
                                    Version 2015.1 linked Jul  9 2018 13:16:40


 **********************************************************************************************************************************
 LABEL *   hno CCSD(T)/TZ-F12 QFF                                                        
  64 bit serial version                                                                  DATE: 04-Mar-20          TIME: 13:47:00  
 **********************************************************************************************************************************

 SHA1:             d5ffa45e93fdbca01ffc919aa182cfdae0147319
 **********************************************************************************************************************************

 THRESHOLDS:

 ZERO    =  1.00D-22  ONEINT  =  1.00D-22  TWOINT  =  1.00D-22  PREFAC  =  1.00D-14  LOCALI  =  1.00D-09  EORDER  =  1.00D-04
 ENERGY  =  1.00D-12  ETEST   =  0.00D+00  EDENS   =  0.00D+00  THRDEDEF=  1.00D-06  GRADIENT=  1.00D-02  STEP    =  1.00D-03
 ORBITAL =  1.00D-05  CIVEC   =  1.00D-05  COEFF   =  1.00D-04  PRINTCI =  5.00D-02  PUNCHCI =  9.90D+01  OPTGRAD =  3.00D-04
 OPTENERG=  1.00D-06  OPTSTEP =  3.00D-04  THRGRAD =  1.00D-10  COMPRESS=  1.00D-11  VARMIN  =  1.00D-07  VARMAX  =  1.00D-03
 THRDOUB =  0.00D+00  THRDIV  =  1.00D-05  THRRED  =  1.00D-07  THRPSP  =  1.00D+00  THRDC   =  1.00D-10  THRCS   =  1.00D-10
 THRNRM  =  1.00D-08  THREQ   =  0.00D+00  THRDE   =  1.00D+00  THRREF  =  1.00D-05  SPARFAC =  1.00D+00  THRDLP  =  1.00D-07
 THRDIA  =  1.00D-10  THRDLS  =  1.00D-07  THRGPS  =  0.00D+00  THRKEX  =  0.00D+00  THRDIS  =  2.00D-01  THRVAR  =  1.00D-10
 THRLOC  =  1.00D-06  THRGAP  =  1.00D-06  THRLOCT = -1.00D+00  THRGAPT = -1.00D+00  THRORB  =  1.00D-06  THRMLTP =  0.00D+00
 THRCPQCI=  1.00D-10  KEXTA   =  0.00D+00  THRCOARS=  0.00D+00  SYMTOL  =  1.00D-06  GRADTOL =  1.00D-06  THROVL  =  1.00D-08
 THRORTH =  1.00D-08  GRID    =  1.00D-06  GRIDMAX =  1.00D-03  DTMAX   =  0.00D+00  THROCCDE=  1.00D-01  THROCCDE=  1.00D-01



 THRESHOLDS:

 ZERO    =  1.00D-22  ONEINT  =  1.00D-22  TWOINT  =  1.00D-22  PREFAC  =  1.00D-14  LOCALI  =  1.00D-09  EORDER  =  1.00D-04
 ENERGY  =  1.00D-12  ETEST   =  0.00D+00  EDENS   =  0.00D+00  THRDEDEF=  1.00D-06  GRADIENT=  1.00D-02  STEP    =  1.00D-03
 ORBITAL =  1.00D-05  CIVEC   =  1.00D-05  COEFF   =  1.00D-04  PRINTCI =  5.00D-02  PUNCHCI =  9.90D+01  OPTGRAD =  1.00D-08
 OPTENERG=  1.00D-06  OPTSTEP =  1.00D-08  THRGRAD =  1.00D-10  COMPRESS=  1.00D-11  VARMIN  =  1.00D-07  VARMAX  =  1.00D-03
 THRDOUB =  0.00D+00  THRDIV  =  1.00D-05  THRRED  =  1.00D-07  THRPSP  =  1.00D+00  THRDC   =  1.00D-10  THRCS   =  1.00D-10
 THRNRM  =  1.00D-08  THREQ   =  0.00D+00  THRDE   =  1.00D+00  THRREF  =  1.00D-05  SPARFAC =  1.00D+00  THRDLP  =  1.00D-07
 THRDIA  =  1.00D-10  THRDLS  =  1.00D-07  THRGPS  =  0.00D+00  THRKEX  =  0.00D+00  THRDIS  =  2.00D-01  THRVAR  =  1.00D-10
 THRLOC  =  1.00D-06  THRGAP  =  1.00D-06  THRLOCT = -1.00D+00  THRGAPT = -1.00D+00  THRORB  =  1.00D-06  THRMLTP =  0.00D+00
 THRCPQCI=  1.00D-10  KEXTA   =  0.00D+00  THRCOARS=  0.00D+00  SYMTOL  =  1.00D-06  GRADTOL =  1.00D-06  THROVL  =  1.00D-08
 THRORTH =  1.00D-08  GRID    =  1.00D-06  GRIDMAX =  1.00D-03  DTMAX   =  0.00D+00  THROCCDE=  1.00D-01  THROCCDE=  1.00D-01



 Input parameters for SORTINT:

 COMPRESS =    0.000000
 C_FINAL  =    1.000000
 DEBUG    =   -1.000000
 C_SORT1  =    0.000000
 C_SEWARD =    0.000000
 THRESH   =    0.000000
 IO       =  molpro                                                          
 SPRI     =    0.000000
 SETTING GEOMTYP        =    XYZ
 ZUNIT=BOHR
 

 Variable memory set to  995000000 words,  buffer space   230000 words

 SETTING BASIS          =    USERDEF


 Recomputing integrals since basis changed


 Using spherical harmonics

 Library entry H      S aug-cc-pVTZ          selected for orbital group  1
 Library entry H      P aug-cc-pVTZ          selected for orbital group  1
 Library entry H      D aug-cc-pVTZ          selected for orbital group  1


 PROGRAM * SEWARD (Integral evaluation for generally contracted gaussian basis sets)     Author: Roland Lindh, 1990

 Geometry written to block  1 of record 700


 Point group  Cs  



 ATOMIC COORDINATES

 NR  ATOM    CHARGE       X              Y              Z

   1  H       1.00    0.000000000    1.662296750   -1.925590881
   2  N       7.00    0.000000000   -0.157789777   -1.149592485
   3  O       8.00    0.000000000    0.037260816    1.124593775

 Bond lengths in Bohr (Angstrom)

 1-2  1.978607712  2-3  2.282535406
     ( 1.047034111)     ( 1.207865720)

 Bond angles

  1-2-3  108.18899349

 NUCLEAR CHARGE:                   16
 NUMBER OF PRIMITIVE AOS:         203
 NUMBER OF SYMMETRY AOS:          173
 NUMBER OF CONTRACTIONS:          171   ( 114A'  +  57A"  )
 NUMBER OF CORE ORBITALS:           2   (   2A'  +   0A"  )
 NUMBER OF VALENCE ORBITALS:        9   (   7A'  +   2A"  )


 NUCLEAR REPULSION ENERGY   30.38673526


 Eigenvalues of metric

         1 0.103E-02 0.249E-02 0.331E-02 0.632E-02 0.968E-02 0.136E-01 0.145E-01 0.228E-01
         2 0.358E-01 0.531E-01 0.695E-01 0.941E-01 0.131E+00 0.134E+00 0.140E+00 0.142E+00


 Contracted 2-electron integrals neglected if value below      1.0D-22

       46151745. INTEGRALS WRITTEN OUT IN   11271 BLOCKS ON RECORD 1290 OF FILE 1


 NUMBER OF SORTED TWO-ELECTRON INTEGRALS:   55360566.     BUFFER LENGTH:  32768
 NUMBER OF SEGMENTS:   4  SEGMENT LENGTH:   15997996      RECORD LENGTH: 524288

 Memory used in sort:      16.56 MW

 SORT1 READ    46151745. AND WROTE    46589235. INTEGRALS IN    136 RECORDS. CPU TIME:     0.76 SEC, REAL TIME:     1.00 SEC
 SORT2 READ    46589235. AND WROTE    55360566. INTEGRALS IN      4 RECORDS. CPU TIME:     0.59 SEC, REAL TIME:     0.83 SEC

 FILE SIZES:   FILE 1:   759.4 MBYTE,  FILE 4:   570.5 MBYTE,   TOTAL:   1329.8 MBYTE

 OPERATOR DM      FOR CENTER  0  COORDINATES:    0.000000    0.000000    0.000000


 **********************************************************************************************************************************
 DATASETS  * FILE   NREC   LENGTH (MB)   RECORD NAMES
              1      19      421.29       500      610      700      900      950      970     1000      129      960     1100   
                                          VAR    BASINP    GEOM    SYMINP    ZMAT    AOBASIS   BASIS     P2S    ABASIS      S 
                                         1400     1410     1200     1210     1080     1600     1650     1300     1700   
                                           T        V       H0       H01     AOSYM     SMH    MOLCAS    ERIS     OPER   

 PROGRAMS   *        TOTAL       INT
 CPU TIMES  *         4.00      3.91
 REAL TIME  *         5.40 SEC
 DISK USED  *         1.33 GB      
 **********************************************************************************************************************************


 PROGRAM * RHF-SCF (CLOSED SHELL)       Authors: W. Meyer, H.-J. Werner


 NUMBER OF ELECTRONS:       8+    8-
 CONVERGENCE THRESHOLDS:    1.00E-10 (Density)    1.00E-13 (Energy)
 MAX. NUMBER OF ITERATIONS:      500
 INTERPOLATION TYPE:            DIIS
 INTERPOLATION STEPS:              2 (START)      1 (STEP)
 LEVEL SHIFTS:                  0.00 (CLOSED)  0.00 (OPEN) 



 Orbital guess generated from atomic densities. Full valence occupancy:    9   2

 Molecular orbital dump at record        2100.2

 Initial occupancy:   7   1

 ITERATION    DDIFF          GRAD             ENERGY        2-EL.EN.            DIPOLE MOMENTS         DIIS   ORB.
    1      0.000D+00      0.000D+00      -129.78969039    154.096631    0.00000    0.57284   -1.01271    0    start
    2      0.000D+00      0.876D-02      -129.81661083    155.265472    0.00000    0.59804   -0.19839    1    diag
    3      0.365D-02      0.664D-02      -129.83914336    155.387412    0.00000    0.54822   -0.58405    2    diag
    4      0.141D-02      0.104D-02      -129.83992570    155.113601    0.00000    0.55636   -0.52168    3    diag
    5      0.332D-03      0.336D-03      -129.84004513    155.201244    0.00000    0.56231   -0.52407    4    diag
    6      0.153D-03      0.984D-04      -129.84006455    155.185222    0.00000    0.56288   -0.51996    5    diag
    7      0.606D-04      0.494D-04      -129.84007029    155.187733    0.00000    0.56420   -0.51744    6    diag
    8      0.411D-04      0.169D-04      -129.84007090    155.186911    0.00000    0.56425   -0.51654    7    diag
    9      0.142D-04      0.314D-05      -129.84007093    155.186800    0.00000    0.56420   -0.51635    8    diag
   10      0.289D-05      0.716D-06      -129.84007093    155.186787    0.00000    0.56416   -0.51633    9    orth
   11      0.865D-06      0.142D-06      -129.84007093    155.186783    0.00000    0.56416   -0.51633    9    diag
   12      0.204D-06      0.295D-07      -129.84007093    155.186782    0.00000    0.56415   -0.51632    9    diag
   13      0.495D-07      0.778D-08      -129.84007093    155.186782    0.00000    0.56415   -0.51632    9    diag
   14      0.113D-07      0.137D-08      -129.84007093    155.186782    0.00000    0.56415   -0.51632    9    diag
   15      0.144D-08      0.367D-09      -129.84007093    155.186782    0.00000    0.56415   -0.51632    9    diag
   16      0.322D-09      0.108D-09      -129.84007093    155.186782    0.00000    0.56415   -0.51632    9    diag
   17      0.730D-10      0.293D-10      -129.84007093    155.186782    0.00000    0.56415   -0.51632    9    diag
   18      0.226D-10      0.975D-11      -129.84007093    155.186782    0.00000    0.56415   -0.51632    9    diag
   19      0.919D-11      0.235D-11      -129.84007093    155.186782    0.00000    0.56415   -0.51632    9    fixocc
   20      0.230D-11      0.636D-12      -129.84007093    155.186782    0.00000    0.56415   -0.51632    9    orth
   21      0.372D-12      0.283D-12      -129.84007093    155.186782    0.00000    0.56415   -0.51632    9    diag
   22      0.143D-12      0.372D-12      -129.84007093    155.186782    0.00000    0.56415   -0.51632    0    orth

 Final occupancy:   7   1

 !RHF STATE 1.1 Energy               -129.840070930228
 Nuclear energy                        30.38673526
 One-electron energy                 -237.82019727
 Two-electron energy                   77.59339108
 Virial quotient                       -1.00157063
 !RHF STATE 1.1 Dipole moment           0.00000000     0.56415392    -0.51632348
 Dipole moment /Debye                   0.00000000     1.43384231    -1.31227743

 Orbital energies:

         1.1          2.1          3.1          4.1          5.1          6.1          7.1          8.1          9.1
    -20.651178   -15.709917    -1.528190    -0.994165    -0.745780    -0.664266    -0.429024     0.039738     0.193264

         1.2          2.2          3.2
     -0.594187     0.079111     0.239581

 HOMO      7.1    -0.429024 =     -11.6743eV
 LUMO      8.1     0.039738 =       1.0813eV
 LUMO-HOMO         0.468762 =      12.7557eV


 **********************************************************************************************************************************
 DATASETS  * FILE   NREC   LENGTH (MB)   RECORD NAMES
              1      19      421.29       500      610      700      900      950      970     1000      129      960     1100   
                                          VAR    BASINP    GEOM    SYMINP    ZMAT    AOBASIS   BASIS     P2S    ABASIS      S 
                                         1400     1410     1200     1210     1080     1600     1650     1300     1700   
                                           T        V       H0       H01     AOSYM     SMH    MOLCAS    ERIS     OPER   

              2       4        3.13       700     1000      520     2100   
                                         GEOM     BASIS   MCVARS     RHF  

 PROGRAMS   *        TOTAL        HF       INT
 CPU TIMES  *         9.22      5.22      3.91
 REAL TIME  *        11.91 SEC
 DISK USED  *         1.33 GB      
 **********************************************************************************************************************************


 PROGRAM * CCSD (Closed-shell coupled cluster)     Authors: C. Hampel, H.-J. Werner, 1991, M. Deegan, P.J. Knowles, 1992


 Convergence thresholds:  THRVAR = 1.00D-08  THRDEN = 1.00D-12

 CCSD(T)     terms to be evaluated (factor= 1.000)


 Number of core orbitals:           2 (   2   0 )
 Number of closed-shell orbitals:   6 (   5   1 )
 Number of external orbitals:     163 ( 107  56 )

 Molecular orbitals read from record     2100.2  Type=RHF/CANONICAL (state 1.1)

 Number of N-1 electron functions:               6
 Number of N-2 electron functions:              21
 Number of singly external CSFs:               591
 Number of doubly external CSFs:            250014
 Total number of CSFs:                      250606

 Length of J-op  integral file:               0.00 MB
 Length of K-op  integral file:               1.15 MB
 Length of 3-ext integral record:             0.00 MB

 Memory could be reduced to 19.93 Mwords without degradation in triples

 Integral transformation finished. Total CPU:   0.66 sec, npass=  1  Memory used:   5.10 MW

 Reference energy:                   -129.84007093

 MP2 singlet pair energy:              -0.28674880
 MP2 triplet pair energy:              -0.16711532
 MP2 correlation energy:               -0.45386413
 MP2 total energy:                   -130.29393506

 SCS-MP2 correlation energy:           -0.44808143   (PS=  1.200000  PT=  0.333333)
 SCS-MP2 total energy:               -130.28815236

 ITER.      SQ.NORM     CORR.ENERGY   TOTAL ENERGY   ENERGY CHANGE        DEN1      VAR(S)    VAR(P)  DIIS     TIME  TIME/IT
   1      1.11862081    -0.45601391  -130.29608484    -0.00214978     0.01455902  0.32D-02  0.31D-02  1  1     1.25     0.63
   2      1.12910383    -0.45593665  -130.29600758     0.00007726    -0.01247736  0.12D-03  0.49D-03  2  2     1.83     0.65
   3      1.13562972    -0.45630544  -130.29637637    -0.00036879    -0.00335515  0.43D-04  0.57D-04  3  3     2.40     0.65
   4      1.13848397    -0.45633805  -130.29640898    -0.00003261    -0.00094033  0.43D-05  0.96D-05  4  4     2.97     0.65
   5      1.13955220    -0.45636988  -130.29644081    -0.00003183    -0.00021859  0.13D-05  0.17D-05  5  5     3.55     0.65
   6      1.13994498    -0.45635430  -130.29642523     0.00001558    -0.00006519  0.12D-06  0.43D-06  6  6     4.13     0.66
   7      1.14001690    -0.45635587  -130.29642680    -0.00000157     0.00000853  0.16D-07  0.93D-07  6  1     4.71     0.66
   8      1.14005124    -0.45635547  -130.29642640     0.00000040    -0.00000459  0.49D-08  0.14D-07  6  2     5.30     0.66
   9      1.14005640    -0.45635536  -130.29642629     0.00000010     0.00000096  0.21D-08  0.16D-08  6  3     5.88     0.66
  10      1.14005679    -0.45635569  -130.29642662    -0.00000032    -0.00000024  0.49D-09  0.25D-09  6  4     6.48     0.66
  11      1.14005528    -0.45635582  -130.29642675    -0.00000014     0.00000034  0.12D-09  0.25D-10  6  5     7.05     0.66
  12      1.14005415    -0.45635597  -130.29642690    -0.00000015     0.00000046  0.15D-10  0.73D-11  6  6     7.64     0.66
  13      1.14005351    -0.45635599  -130.29642692    -0.00000002     0.00000012  0.57D-11  0.13D-11  6  1     8.22     0.66
  14      1.14005301    -0.45635601  -130.29642694    -0.00000003     0.00000011  0.53D-12  0.43D-12  6  3     8.80     0.66
  15      1.14005286    -0.45635601  -130.29642694     0.00000000     0.00000001  0.13D-12  0.30D-13  6  2     9.41     0.66
  16      1.14005281    -0.45635602  -130.29642695    -0.00000000     0.00000001  0.31D-13  0.72D-14  6  4     9.99     0.66
  17      1.14005278    -0.45635602  -130.29642695    -0.00000000     0.00000001  0.40D-14  0.11D-14  6  5    10.57     0.66
  18      1.14005278    -0.45635602  -130.29642695     0.00000000     0.00000000  0.44D-15  0.31D-15  6  6    11.12     0.66
  19      1.14005279    -0.45635602  -130.29642695     0.00000000    -0.00000000  0.59D-16  0.39D-16  6  1    11.71     0.66
  20      1.14005279    -0.45635602  -130.29642695     0.00000000    -0.00000000  0.30D-17  0.91D-17  6  3    12.30     0.66
  21      1.14005279    -0.45635602  -130.29642695     0.00000000    -0.00000000  0.49D-18  0.19D-17  6  4    12.90     0.66
  22      1.14005279    -0.45635602  -130.29642695     0.00000000    -0.00000000  0.18D-19  0.69D-18  6  2    13.50     0.66
  23      1.14005279    -0.45635602  -130.29642695    -0.00000000     0.00000000  0.29D-19  0.12D-18  6  4    14.09     0.66
  24      1.14005279    -0.45635602  -130.29642695     0.00000000    -0.00000000  0.30D-20  0.60D-20  6  5    14.69     0.66
  25      1.14005279    -0.45635602  -130.29642695    -0.00000000     0.00000000  0.37D-21  0.50D-21  6  6    15.29     0.67
  26      1.14005279    -0.45635602  -130.29642695     0.00000000    -0.00000000  0.15D-21  0.57D-22  6  1    15.88     0.67
  27      1.14005279    -0.45635602  -130.29642695    -0.00000000    -0.00000000  0.57D-22  0.17D-22  6  3    16.49     0.67

 Norm of t1 vector:      0.07693677      S-energy:    -0.00000000      T1 diagnostic:  0.01570465
                                                                       D1 diagnostic:  0.04295894

 Doubles amplitudes (print threshold =  0.500E-01):

         I         J         SYM. A    SYM. B    A         B      T(IJ, AB)

         6         6         2         2         1         1     -0.13543938


 Total CPU time for triples:      6.70 sec


 RESULTS
 =======

  Reference energy                   -129.840070930228
  CCSD singlet pair energy             -0.313392845896
  CCSD triplet pair energy             -0.142963170287
  CCSD correlation energy              -0.456356016183

  Triples (T) contribution             -0.021161571485
  Total correlation energy             -0.477517587669

  CCSD total energy                  -130.296426946411
  CCSD[T] energy                     -130.318678150847
  CCSD-T energy                      -130.317176719197
 !CCSD(T) total energy               -130.317588517897

 Timing summary (sec):

 STEP                 CPU(USER)    SYS     CPU(TOT)    WALL
 Transformation          0.67      0.14      0.81      0.80
 CCSD iterations        15.83      2.17     18.00     18.00
 Triples                 6.70      0.22      6.92      6.93

 Program statistics:

 Available memory in ccsd:               994999756
 Min. memory needed in ccsd:                887758
 Max. memory used in ccsd:                 1088212
 Max. memory used in cckext:               1535578 (27 integral passes)



 **********************************************************************************************************************************
 DATASETS  * FILE   NREC   LENGTH (MB)   RECORD NAMES
              1      20      479.24       500      610      700      900      950      970     1000      129      960     1100   
                                          VAR    BASINP    GEOM    SYMINP    ZMAT    AOBASIS   BASIS     P2S    ABASIS      S 
                                         1400     1410     1200     1210     1080     1600     1650     1300     1700     1380   
                                           T        V       H0       H01     AOSYM     SMH    MOLCAS    ERIS     OPER     JKOP   

              2       4        3.13       700     1000      520     2100   
                                         GEOM     BASIS   MCVARS     RHF  

 PROGRAMS   *        TOTAL   CCSD(T)        HF       INT
 CPU TIMES  *        32.44     23.22      5.22      3.91
 REAL TIME  *        37.73 SEC
 DISK USED  *         1.33 GB      
 **********************************************************************************************************************************

 CCSD(T)/USERDEF energy=   -130.317588517897

        CCSD(T)         HF-SCF  
   -130.31758852   -129.84007093
 **********************************************************************************************************************************
 Molpro calculation terminated
 Variable memory released
