
 Primary working directories    : /tmp/r2666/282260.maple
 Secondary working directories  : /tmp/r2666/282260.maple
 Wavefunction directory         : /ddn/home4/r2666/wfu/
 Main file repository           : /tmp/r2666/282260.maple/

 SHA1      : d5ffa45e93fdbca01ffc919aa182cfdae0147319
 NAME      : 2015.1.35
 ARCHNAME  : linux/x86_64
 FC        : /opt/intel/composer_xe_2015.1.133/bin/intel64/ifort
 BLASLIB   : -Wl,-_start-group /opt/intel/mkl/lib/intel64/libmkl_intel_ilp64.a /opt/intel/mkl/lib/intel64/libmkl_intel_thread.a /opt/intel/mkl/lib/intel64/libmkl_core.a -Wl,-_end-group
 id        : olemiss

 Nodes     nprocs
 cn095        1

 Using customized tuning parameters: mindgm=1; mindgv=20; mindgc=4; mindgr=1; noblas=0; minvec=7
 default implementation of scratch files=df  

 ***,hno CCSD(T)/TZ-F12 QFF
 memory, 995, m;
 gthresh,energy=1.d-12,zero=1.d-22,oneint=1.d-22,twoint=1.d-22;
 gthresh,optgrad=1.d-8,optstep=1.d-8;
 nocompress;
 geomtyp=xyz
 bohr
 geometry={
 3
         28        28
 H        0.0000000000        1.6616980474       -1.9269566477
 N        0.0000000000       -0.1555496643       -1.1443333457
 O        0.0000000000        0.0356194070        1.1207004024
 }
 
 basis={
 default=aug-cc-pvtz
 s,C,8236.0,1235.0,280.8, 79.27,25.59, 8.997,3.319
 s,C,0.9059,0.3643,0.1285000
 p,C,56.0,18.71,4.133,0.2827,0.3827,0.1209
 d,C,30.0,10.0,3.3,1.097,0.318
 f,C,7.0,2.3,0.7610
 s,N,11420.0,1712.0,389.3,110.0,35.57,12.54,4.644
 s,N,1.293,0.5118,0.1787
 p,N,79.89,26.63,5.948,1.742,0.555,0.1725
 d,N,45.0,15.0,5.0,1.654,0.469
 f,N,9.9,3.3,1.093
 s,O,15330.0,2299.0,522.4,147.3,47.55,16.76,6.207
 s,O,1.752,0.6882,0.2384
 p,O,103.5,34.46,7.749,2.28,0.7156,0.214
 d,O,63.0,21.0,7.0,2.314,0.645
 f,O,12.9,4.3,1.428
 s,mg,164900.0,24710.0,5628.0,1596.0,521.0;
 s,mg,188.0,73.01,29.90,12.54,4.306,1.826;
 s,mg,0.7417,0.0761,0.145,0.033,0.0129;
 p,mg,950.70,316.90,74.86,23.72,8.669,3.363;
 p,mg,1.310,0.4911,0.2364,0.08733,0.03237,0.00745;
 d,mg,1.601,0.686,0.126,0.294,0.0468;
 f,mg,1.372,0.588,0.094,0.252;
 }
   {hf,maxit=500;accu,20;}
 {ccsd(t),nocheck,maxit=250;orbital,IGNORE_ERROR;}

 Variables initialized (889), CPU time= 0.00 sec
 Commands  initialized (702), CPU time= 0.01 sec, 572 directives.
 Default parameters read. Elapsed time= 0.05 sec

 Checking input...
 Passed
1


                                         ***  PROGRAM SYSTEM MOLPRO  ***
                                       Copyright, TTI GmbH Stuttgart, 2015
                                    Version 2015.1 linked Jul  9 2018 13:16:40


 **********************************************************************************************************************************
 LABEL *   hno CCSD(T)/TZ-F12 QFF                                                        
  64 bit serial version                                                                  DATE: 04-Mar-20          TIME: 13:46:59  
 **********************************************************************************************************************************

 SHA1:             d5ffa45e93fdbca01ffc919aa182cfdae0147319
 **********************************************************************************************************************************

 THRESHOLDS:

 ZERO    =  1.00D-22  ONEINT  =  1.00D-22  TWOINT  =  1.00D-22  PREFAC  =  1.00D-14  LOCALI  =  1.00D-09  EORDER  =  1.00D-04
 ENERGY  =  1.00D-12  ETEST   =  0.00D+00  EDENS   =  0.00D+00  THRDEDEF=  1.00D-06  GRADIENT=  1.00D-02  STEP    =  1.00D-03
 ORBITAL =  1.00D-05  CIVEC   =  1.00D-05  COEFF   =  1.00D-04  PRINTCI =  5.00D-02  PUNCHCI =  9.90D+01  OPTGRAD =  3.00D-04
 OPTENERG=  1.00D-06  OPTSTEP =  3.00D-04  THRGRAD =  1.00D-10  COMPRESS=  1.00D-11  VARMIN  =  1.00D-07  VARMAX  =  1.00D-03
 THRDOUB =  0.00D+00  THRDIV  =  1.00D-05  THRRED  =  1.00D-07  THRPSP  =  1.00D+00  THRDC   =  1.00D-10  THRCS   =  1.00D-10
 THRNRM  =  1.00D-08  THREQ   =  0.00D+00  THRDE   =  1.00D+00  THRREF  =  1.00D-05  SPARFAC =  1.00D+00  THRDLP  =  1.00D-07
 THRDIA  =  1.00D-10  THRDLS  =  1.00D-07  THRGPS  =  0.00D+00  THRKEX  =  0.00D+00  THRDIS  =  2.00D-01  THRVAR  =  1.00D-10
 THRLOC  =  1.00D-06  THRGAP  =  1.00D-06  THRLOCT = -1.00D+00  THRGAPT = -1.00D+00  THRORB  =  1.00D-06  THRMLTP =  0.00D+00
 THRCPQCI=  1.00D-10  KEXTA   =  0.00D+00  THRCOARS=  0.00D+00  SYMTOL  =  1.00D-06  GRADTOL =  1.00D-06  THROVL  =  1.00D-08
 THRORTH =  1.00D-08  GRID    =  1.00D-06  GRIDMAX =  1.00D-03  DTMAX   =  0.00D+00  THROCCDE=  1.00D-01  THROCCDE=  1.00D-01



 THRESHOLDS:

 ZERO    =  1.00D-22  ONEINT  =  1.00D-22  TWOINT  =  1.00D-22  PREFAC  =  1.00D-14  LOCALI  =  1.00D-09  EORDER  =  1.00D-04
 ENERGY  =  1.00D-12  ETEST   =  0.00D+00  EDENS   =  0.00D+00  THRDEDEF=  1.00D-06  GRADIENT=  1.00D-02  STEP    =  1.00D-03
 ORBITAL =  1.00D-05  CIVEC   =  1.00D-05  COEFF   =  1.00D-04  PRINTCI =  5.00D-02  PUNCHCI =  9.90D+01  OPTGRAD =  1.00D-08
 OPTENERG=  1.00D-06  OPTSTEP =  1.00D-08  THRGRAD =  1.00D-10  COMPRESS=  1.00D-11  VARMIN  =  1.00D-07  VARMAX  =  1.00D-03
 THRDOUB =  0.00D+00  THRDIV  =  1.00D-05  THRRED  =  1.00D-07  THRPSP  =  1.00D+00  THRDC   =  1.00D-10  THRCS   =  1.00D-10
 THRNRM  =  1.00D-08  THREQ   =  0.00D+00  THRDE   =  1.00D+00  THRREF  =  1.00D-05  SPARFAC =  1.00D+00  THRDLP  =  1.00D-07
 THRDIA  =  1.00D-10  THRDLS  =  1.00D-07  THRGPS  =  0.00D+00  THRKEX  =  0.00D+00  THRDIS  =  2.00D-01  THRVAR  =  1.00D-10
 THRLOC  =  1.00D-06  THRGAP  =  1.00D-06  THRLOCT = -1.00D+00  THRGAPT = -1.00D+00  THRORB  =  1.00D-06  THRMLTP =  0.00D+00
 THRCPQCI=  1.00D-10  KEXTA   =  0.00D+00  THRCOARS=  0.00D+00  SYMTOL  =  1.00D-06  GRADTOL =  1.00D-06  THROVL  =  1.00D-08
 THRORTH =  1.00D-08  GRID    =  1.00D-06  GRIDMAX =  1.00D-03  DTMAX   =  0.00D+00  THROCCDE=  1.00D-01  THROCCDE=  1.00D-01



 Input parameters for SORTINT:

 COMPRESS =    0.000000
 C_FINAL  =    1.000000
 DEBUG    =   -1.000000
 C_SORT1  =    0.000000
 C_SEWARD =    0.000000
 THRESH   =    0.000000
 IO       =  molpro                                                          
 SPRI     =    0.000000
 SETTING GEOMTYP        =    XYZ
 ZUNIT=BOHR
 

 Variable memory set to  995000000 words,  buffer space   230000 words

 SETTING BASIS          =    USERDEF


 Recomputing integrals since basis changed


 Using spherical harmonics

 Library entry H      S aug-cc-pVTZ          selected for orbital group  1
 Library entry H      P aug-cc-pVTZ          selected for orbital group  1
 Library entry H      D aug-cc-pVTZ          selected for orbital group  1


 PROGRAM * SEWARD (Integral evaluation for generally contracted gaussian basis sets)     Author: Roland Lindh, 1990

 Geometry written to block  1 of record 700


 Point group  Cs  



 ATOMIC COORDINATES

 NR  ATOM    CHARGE       X              Y              Z

   1  H       1.00    0.000000000    1.661698047   -1.926956648
   2  N       7.00    0.000000000   -0.155549664   -1.144333346
   3  O       8.00    0.000000000    0.035619407    1.120700402

 Bond lengths in Bohr (Angstrom)

 1-2  1.978607712  2-3  2.273086777
     ( 1.047034111)     ( 1.202865721)

 Bond angles

  1-2-3  108.47547239

 NUCLEAR CHARGE:                   16
 NUMBER OF PRIMITIVE AOS:         203
 NUMBER OF SYMMETRY AOS:          173
 NUMBER OF CONTRACTIONS:          171   ( 114A'  +  57A"  )
 NUMBER OF CORE ORBITALS:           2   (   2A'  +   0A"  )
 NUMBER OF VALENCE ORBITALS:        9   (   7A'  +   2A"  )


 NUCLEAR REPULSION ENERGY   30.48988310


 Eigenvalues of metric

         1 0.102E-02 0.244E-02 0.329E-02 0.630E-02 0.968E-02 0.136E-01 0.144E-01 0.227E-01
         2 0.357E-01 0.523E-01 0.691E-01 0.940E-01 0.131E+00 0.134E+00 0.140E+00 0.142E+00


 Contracted 2-electron integrals neglected if value below      1.0D-22

       46185881. INTEGRALS WRITTEN OUT IN   11279 BLOCKS ON RECORD 1290 OF FILE 1


 NUMBER OF SORTED TWO-ELECTRON INTEGRALS:   55360566.     BUFFER LENGTH:  32768
 NUMBER OF SEGMENTS:   4  SEGMENT LENGTH:   15997996      RECORD LENGTH: 524288

 Memory used in sort:      16.56 MW

 SORT1 READ    46185881. AND WROTE    46623768. INTEGRALS IN    136 RECORDS. CPU TIME:     0.84 SEC, REAL TIME:     1.18 SEC
 SORT2 READ    46623768. AND WROTE    55360566. INTEGRALS IN      4 RECORDS. CPU TIME:     0.62 SEC, REAL TIME:     0.96 SEC

 FILE SIZES:   FILE 1:   759.9 MBYTE,  FILE 4:   570.5 MBYTE,   TOTAL:   1330.4 MBYTE

 OPERATOR DM      FOR CENTER  0  COORDINATES:    0.000000    0.000000    0.000000


 **********************************************************************************************************************************
 DATASETS  * FILE   NREC   LENGTH (MB)   RECORD NAMES
              1      19      421.52       500      610      700      900      950      970     1000      129      960     1100   
                                          VAR    BASINP    GEOM    SYMINP    ZMAT    AOBASIS   BASIS     P2S    ABASIS      S 
                                         1400     1410     1200     1210     1080     1600     1650     1300     1700   
                                           T        V       H0       H01     AOSYM     SMH    MOLCAS    ERIS     OPER   

 PROGRAMS   *        TOTAL       INT
 CPU TIMES  *         4.63      4.53
 REAL TIME  *         6.42 SEC
 DISK USED  *         1.33 GB      
 **********************************************************************************************************************************


 PROGRAM * RHF-SCF (CLOSED SHELL)       Authors: W. Meyer, H.-J. Werner


 NUMBER OF ELECTRONS:       8+    8-
 CONVERGENCE THRESHOLDS:    1.00E-10 (Density)    1.00E-13 (Energy)
 MAX. NUMBER OF ITERATIONS:      500
 INTERPOLATION TYPE:            DIIS
 INTERPOLATION STEPS:              2 (START)      1 (STEP)
 LEVEL SHIFTS:                  0.00 (CLOSED)  0.00 (OPEN) 



 Orbital guess generated from atomic densities. Full valence occupancy:    9   2

 Molecular orbital dump at record        2100.2

 Initial occupancy:   7   1

 ITERATION    DDIFF          GRAD             ENERGY        2-EL.EN.            DIPOLE MOMENTS         DIIS   ORB.
    1      0.000D+00      0.000D+00      -129.79108901    154.279961    0.00000    0.57302   -0.99743    0    start
    2      0.000D+00      0.871D-02      -129.81814618    155.459508    0.00000    0.59479   -0.20207    1    diag
    3      0.363D-02      0.653D-02      -129.83984356    155.570376    0.00000    0.54698   -0.57786    2    diag
    4      0.139D-02      0.103D-02      -129.84061598    155.300136    0.00000    0.55509   -0.51630    3    diag
    5      0.330D-03      0.334D-03      -129.84073348    155.387419    0.00000    0.56107   -0.51880    4    diag
    6      0.152D-03      0.975D-04      -129.84075254    155.371471    0.00000    0.56167   -0.51478    5    diag
    7      0.604D-04      0.487D-04      -129.84075808    155.374032    0.00000    0.56300   -0.51234    6    diag
    8      0.408D-04      0.164D-04      -129.84075865    155.373235    0.00000    0.56306   -0.51147    7    diag
    9      0.138D-04      0.304D-05      -129.84075868    155.373128    0.00000    0.56301   -0.51130    8    diag
   10      0.276D-05      0.702D-06      -129.84075868    155.373115    0.00000    0.56297   -0.51127    9    orth
   11      0.849D-06      0.140D-06      -129.84075868    155.373111    0.00000    0.56296   -0.51127    9    diag
   12      0.202D-06      0.287D-07      -129.84075868    155.373110    0.00000    0.56296   -0.51127    9    diag
   13      0.487D-07      0.751D-08      -129.84075868    155.373110    0.00000    0.56296   -0.51127    9    diag
   14      0.111D-07      0.133D-08      -129.84075868    155.373110    0.00000    0.56296   -0.51127    9    diag
   15      0.147D-08      0.364D-09      -129.84075868    155.373110    0.00000    0.56296   -0.51127    9    diag
   16      0.324D-09      0.109D-09      -129.84075868    155.373110    0.00000    0.56296   -0.51127    9    diag
   17      0.793D-10      0.309D-10      -129.84075868    155.373110    0.00000    0.56296   -0.51127    0    orth

 Final occupancy:   7   1

 !RHF STATE 1.1 Energy               -129.840758680368
 Nuclear energy                        30.48988310
 One-electron energy                 -238.01719658
 Two-electron energy                   77.68655480
 Virial quotient                       -1.00142725
 !RHF STATE 1.1 Dipole moment           0.00000000     0.56296028    -0.51126603
 Dipole moment /Debye                   0.00000000     1.43080859    -1.29942352

 Orbital energies:

         1.1          2.1          3.1          4.1          5.1          6.1          7.1          8.1          9.1
    -20.650775   -15.709017    -1.532160    -0.993186    -0.747300    -0.665771    -0.427296     0.039786     0.193495

         1.2          2.2          3.2
     -0.596538     0.080798     0.239778

 HOMO      7.1    -0.427296 =     -11.6273eV
 LUMO      8.1     0.039786 =       1.0826eV
 LUMO-HOMO         0.467082 =      12.7100eV


 **********************************************************************************************************************************
 DATASETS  * FILE   NREC   LENGTH (MB)   RECORD NAMES
              1      19      421.52       500      610      700      900      950      970     1000      129      960     1100   
                                          VAR    BASINP    GEOM    SYMINP    ZMAT    AOBASIS   BASIS     P2S    ABASIS      S 
                                         1400     1410     1200     1210     1080     1600     1650     1300     1700   
                                           T        V       H0       H01     AOSYM     SMH    MOLCAS    ERIS     OPER   

              2       4        3.13       700     1000      520     2100   
                                         GEOM     BASIS   MCVARS     RHF  

 PROGRAMS   *        TOTAL        HF       INT
 CPU TIMES  *         9.51      4.88      4.53
 REAL TIME  *        12.39 SEC
 DISK USED  *         1.33 GB      
 **********************************************************************************************************************************


 PROGRAM * CCSD (Closed-shell coupled cluster)     Authors: C. Hampel, H.-J. Werner, 1991, M. Deegan, P.J. Knowles, 1992


 Convergence thresholds:  THRVAR = 1.00D-08  THRDEN = 1.00D-12

 CCSD(T)     terms to be evaluated (factor= 1.000)


 Number of core orbitals:           2 (   2   0 )
 Number of closed-shell orbitals:   6 (   5   1 )
 Number of external orbitals:     163 ( 107  56 )

 Molecular orbitals read from record     2100.2  Type=RHF/CANONICAL (state 1.1)

 Number of N-1 electron functions:               6
 Number of N-2 electron functions:              21
 Number of singly external CSFs:               591
 Number of doubly external CSFs:            250014
 Total number of CSFs:                      250606

 Length of J-op  integral file:               0.00 MB
 Length of K-op  integral file:               1.15 MB
 Length of 3-ext integral record:             0.00 MB

 Memory could be reduced to 19.93 Mwords without degradation in triples

 Integral transformation finished. Total CPU:   0.90 sec, npass=  1  Memory used:   5.10 MW

 Reference energy:                   -129.84075868

 MP2 singlet pair energy:              -0.28624509
 MP2 triplet pair energy:              -0.16678110
 MP2 correlation energy:               -0.45302619
 MP2 total energy:                   -130.29378487

 SCS-MP2 correlation energy:           -0.44726902   (PS=  1.200000  PT=  0.333333)
 SCS-MP2 total energy:               -130.28802770

 ITER.      SQ.NORM     CORR.ENERGY   TOTAL ENERGY   ENERGY CHANGE        DEN1      VAR(S)    VAR(P)  DIIS     TIME  TIME/IT
   1      1.11809259    -0.45536243  -130.29612111    -0.00233624     0.01416411  0.31D-02  0.30D-02  1  1     1.67     0.82
   2      1.12845637    -0.45532529  -130.29608397     0.00003714    -0.01235450  0.12D-03  0.49D-03  2  2     2.46     0.84
   3      1.13488926    -0.45568810  -130.29644678    -0.00036281    -0.00332386  0.42D-04  0.56D-04  3  3     3.15     0.83
   4      1.13768948    -0.45572001  -130.29647869    -0.00003191    -0.00092595  0.42D-05  0.94D-05  4  4     3.90     0.83
   5      1.13872989    -0.45575096  -130.29650964    -0.00003094    -0.00021272  0.13D-05  0.17D-05  5  5     4.65     0.83
   6      1.13911589    -0.45573587  -130.29649455     0.00001509    -0.00006390  0.11D-06  0.43D-06  6  6     5.39     0.83
   7      1.13918844    -0.45573739  -130.29649607    -0.00000153     0.00000819  0.16D-07  0.92D-07  6  1     6.12     0.83
   8      1.13922257    -0.45573705  -130.29649573     0.00000034    -0.00000447  0.50D-08  0.14D-07  6  2     6.84     0.82
   9      1.13922781    -0.45573695  -130.29649563     0.00000010     0.00000085  0.21D-08  0.16D-08  6  3     7.54     0.82
  10      1.13922812    -0.45573727  -130.29649595    -0.00000032    -0.00000020  0.48D-09  0.24D-09  6  4     8.15     0.80
  11      1.13922662    -0.45573740  -130.29649609    -0.00000013     0.00000034  0.12D-09  0.24D-10  6  5     8.84     0.80
  12      1.13922550    -0.45573755  -130.29649623    -0.00000014     0.00000046  0.15D-10  0.71D-11  6  6     9.61     0.80
  13      1.13922487    -0.45573757  -130.29649625    -0.00000002     0.00000012  0.57D-11  0.13D-11  6  1    10.42     0.81
  14      1.13922437    -0.45573759  -130.29649627    -0.00000003     0.00000011  0.54D-12  0.42D-12  6  3    11.25     0.82
  15      1.13922422    -0.45573759  -130.29649627     0.00000000     0.00000001  0.13D-12  0.29D-13  6  2    12.07     0.82
  16      1.13922418    -0.45573759  -130.29649627    -0.00000000     0.00000001  0.31D-13  0.71D-14  6  4    12.80     0.82
  17      1.13922415    -0.45573760  -130.29649628    -0.00000000     0.00000001  0.38D-14  0.11D-14  6  5    13.56     0.83
  18      1.13922416    -0.45573760  -130.29649628     0.00000000     0.00000000  0.42D-15  0.30D-15  6  6    14.34     0.83
  19      1.13922416    -0.45573760  -130.29649628     0.00000000    -0.00000000  0.55D-16  0.35D-16  6  1    15.11     0.83
  20      1.13922416    -0.45573760  -130.29649628     0.00000000    -0.00000000  0.29D-17  0.80D-17  6  3    15.88     0.83
  21      1.13922416    -0.45573760  -130.29649628     0.00000000    -0.00000000  0.47D-18  0.17D-17  6  4    16.62     0.83
  22      1.13922416    -0.45573759  -130.29649628     0.00000000    -0.00000000  0.15D-19  0.58D-18  6  2    17.37     0.83
  23      1.13922416    -0.45573760  -130.29649628    -0.00000000     0.00000000  0.42D-19  0.13D-18  6  5    18.13     0.83
  24      1.13922416    -0.45573760  -130.29649628    -0.00000000     0.00000000  0.45D-20  0.12D-19  6  1    18.94     0.84
  25      1.13922416    -0.45573760  -130.29649628     0.00000000    -0.00000000  0.19D-20  0.79D-21  6  6    19.73     0.84

 Norm of t1 vector:      0.07624393      S-energy:     0.00000000      T1 diagnostic:  0.01556323
                                                                       D1 diagnostic:  0.04234609

 Doubles amplitudes (print threshold =  0.500E-01):

         I         J         SYM. A    SYM. B    A         B      T(IJ, AB)

         6         6         2         2         1         1     -0.13388270


 Total CPU time for triples:      9.19 sec


 RESULTS
 =======

  Reference energy                   -129.840758680368
  CCSD singlet pair energy             -0.312852172484
  CCSD triplet pair energy             -0.142885422524
  CCSD correlation energy              -0.455737595002

  Triples (T) contribution             -0.021011620550
  Total correlation energy             -0.476749215553

  CCSD total energy                  -130.296496275370
  CCSD[T] energy                     -130.318577442697
  CCSD-T energy                      -130.317101325563
 !CCSD(T) total energy               -130.317507895920

 Timing summary (sec):

 STEP                 CPU(USER)    SYS     CPU(TOT)    WALL
 Transformation          0.91      0.12      1.03      1.04
 CCSD iterations        18.83      2.12     20.95     20.94
 Triples                 9.19      0.26      9.45      9.45

 Program statistics:

 Available memory in ccsd:               994999756
 Min. memory needed in ccsd:                887758
 Max. memory used in ccsd:                 1088212
 Max. memory used in cckext:               1535578 (25 integral passes)



 **********************************************************************************************************************************
 DATASETS  * FILE   NREC   LENGTH (MB)   RECORD NAMES
              1      20      479.47       500      610      700      900      950      970     1000      129      960     1100   
                                          VAR    BASINP    GEOM    SYMINP    ZMAT    AOBASIS   BASIS     P2S    ABASIS      S 
                                         1400     1410     1200     1210     1080     1600     1650     1300     1700     1380   
                                           T        V       H0       H01     AOSYM     SMH    MOLCAS    ERIS     OPER     JKOP   

              2       4        3.13       700     1000      520     2100   
                                         GEOM     BASIS   MCVARS     RHF  

 PROGRAMS   *        TOTAL   CCSD(T)        HF       INT
 CPU TIMES  *        38.46     28.95      4.88      4.53
 REAL TIME  *        43.89 SEC
 DISK USED  *         1.33 GB      
 **********************************************************************************************************************************

 CCSD(T)/USERDEF energy=   -130.317507895920

        CCSD(T)         HF-SCF  
   -130.31750790   -129.84075868
 **********************************************************************************************************************************
 Molpro calculation terminated
 Variable memory released
