
 Primary working directories    : /tmp/r2666/282238.maple
 Secondary working directories  : /tmp/r2666/282238.maple
 Wavefunction directory         : /ddn/home4/r2666/wfu/
 Main file repository           : /tmp/r2666/282238.maple/

 SHA1      : d5ffa45e93fdbca01ffc919aa182cfdae0147319
 NAME      : 2015.1.35
 ARCHNAME  : linux/x86_64
 FC        : /opt/intel/composer_xe_2015.1.133/bin/intel64/ifort
 BLASLIB   : -Wl,-_start-group /opt/intel/mkl/lib/intel64/libmkl_intel_ilp64.a /opt/intel/mkl/lib/intel64/libmkl_intel_thread.a /opt/intel/mkl/lib/intel64/libmkl_core.a -Wl,-_end-group
 id        : olemiss

 Nodes     nprocs
 cn079        1

 Using customized tuning parameters: mindgm=1; mindgv=20; mindgc=4; mindgr=1; noblas=0; minvec=7
 default implementation of scratch files=df  

 ***,hno CCSD(T)/TZ-F12 QFF
 memory, 995, m;
 gthresh,energy=1.d-12,zero=1.d-22,oneint=1.d-22,twoint=1.d-22;
 gthresh,optgrad=1.d-8,optstep=1.d-8;
 nocompress;
 geomtyp=xyz
 bohr
 geometry={
 3
          6         6
 H        0.0000000000        1.6534001358       -1.9219510022
 N        0.0000000000       -0.1486380909       -1.1518060249
 O        0.0000000000        0.0370057451        1.1231674361
 }
 
 basis={
 default=aug-cc-pvtz
 s,C,8236.0,1235.0,280.8, 79.27,25.59, 8.997,3.319
 s,C,0.9059,0.3643,0.1285000
 p,C,56.0,18.71,4.133,0.2827,0.3827,0.1209
 d,C,30.0,10.0,3.3,1.097,0.318
 f,C,7.0,2.3,0.7610
 s,N,11420.0,1712.0,389.3,110.0,35.57,12.54,4.644
 s,N,1.293,0.5118,0.1787
 p,N,79.89,26.63,5.948,1.742,0.555,0.1725
 d,N,45.0,15.0,5.0,1.654,0.469
 f,N,9.9,3.3,1.093
 s,O,15330.0,2299.0,522.4,147.3,47.55,16.76,6.207
 s,O,1.752,0.6882,0.2384
 p,O,103.5,34.46,7.749,2.28,0.7156,0.214
 d,O,63.0,21.0,7.0,2.314,0.645
 f,O,12.9,4.3,1.428
 s,mg,164900.0,24710.0,5628.0,1596.0,521.0;
 s,mg,188.0,73.01,29.90,12.54,4.306,1.826;
 s,mg,0.7417,0.0761,0.145,0.033,0.0129;
 p,mg,950.70,316.90,74.86,23.72,8.669,3.363;
 p,mg,1.310,0.4911,0.2364,0.08733,0.03237,0.00745;
 d,mg,1.601,0.686,0.126,0.294,0.0468;
 f,mg,1.372,0.588,0.094,0.252;
 }
   {hf,maxit=500;accu,20;}
 {ccsd(t),nocheck,maxit=250;orbital,IGNORE_ERROR;}

 Variables initialized (889), CPU time= 0.01 sec
 Commands  initialized (702), CPU time= 0.01 sec, 572 directives.
 Default parameters read. Elapsed time= 0.04 sec

 Checking input...
 Passed
1


                                         ***  PROGRAM SYSTEM MOLPRO  ***
                                       Copyright, TTI GmbH Stuttgart, 2015
                                    Version 2015.1 linked Jul  9 2018 13:16:40


 **********************************************************************************************************************************
 LABEL *   hno CCSD(T)/TZ-F12 QFF                                                        
  64 bit serial version                                                                  DATE: 04-Mar-20          TIME: 13:46:50  
 **********************************************************************************************************************************

 SHA1:             d5ffa45e93fdbca01ffc919aa182cfdae0147319
 **********************************************************************************************************************************

 THRESHOLDS:

 ZERO    =  1.00D-22  ONEINT  =  1.00D-22  TWOINT  =  1.00D-22  PREFAC  =  1.00D-14  LOCALI  =  1.00D-09  EORDER  =  1.00D-04
 ENERGY  =  1.00D-12  ETEST   =  0.00D+00  EDENS   =  0.00D+00  THRDEDEF=  1.00D-06  GRADIENT=  1.00D-02  STEP    =  1.00D-03
 ORBITAL =  1.00D-05  CIVEC   =  1.00D-05  COEFF   =  1.00D-04  PRINTCI =  5.00D-02  PUNCHCI =  9.90D+01  OPTGRAD =  3.00D-04
 OPTENERG=  1.00D-06  OPTSTEP =  3.00D-04  THRGRAD =  1.00D-10  COMPRESS=  1.00D-11  VARMIN  =  1.00D-07  VARMAX  =  1.00D-03
 THRDOUB =  0.00D+00  THRDIV  =  1.00D-05  THRRED  =  1.00D-07  THRPSP  =  1.00D+00  THRDC   =  1.00D-10  THRCS   =  1.00D-10
 THRNRM  =  1.00D-08  THREQ   =  0.00D+00  THRDE   =  1.00D+00  THRREF  =  1.00D-05  SPARFAC =  1.00D+00  THRDLP  =  1.00D-07
 THRDIA  =  1.00D-10  THRDLS  =  1.00D-07  THRGPS  =  0.00D+00  THRKEX  =  0.00D+00  THRDIS  =  2.00D-01  THRVAR  =  1.00D-10
 THRLOC  =  1.00D-06  THRGAP  =  1.00D-06  THRLOCT = -1.00D+00  THRGAPT = -1.00D+00  THRORB  =  1.00D-06  THRMLTP =  0.00D+00
 THRCPQCI=  1.00D-10  KEXTA   =  0.00D+00  THRCOARS=  0.00D+00  SYMTOL  =  1.00D-06  GRADTOL =  1.00D-06  THROVL  =  1.00D-08
 THRORTH =  1.00D-08  GRID    =  1.00D-06  GRIDMAX =  1.00D-03  DTMAX   =  0.00D+00  THROCCDE=  1.00D-01  THROCCDE=  1.00D-01



 THRESHOLDS:

 ZERO    =  1.00D-22  ONEINT  =  1.00D-22  TWOINT  =  1.00D-22  PREFAC  =  1.00D-14  LOCALI  =  1.00D-09  EORDER  =  1.00D-04
 ENERGY  =  1.00D-12  ETEST   =  0.00D+00  EDENS   =  0.00D+00  THRDEDEF=  1.00D-06  GRADIENT=  1.00D-02  STEP    =  1.00D-03
 ORBITAL =  1.00D-05  CIVEC   =  1.00D-05  COEFF   =  1.00D-04  PRINTCI =  5.00D-02  PUNCHCI =  9.90D+01  OPTGRAD =  1.00D-08
 OPTENERG=  1.00D-06  OPTSTEP =  1.00D-08  THRGRAD =  1.00D-10  COMPRESS=  1.00D-11  VARMIN  =  1.00D-07  VARMAX  =  1.00D-03
 THRDOUB =  0.00D+00  THRDIV  =  1.00D-05  THRRED  =  1.00D-07  THRPSP  =  1.00D+00  THRDC   =  1.00D-10  THRCS   =  1.00D-10
 THRNRM  =  1.00D-08  THREQ   =  0.00D+00  THRDE   =  1.00D+00  THRREF  =  1.00D-05  SPARFAC =  1.00D+00  THRDLP  =  1.00D-07
 THRDIA  =  1.00D-10  THRDLS  =  1.00D-07  THRGPS  =  0.00D+00  THRKEX  =  0.00D+00  THRDIS  =  2.00D-01  THRVAR  =  1.00D-10
 THRLOC  =  1.00D-06  THRGAP  =  1.00D-06  THRLOCT = -1.00D+00  THRGAPT = -1.00D+00  THRORB  =  1.00D-06  THRMLTP =  0.00D+00
 THRCPQCI=  1.00D-10  KEXTA   =  0.00D+00  THRCOARS=  0.00D+00  SYMTOL  =  1.00D-06  GRADTOL =  1.00D-06  THROVL  =  1.00D-08
 THRORTH =  1.00D-08  GRID    =  1.00D-06  GRIDMAX =  1.00D-03  DTMAX   =  0.00D+00  THROCCDE=  1.00D-01  THROCCDE=  1.00D-01



 Input parameters for SORTINT:

 COMPRESS =    0.000000
 C_FINAL  =    1.000000
 DEBUG    =   -1.000000
 C_SORT1  =    0.000000
 C_SEWARD =    0.000000
 THRESH   =    0.000000
 IO       =  molpro                                                          
 SPRI     =    0.000000
 SETTING GEOMTYP        =    XYZ
 ZUNIT=BOHR
 

 Variable memory set to  995000000 words,  buffer space   230000 words

 SETTING BASIS          =    USERDEF


 Recomputing integrals since basis changed


 Using spherical harmonics

 Library entry H      S aug-cc-pVTZ          selected for orbital group  1
 Library entry H      P aug-cc-pVTZ          selected for orbital group  1
 Library entry H      D aug-cc-pVTZ          selected for orbital group  1


 PROGRAM * SEWARD (Integral evaluation for generally contracted gaussian basis sets)     Author: Roland Lindh, 1990

 Geometry written to block  1 of record 700


 Point group  Cs  



 ATOMIC COORDINATES

 NR  ATOM    CHARGE       X              Y              Z

   1  H       1.00    0.000000000    1.653400136   -1.921951002
   2  N       7.00    0.000000000   -0.148638091   -1.151806025
   3  O       8.00    0.000000000    0.037005745    1.123167436

 Bond lengths in Bohr (Angstrom)

 1-2  1.959710452  2-3  2.282535407
     ( 1.037034111)     ( 1.207865720)

 Bond angles

  1-2-3  108.47547239

 NUCLEAR CHARGE:                   16
 NUMBER OF PRIMITIVE AOS:         203
 NUMBER OF SYMMETRY AOS:          173
 NUMBER OF CONTRACTIONS:          171   ( 114A'  +  57A"  )
 NUMBER OF CORE ORBITALS:           2   (   2A'  +   0A"  )
 NUMBER OF VALENCE ORBITALS:        9   (   7A'  +   2A"  )


 NUCLEAR REPULSION ENERGY   30.42657787


 Eigenvalues of metric

         1 0.101E-02 0.248E-02 0.327E-02 0.625E-02 0.936E-02 0.136E-01 0.144E-01 0.224E-01
         2 0.345E-01 0.529E-01 0.687E-01 0.941E-01 0.131E+00 0.134E+00 0.139E+00 0.142E+00


 Contracted 2-electron integrals neglected if value below      1.0D-22

       46150744. INTEGRALS WRITTEN OUT IN   11271 BLOCKS ON RECORD 1290 OF FILE 1


 NUMBER OF SORTED TWO-ELECTRON INTEGRALS:   55360566.     BUFFER LENGTH:  32768
 NUMBER OF SEGMENTS:   4  SEGMENT LENGTH:   15997996      RECORD LENGTH: 524288

 Memory used in sort:      16.56 MW

 SORT1 READ    46150744. AND WROTE    46588223. INTEGRALS IN    136 RECORDS. CPU TIME:     0.77 SEC, REAL TIME:     1.03 SEC
 SORT2 READ    46588223. AND WROTE    55360566. INTEGRALS IN      4 RECORDS. CPU TIME:     0.59 SEC, REAL TIME:     0.86 SEC

 FILE SIZES:   FILE 1:   759.4 MBYTE,  FILE 4:   570.5 MBYTE,   TOTAL:   1329.8 MBYTE

 OPERATOR DM      FOR CENTER  0  COORDINATES:    0.000000    0.000000    0.000000


 **********************************************************************************************************************************
 DATASETS  * FILE   NREC   LENGTH (MB)   RECORD NAMES
              1      19      421.28       500      610      700      900      950      970     1000      129      960     1100   
                                          VAR    BASINP    GEOM    SYMINP    ZMAT    AOBASIS   BASIS     P2S    ABASIS      S 
                                         1400     1410     1200     1210     1080     1600     1650     1300     1700   
                                           T        V       H0       H01     AOSYM     SMH    MOLCAS    ERIS     OPER   

 PROGRAMS   *        TOTAL       INT
 CPU TIMES  *         4.09      3.99
 REAL TIME  *         5.41 SEC
 DISK USED  *         1.33 GB      
 **********************************************************************************************************************************


 PROGRAM * RHF-SCF (CLOSED SHELL)       Authors: W. Meyer, H.-J. Werner


 NUMBER OF ELECTRONS:       8+    8-
 CONVERGENCE THRESHOLDS:    1.00E-10 (Density)    1.00E-13 (Energy)
 MAX. NUMBER OF ITERATIONS:      500
 INTERPOLATION TYPE:            DIIS
 INTERPOLATION STEPS:              2 (START)      1 (STEP)
 LEVEL SHIFTS:                  0.00 (CLOSED)  0.00 (OPEN) 



 Orbital guess generated from atomic densities. Full valence occupancy:    9   2

 Molecular orbital dump at record        2100.2

 Initial occupancy:   7   1

 ITERATION    DDIFF          GRAD             ENERGY        2-EL.EN.            DIPOLE MOMENTS         DIIS   ORB.
    1      0.000D+00      0.000D+00      -129.79041594    154.173210    0.00000    0.58166   -1.01174    0    start
    2      0.000D+00      0.872D-02      -129.81733555    155.332504    0.00000    0.59889   -0.20367    1    diag
    3      0.367D-02      0.657D-02      -129.83938563    155.456524    0.00000    0.55284   -0.58610    2    diag
    4      0.140D-02      0.104D-02      -129.84016712    155.183934    0.00000    0.56088   -0.52361    3    diag
    5      0.334D-03      0.335D-03      -129.84028459    155.270859    0.00000    0.56672   -0.52596    4    diag
    6      0.153D-03      0.973D-04      -129.84030355    155.254982    0.00000    0.56729   -0.52189    5    diag
    7      0.603D-04      0.490D-04      -129.84030917    155.257437    0.00000    0.56858   -0.51938    6    diag
    8      0.410D-04      0.167D-04      -129.84030977    155.256625    0.00000    0.56863   -0.51847    7    diag
    9      0.141D-04      0.310D-05      -129.84030980    155.256517    0.00000    0.56858   -0.51829    8    diag
   10      0.287D-05      0.708D-06      -129.84030980    155.256505    0.00000    0.56855   -0.51827    9    orth
   11      0.869D-06      0.140D-06      -129.84030980    155.256501    0.00000    0.56854   -0.51826    9    diag
   12      0.203D-06      0.289D-07      -129.84030980    155.256501    0.00000    0.56854   -0.51826    9    diag
   13      0.485D-07      0.759D-08      -129.84030980    155.256501    0.00000    0.56854   -0.51826    9    diag
   14      0.110D-07      0.133D-08      -129.84030980    155.256501    0.00000    0.56854   -0.51826    9    diag
   15      0.139D-08      0.356D-09      -129.84030980    155.256501    0.00000    0.56854   -0.51826    9    diag
   16      0.313D-09      0.103D-09      -129.84030980    155.256501    0.00000    0.56854   -0.51826    9    diag
   17      0.676D-10      0.273D-10      -129.84030980    155.256501    0.00000    0.56854   -0.51826    9    diag
   18      0.202D-10      0.892D-11      -129.84030980    155.256501    0.00000    0.56854   -0.51826    0    orth

 Final occupancy:   7   1

 !RHF STATE 1.1 Energy               -129.840309799403
 Nuclear energy                        30.42657787
 One-electron energy                 -237.89513797
 Two-electron energy                   77.62825030
 Virial quotient                       -1.00145551
 !RHF STATE 1.1 Dipole moment           0.00000000     0.56853762    -0.51826270
 Dipole moment /Debye                   0.00000000     1.44498383    -1.31720610

 Orbital energies:

         1.1          2.1          3.1          4.1          5.1          6.1          7.1          8.1          9.1
    -20.651067   -15.708509    -1.528177    -0.996953    -0.746860    -0.664330    -0.429413     0.039766     0.194109

         1.2          2.2          3.2
     -0.594010     0.079014     0.239687

 HOMO      7.1    -0.429413 =     -11.6849eV
 LUMO      8.1     0.039766 =       1.0821eV
 LUMO-HOMO         0.469180 =      12.7670eV


 **********************************************************************************************************************************
 DATASETS  * FILE   NREC   LENGTH (MB)   RECORD NAMES
              1      19      421.28       500      610      700      900      950      970     1000      129      960     1100   
                                          VAR    BASINP    GEOM    SYMINP    ZMAT    AOBASIS   BASIS     P2S    ABASIS      S 
                                         1400     1410     1200     1210     1080     1600     1650     1300     1700   
                                           T        V       H0       H01     AOSYM     SMH    MOLCAS    ERIS     OPER   

              2       4        3.13       700     1000      520     2100   
                                         GEOM     BASIS   MCVARS     RHF  

 PROGRAMS   *        TOTAL        HF       INT
 CPU TIMES  *         8.51      4.43      3.99
 REAL TIME  *        10.80 SEC
 DISK USED  *         1.33 GB      
 **********************************************************************************************************************************


 PROGRAM * CCSD (Closed-shell coupled cluster)     Authors: C. Hampel, H.-J. Werner, 1991, M. Deegan, P.J. Knowles, 1992


 Convergence thresholds:  THRVAR = 1.00D-08  THRDEN = 1.00D-12

 CCSD(T)     terms to be evaluated (factor= 1.000)


 Number of core orbitals:           2 (   2   0 )
 Number of closed-shell orbitals:   6 (   5   1 )
 Number of external orbitals:     163 ( 107  56 )

 Molecular orbitals read from record     2100.2  Type=RHF/CANONICAL (state 1.1)

 Number of N-1 electron functions:               6
 Number of N-2 electron functions:              21
 Number of singly external CSFs:               591
 Number of doubly external CSFs:            250014
 Total number of CSFs:                      250606

 Length of J-op  integral file:               0.00 MB
 Length of K-op  integral file:               1.15 MB
 Length of 3-ext integral record:             0.00 MB

 Memory could be reduced to 19.93 Mwords without degradation in triples

 Integral transformation finished. Total CPU:   0.67 sec, npass=  1  Memory used:   5.10 MW

 Reference energy:                   -129.84030980

 MP2 singlet pair energy:              -0.28652698
 MP2 triplet pair energy:              -0.16698558
 MP2 correlation energy:               -0.45351257
 MP2 total energy:                   -130.29382237

 SCS-MP2 correlation energy:           -0.44773452   (PS=  1.200000  PT=  0.333333)
 SCS-MP2 total energy:               -130.28804432

 ITER.      SQ.NORM     CORR.ENERGY   TOTAL ENERGY   ENERGY CHANGE        DEN1      VAR(S)    VAR(P)  DIIS     TIME  TIME/IT
   1      1.11829784    -0.45568648  -130.29599628    -0.00217391     0.01445274  0.32D-02  0.30D-02  1  1     1.24     0.63
   2      1.12872256    -0.45561440  -130.29592420     0.00007208    -0.01242630  0.12D-03  0.49D-03  2  2     1.82     0.64
   3      1.13519469    -0.45597744  -130.29628724    -0.00036304    -0.00333391  0.42D-04  0.57D-04  3  3     2.42     0.65
   4      1.13803249    -0.45601110  -130.29632090    -0.00003366    -0.00093354  0.42D-05  0.96D-05  4  4     3.02     0.66
   5      1.13908904    -0.45604221  -130.29635201    -0.00003110    -0.00021647  0.12D-05  0.18D-05  5  5     3.64     0.66
   6      1.13947809    -0.45602678  -130.29633658     0.00001542    -0.00006456  0.11D-06  0.44D-06  6  6     4.20     0.66
   7      1.13954891    -0.45602851  -130.29633831    -0.00000173     0.00000863  0.14D-07  0.95D-07  6  1     4.79     0.66
   8      1.13958283    -0.45602815  -130.29633795     0.00000036    -0.00000453  0.51D-08  0.14D-07  6  2     5.39     0.66
   9      1.13958763    -0.45602808  -130.29633788     0.00000008     0.00000100  0.22D-08  0.16D-08  6  3     5.98     0.66
  10      1.13958800    -0.45602839  -130.29633819    -0.00000032    -0.00000026  0.49D-09  0.25D-09  6  4     6.57     0.66
  11      1.13958651    -0.45602853  -130.29633833    -0.00000014     0.00000034  0.12D-09  0.25D-10  6  5     7.15     0.66
  12      1.13958540    -0.45602867  -130.29633847    -0.00000014     0.00000046  0.14D-10  0.71D-11  6  6     7.74     0.66
  13      1.13958477    -0.45602869  -130.29633849    -0.00000002     0.00000012  0.54D-11  0.13D-11  6  1     8.35     0.66
  14      1.13958428    -0.45602872  -130.29633852    -0.00000003     0.00000011  0.51D-12  0.42D-12  6  3     8.94     0.66
  15      1.13958413    -0.45602872  -130.29633852     0.00000000     0.00000001  0.12D-12  0.30D-13  6  2     9.53     0.66
  16      1.13958408    -0.45602872  -130.29633852    -0.00000000     0.00000001  0.29D-13  0.70D-14  6  4    10.11     0.66
  17      1.13958406    -0.45602872  -130.29633852    -0.00000000     0.00000001  0.39D-14  0.11D-14  6  5    10.72     0.66
  18      1.13958406    -0.45602872  -130.29633852     0.00000000     0.00000000  0.44D-15  0.30D-15  6  6    11.32     0.66
  19      1.13958406    -0.45602872  -130.29633852     0.00000000    -0.00000000  0.58D-16  0.38D-16  6  1    11.93     0.66
  20      1.13958407    -0.45602872  -130.29633852     0.00000000    -0.00000000  0.28D-17  0.89D-17  6  3    12.51     0.66
  21      1.13958407    -0.45602872  -130.29633852     0.00000000    -0.00000000  0.48D-18  0.19D-17  6  4    13.10     0.66
  22      1.13958407    -0.45602872  -130.29633852     0.00000000    -0.00000000  0.25D-19  0.67D-18  6  2    13.67     0.66
  23      1.13958407    -0.45602872  -130.29633852    -0.00000000     0.00000000  0.31D-19  0.12D-18  6  4    14.29     0.66
  24      1.13958407    -0.45602872  -130.29633852     0.00000000    -0.00000000  0.30D-20  0.59D-20  6  5    14.88     0.66
  25      1.13958407    -0.45602872  -130.29633852    -0.00000000     0.00000000  0.43D-21  0.48D-21  6  6    15.47     0.66
  26      1.13958407    -0.45602872  -130.29633852     0.00000000    -0.00000000  0.17D-21  0.61D-22  6  1    16.07     0.66
  27      1.13958407    -0.45602872  -130.29633852    -0.00000000    -0.00000000  0.67D-22  0.18D-22  6  3    16.67     0.66

 Norm of t1 vector:      0.07654131      S-energy:     0.00000000      T1 diagnostic:  0.01562393
                                                                       D1 diagnostic:  0.04295786

 Doubles amplitudes (print threshold =  0.500E-01):

         I         J         SYM. A    SYM. B    A         B      T(IJ, AB)

         6         6         2         2         1         1     -0.13549434


 Total CPU time for triples:      7.00 sec


 RESULTS
 =======

  Reference energy                   -129.840309799403
  CCSD singlet pair energy             -0.313112109692
  CCSD triplet pair energy             -0.142916612463
  CCSD correlation energy              -0.456028722153

  Triples (T) contribution             -0.021099265527
  Total correlation energy             -0.477127987680

  CCSD total energy                  -130.296338521556
  CCSD[T] energy                     -130.318518430616
  CCSD-T energy                      -130.317029579139
 !CCSD(T) total energy               -130.317437787083

 Timing summary (sec):

 STEP                 CPU(USER)    SYS     CPU(TOT)    WALL
 Transformation          0.68      0.12      0.80      0.79
 CCSD iterations        16.00      1.90     17.90     17.91
 Triples                 7.00      0.22      7.22      7.24

 Program statistics:

 Available memory in ccsd:               994999756
 Min. memory needed in ccsd:                887758
 Max. memory used in ccsd:                 1088212
 Max. memory used in cckext:               1535578 (27 integral passes)



 **********************************************************************************************************************************
 DATASETS  * FILE   NREC   LENGTH (MB)   RECORD NAMES
              1      20      479.24       500      610      700      900      950      970     1000      129      960     1100   
                                          VAR    BASINP    GEOM    SYMINP    ZMAT    AOBASIS   BASIS     P2S    ABASIS      S 
                                         1400     1410     1200     1210     1080     1600     1650     1300     1700     1380   
                                           T        V       H0       H01     AOSYM     SMH    MOLCAS    ERIS     OPER     JKOP   

              2       4        3.13       700     1000      520     2100   
                                         GEOM     BASIS   MCVARS     RHF  

 PROGRAMS   *        TOTAL   CCSD(T)        HF       INT
 CPU TIMES  *        32.21     23.70      4.43      3.99
 REAL TIME  *        36.79 SEC
 DISK USED  *         1.33 GB      
 **********************************************************************************************************************************

 CCSD(T)/USERDEF energy=   -130.317437787083

        CCSD(T)         HF-SCF  
   -130.31743779   -129.84030980
 **********************************************************************************************************************************
 Molpro calculation terminated
 Variable memory released
