
 Primary working directories    : /tmp/r2666/282289.maple
 Secondary working directories  : /tmp/r2666/282289.maple
 Wavefunction directory         : /ddn/home4/r2666/wfu/
 Main file repository           : /tmp/r2666/282289.maple/

 SHA1      : d5ffa45e93fdbca01ffc919aa182cfdae0147319
 NAME      : 2015.1.35
 ARCHNAME  : linux/x86_64
 FC        : /opt/intel/composer_xe_2015.1.133/bin/intel64/ifort
 BLASLIB   : -Wl,-_start-group /opt/intel/mkl/lib/intel64/libmkl_intel_ilp64.a /opt/intel/mkl/lib/intel64/libmkl_intel_thread.a /opt/intel/mkl/lib/intel64/libmkl_core.a -Wl,-_end-group
 id        : olemiss

 Nodes     nprocs
 cn074        1

 Using customized tuning parameters: mindgm=1; mindgv=20; mindgc=4; mindgr=1; noblas=0; minvec=7
 default implementation of scratch files=df  

 ***,hno CCSD(T)/TZ-F12 QFF
 memory, 995, m;
 gthresh,energy=1.d-12,zero=1.d-22,oneint=1.d-22,twoint=1.d-22;
 gthresh,optgrad=1.d-8,optstep=1.d-8;
 nocompress;
 geomtyp=xyz
 bohr
 geometry={
 3
         57        57
 H        0.0000000000        1.6658293541       -1.9234668749
 N        0.0000000000       -0.1637086659       -1.1455474363
 O        0.0000000000        0.0396471018        1.1184247202
 }
 
 basis={
 default=aug-cc-pvtz
 s,C,8236.0,1235.0,280.8, 79.27,25.59, 8.997,3.319
 s,C,0.9059,0.3643,0.1285000
 p,C,56.0,18.71,4.133,0.2827,0.3827,0.1209
 d,C,30.0,10.0,3.3,1.097,0.318
 f,C,7.0,2.3,0.7610
 s,N,11420.0,1712.0,389.3,110.0,35.57,12.54,4.644
 s,N,1.293,0.5118,0.1787
 p,N,79.89,26.63,5.948,1.742,0.555,0.1725
 d,N,45.0,15.0,5.0,1.654,0.469
 f,N,9.9,3.3,1.093
 s,O,15330.0,2299.0,522.4,147.3,47.55,16.76,6.207
 s,O,1.752,0.6882,0.2384
 p,O,103.5,34.46,7.749,2.28,0.7156,0.214
 d,O,63.0,21.0,7.0,2.314,0.645
 f,O,12.9,4.3,1.428
 s,mg,164900.0,24710.0,5628.0,1596.0,521.0;
 s,mg,188.0,73.01,29.90,12.54,4.306,1.826;
 s,mg,0.7417,0.0761,0.145,0.033,0.0129;
 p,mg,950.70,316.90,74.86,23.72,8.669,3.363;
 p,mg,1.310,0.4911,0.2364,0.08733,0.03237,0.00745;
 d,mg,1.601,0.686,0.126,0.294,0.0468;
 f,mg,1.372,0.588,0.094,0.252;
 }
   {hf,maxit=500;accu,20;}
 {ccsd(t),nocheck,maxit=250;orbital,IGNORE_ERROR;}

 Variables initialized (889), CPU time= 0.01 sec
 Commands  initialized (702), CPU time= 0.01 sec, 572 directives.
 Default parameters read. Elapsed time= 0.05 sec

 Checking input...
 Passed
1


                                         ***  PROGRAM SYSTEM MOLPRO  ***
                                       Copyright, TTI GmbH Stuttgart, 2015
                                    Version 2015.1 linked Jul  9 2018 13:16:40


 **********************************************************************************************************************************
 LABEL *   hno CCSD(T)/TZ-F12 QFF                                                        
  64 bit serial version                                                                  DATE: 04-Mar-20          TIME: 13:47:34  
 **********************************************************************************************************************************

 SHA1:             d5ffa45e93fdbca01ffc919aa182cfdae0147319
 **********************************************************************************************************************************

 THRESHOLDS:

 ZERO    =  1.00D-22  ONEINT  =  1.00D-22  TWOINT  =  1.00D-22  PREFAC  =  1.00D-14  LOCALI  =  1.00D-09  EORDER  =  1.00D-04
 ENERGY  =  1.00D-12  ETEST   =  0.00D+00  EDENS   =  0.00D+00  THRDEDEF=  1.00D-06  GRADIENT=  1.00D-02  STEP    =  1.00D-03
 ORBITAL =  1.00D-05  CIVEC   =  1.00D-05  COEFF   =  1.00D-04  PRINTCI =  5.00D-02  PUNCHCI =  9.90D+01  OPTGRAD =  3.00D-04
 OPTENERG=  1.00D-06  OPTSTEP =  3.00D-04  THRGRAD =  1.00D-10  COMPRESS=  1.00D-11  VARMIN  =  1.00D-07  VARMAX  =  1.00D-03
 THRDOUB =  0.00D+00  THRDIV  =  1.00D-05  THRRED  =  1.00D-07  THRPSP  =  1.00D+00  THRDC   =  1.00D-10  THRCS   =  1.00D-10
 THRNRM  =  1.00D-08  THREQ   =  0.00D+00  THRDE   =  1.00D+00  THRREF  =  1.00D-05  SPARFAC =  1.00D+00  THRDLP  =  1.00D-07
 THRDIA  =  1.00D-10  THRDLS  =  1.00D-07  THRGPS  =  0.00D+00  THRKEX  =  0.00D+00  THRDIS  =  2.00D-01  THRVAR  =  1.00D-10
 THRLOC  =  1.00D-06  THRGAP  =  1.00D-06  THRLOCT = -1.00D+00  THRGAPT = -1.00D+00  THRORB  =  1.00D-06  THRMLTP =  0.00D+00
 THRCPQCI=  1.00D-10  KEXTA   =  0.00D+00  THRCOARS=  0.00D+00  SYMTOL  =  1.00D-06  GRADTOL =  1.00D-06  THROVL  =  1.00D-08
 THRORTH =  1.00D-08  GRID    =  1.00D-06  GRIDMAX =  1.00D-03  DTMAX   =  0.00D+00  THROCCDE=  1.00D-01  THROCCDE=  1.00D-01



 THRESHOLDS:

 ZERO    =  1.00D-22  ONEINT  =  1.00D-22  TWOINT  =  1.00D-22  PREFAC  =  1.00D-14  LOCALI  =  1.00D-09  EORDER  =  1.00D-04
 ENERGY  =  1.00D-12  ETEST   =  0.00D+00  EDENS   =  0.00D+00  THRDEDEF=  1.00D-06  GRADIENT=  1.00D-02  STEP    =  1.00D-03
 ORBITAL =  1.00D-05  CIVEC   =  1.00D-05  COEFF   =  1.00D-04  PRINTCI =  5.00D-02  PUNCHCI =  9.90D+01  OPTGRAD =  1.00D-08
 OPTENERG=  1.00D-06  OPTSTEP =  1.00D-08  THRGRAD =  1.00D-10  COMPRESS=  1.00D-11  VARMIN  =  1.00D-07  VARMAX  =  1.00D-03
 THRDOUB =  0.00D+00  THRDIV  =  1.00D-05  THRRED  =  1.00D-07  THRPSP  =  1.00D+00  THRDC   =  1.00D-10  THRCS   =  1.00D-10
 THRNRM  =  1.00D-08  THREQ   =  0.00D+00  THRDE   =  1.00D+00  THRREF  =  1.00D-05  SPARFAC =  1.00D+00  THRDLP  =  1.00D-07
 THRDIA  =  1.00D-10  THRDLS  =  1.00D-07  THRGPS  =  0.00D+00  THRKEX  =  0.00D+00  THRDIS  =  2.00D-01  THRVAR  =  1.00D-10
 THRLOC  =  1.00D-06  THRGAP  =  1.00D-06  THRLOCT = -1.00D+00  THRGAPT = -1.00D+00  THRORB  =  1.00D-06  THRMLTP =  0.00D+00
 THRCPQCI=  1.00D-10  KEXTA   =  0.00D+00  THRCOARS=  0.00D+00  SYMTOL  =  1.00D-06  GRADTOL =  1.00D-06  THROVL  =  1.00D-08
 THRORTH =  1.00D-08  GRID    =  1.00D-06  GRIDMAX =  1.00D-03  DTMAX   =  0.00D+00  THROCCDE=  1.00D-01  THROCCDE=  1.00D-01



 Input parameters for SORTINT:

 COMPRESS =    0.000000
 C_FINAL  =    1.000000
 DEBUG    =   -1.000000
 C_SORT1  =    0.000000
 C_SEWARD =    0.000000
 THRESH   =    0.000000
 IO       =  molpro                                                          
 SPRI     =    0.000000
 SETTING GEOMTYP        =    XYZ
 ZUNIT=BOHR
 

 Variable memory set to  995000000 words,  buffer space   230000 words

 SETTING BASIS          =    USERDEF


 Recomputing integrals since basis changed


 Using spherical harmonics

 Library entry H      S aug-cc-pVTZ          selected for orbital group  1
 Library entry H      P aug-cc-pVTZ          selected for orbital group  1
 Library entry H      D aug-cc-pVTZ          selected for orbital group  1


 PROGRAM * SEWARD (Integral evaluation for generally contracted gaussian basis sets)     Author: Roland Lindh, 1990

 Geometry written to block  1 of record 700


 Point group  Cs  



 ATOMIC COORDINATES

 NR  ATOM    CHARGE       X              Y              Z

   1  H       1.00    0.000000000    1.665829354   -1.923466875
   2  N       7.00    0.000000000   -0.163708666   -1.145547436
   3  O       8.00    0.000000000    0.039647102    1.118424720

 Bond lengths in Bohr (Angstrom)

 1-2  1.988056342  2-3  2.273086777
     ( 1.052034110)     ( 1.202865721)

 Bond angles

  1-2-3  107.90251459

 NUCLEAR CHARGE:                   16
 NUMBER OF PRIMITIVE AOS:         203
 NUMBER OF SYMMETRY AOS:          173
 NUMBER OF CONTRACTIONS:          171   ( 114A'  +  57A"  )
 NUMBER OF CORE ORBITALS:           2   (   2A'  +   0A"  )
 NUMBER OF VALENCE ORBITALS:        9   (   7A'  +   2A"  )


 NUCLEAR REPULSION ENERGY   30.47645064


 Eigenvalues of metric

         1 0.103E-02 0.245E-02 0.331E-02 0.633E-02 0.985E-02 0.137E-01 0.144E-01 0.229E-01
         2 0.363E-01 0.524E-01 0.697E-01 0.940E-01 0.131E+00 0.134E+00 0.140E+00 0.142E+00


 Contracted 2-electron integrals neglected if value below      1.0D-22

       46187753. INTEGRALS WRITTEN OUT IN   11280 BLOCKS ON RECORD 1290 OF FILE 1


 NUMBER OF SORTED TWO-ELECTRON INTEGRALS:   55360566.     BUFFER LENGTH:  32768
 NUMBER OF SEGMENTS:   4  SEGMENT LENGTH:   15997996      RECORD LENGTH: 524288

 Memory used in sort:      16.56 MW

 SORT1 READ    46187753. AND WROTE    46625666. INTEGRALS IN    136 RECORDS. CPU TIME:     0.70 SEC, REAL TIME:     1.05 SEC
 SORT2 READ    46625666. AND WROTE    55360566. INTEGRALS IN      4 RECORDS. CPU TIME:     0.62 SEC, REAL TIME:     0.86 SEC

 FILE SIZES:   FILE 1:   760.0 MBYTE,  FILE 4:   570.5 MBYTE,   TOTAL:   1330.4 MBYTE

 OPERATOR DM      FOR CENTER  0  COORDINATES:    0.000000    0.000000    0.000000


 **********************************************************************************************************************************
 DATASETS  * FILE   NREC   LENGTH (MB)   RECORD NAMES
              1      19      421.53       500      610      700      900      950      970     1000      129      960     1100   
                                          VAR    BASINP    GEOM    SYMINP    ZMAT    AOBASIS   BASIS     P2S    ABASIS      S 
                                         1400     1410     1200     1210     1080     1600     1650     1300     1700   
                                           T        V       H0       H01     AOSYM     SMH    MOLCAS    ERIS     OPER   

 PROGRAMS   *        TOTAL       INT
 CPU TIMES  *         4.16      4.07
 REAL TIME  *         5.79 SEC
 DISK USED  *         1.33 GB      
 **********************************************************************************************************************************


 PROGRAM * RHF-SCF (CLOSED SHELL)       Authors: W. Meyer, H.-J. Werner


 NUMBER OF ELECTRONS:       8+    8-
 CONVERGENCE THRESHOLDS:    1.00E-10 (Density)    1.00E-13 (Energy)
 MAX. NUMBER OF ITERATIONS:      500
 INTERPOLATION TYPE:            DIIS
 INTERPOLATION STEPS:              2 (START)      1 (STEP)
 LEVEL SHIFTS:                  0.00 (CLOSED)  0.00 (OPEN) 



 Orbital guess generated from atomic densities. Full valence occupancy:    9   2

 Molecular orbital dump at record        2100.2

 Initial occupancy:   7   1

 ITERATION    DDIFF          GRAD             ENERGY        2-EL.EN.            DIPOLE MOMENTS         DIIS   ORB.
    1      0.000D+00      0.000D+00      -129.79064295    154.254471    0.00000    0.56476   -0.99665    0    start
    2      0.000D+00      0.874D-02      -129.81771168    155.437274    0.00000    0.59441   -0.19761    1    diag
    3      0.362D-02      0.657D-02      -129.83967626    155.547365    0.00000    0.54285   -0.57505    2    diag
    4      0.140D-02      0.103D-02      -129.84044816    155.276683    0.00000    0.55121   -0.51366    3    diag
    5      0.329D-03      0.335D-03      -129.84056677    155.364210    0.00000    0.55721   -0.51615    4    diag
    6      0.152D-03      0.982D-04      -129.84058610    155.348182    0.00000    0.55780   -0.51211    5    diag
    7      0.605D-04      0.490D-04      -129.84059172    155.350773    0.00000    0.55914   -0.50967    6    diag
    8      0.409D-04      0.165D-04      -129.84059230    155.349968    0.00000    0.55920   -0.50880    7    diag
    9      0.138D-04      0.306D-05      -129.84059232    155.349860    0.00000    0.55915   -0.50862    8    diag
   10      0.277D-05      0.704D-06      -129.84059232    155.349846    0.00000    0.55911   -0.50859    9    orth
   11      0.845D-06      0.141D-06      -129.84059232    155.349842    0.00000    0.55911   -0.50859    9    diag
   12      0.202D-06      0.290D-07      -129.84059232    155.349841    0.00000    0.55910   -0.50859    9    diag
   13      0.493D-07      0.761D-08      -129.84059232    155.349841    0.00000    0.55910   -0.50859    9    diag
   14      0.113D-07      0.136D-08      -129.84059232    155.349841    0.00000    0.55910   -0.50859    9    diag
   15      0.150D-08      0.372D-09      -129.84059232    155.349841    0.00000    0.55910   -0.50859    9    diag
   16      0.330D-09      0.113D-09      -129.84059232    155.349841    0.00000    0.55910   -0.50859    9    diag
   17      0.837D-10      0.326D-10      -129.84059232    155.349841    0.00000    0.55910   -0.50859    9    diag
   18      0.274D-10      0.108D-10      -129.84059232    155.349841    0.00000    0.55910   -0.50859    9    diag
   19      0.107D-10      0.267D-11      -129.84059232    155.349841    0.00000    0.55910   -0.50859    0    orth

 Final occupancy:   7   1

 !RHF STATE 1.1 Energy               -129.840592324629
 Nuclear energy                        30.47645064
 One-electron energy                 -237.99196353
 Two-electron energy                   77.67492056
 Virial quotient                       -1.00147073
 !RHF STATE 1.1 Dipole moment           0.00000000     0.55910281    -0.50858878
 Dipole moment /Debye                   0.00000000     1.42100453    -1.29261908

 Orbital energies:

         1.1          2.1          3.1          4.1          5.1          6.1          7.1          8.1          9.1
    -20.650740   -15.709807    -1.532406    -0.991564    -0.746796    -0.665661    -0.427392     0.039817     0.193092

         1.2          2.2          3.2
     -0.596695     0.080945     0.239677

 HOMO      7.1    -0.427392 =     -11.6299eV
 LUMO      8.1     0.039817 =       1.0835eV
 LUMO-HOMO         0.467210 =      12.7134eV


 **********************************************************************************************************************************
 DATASETS  * FILE   NREC   LENGTH (MB)   RECORD NAMES
              1      19      421.53       500      610      700      900      950      970     1000      129      960     1100   
                                          VAR    BASINP    GEOM    SYMINP    ZMAT    AOBASIS   BASIS     P2S    ABASIS      S 
                                         1400     1410     1200     1210     1080     1600     1650     1300     1700   
                                           T        V       H0       H01     AOSYM     SMH    MOLCAS    ERIS     OPER   

              2       4        3.13       700     1000      520     2100   
                                         GEOM     BASIS   MCVARS     RHF  

 PROGRAMS   *        TOTAL        HF       INT
 CPU TIMES  *         8.76      4.60      4.07
 REAL TIME  *        11.45 SEC
 DISK USED  *         1.33 GB      
 **********************************************************************************************************************************


 PROGRAM * CCSD (Closed-shell coupled cluster)     Authors: C. Hampel, H.-J. Werner, 1991, M. Deegan, P.J. Knowles, 1992


 Convergence thresholds:  THRVAR = 1.00D-08  THRDEN = 1.00D-12

 CCSD(T)     terms to be evaluated (factor= 1.000)


 Number of core orbitals:           2 (   2   0 )
 Number of closed-shell orbitals:   6 (   5   1 )
 Number of external orbitals:     163 ( 107  56 )

 Molecular orbitals read from record     2100.2  Type=RHF/CANONICAL (state 1.1)

 Number of N-1 electron functions:               6
 Number of N-2 electron functions:              21
 Number of singly external CSFs:               591
 Number of doubly external CSFs:            250014
 Total number of CSFs:                      250606

 Length of J-op  integral file:               0.00 MB
 Length of K-op  integral file:               1.15 MB
 Length of 3-ext integral record:             0.00 MB

 Memory could be reduced to 19.93 Mwords without degradation in triples

 Integral transformation finished. Total CPU:   0.65 sec, npass=  1  Memory used:   5.10 MW

 Reference energy:                   -129.84059232

 MP2 singlet pair energy:              -0.28635877
 MP2 triplet pair energy:              -0.16684698
 MP2 correlation energy:               -0.45320575
 MP2 total energy:                   -130.29379807

 SCS-MP2 correlation energy:           -0.44744642   (PS=  1.200000  PT=  0.333333)
 SCS-MP2 total energy:               -130.28803875

 ITER.      SQ.NORM     CORR.ENERGY   TOTAL ENERGY   ENERGY CHANGE        DEN1      VAR(S)    VAR(P)  DIIS     TIME  TIME/IT
   1      1.11824751    -0.45552980  -130.29612212    -0.00232405     0.01420916  0.31D-02  0.30D-02  1  1     1.24     0.64
   2      1.12863434    -0.45549179  -130.29608412     0.00003801    -0.01237576  0.12D-03  0.49D-03  2  2     1.84     0.65
   3      1.13508687    -0.45585653  -130.29644886    -0.00036474    -0.00333393  0.43D-04  0.56D-04  3  3     2.41     0.65
   4      1.13788982    -0.45588815  -130.29648047    -0.00003161    -0.00092797  0.42D-05  0.94D-05  4  4     3.00     0.66
   5      1.13893076    -0.45591931  -130.29651164    -0.00003117    -0.00021306  0.13D-05  0.17D-05  5  5     3.56     0.66
   6      1.13931593    -0.45590420  -130.29649653     0.00001511    -0.00006387  0.12D-06  0.42D-06  6  6     4.14     0.66
   7      1.13938824    -0.45590565  -130.29649797    -0.00000144     0.00000816  0.17D-07  0.90D-07  6  1     4.70     0.66
   8      1.13942237    -0.45590527  -130.29649760     0.00000037    -0.00000448  0.48D-08  0.14D-07  6  2     5.30     0.66
   9      1.13942766    -0.45590516  -130.29649749     0.00000011     0.00000085  0.21D-08  0.15D-08  6  3     5.88     0.66
  10      1.13942802    -0.45590548  -130.29649781    -0.00000032    -0.00000020  0.47D-09  0.24D-09  6  4     6.45     0.66
  11      1.13942653    -0.45590562  -130.29649794    -0.00000013     0.00000034  0.11D-09  0.24D-10  6  5     7.01     0.66
  12      1.13942541    -0.45590576  -130.29649808    -0.00000014     0.00000045  0.15D-10  0.70D-11  6  6     7.56     0.66
  13      1.13942479    -0.45590578  -130.29649810    -0.00000002     0.00000012  0.56D-11  0.13D-11  6  1     8.14     0.66
  14      1.13942430    -0.45590580  -130.29649813    -0.00000003     0.00000011  0.53D-12  0.41D-12  6  3     8.72     0.66
  15      1.13942415    -0.45590580  -130.29649813     0.00000000     0.00000001  0.13D-12  0.28D-13  6  2     9.31     0.66
  16      1.13942410    -0.45590580  -130.29649813    -0.00000000     0.00000001  0.31D-13  0.70D-14  6  4     9.87     0.66
  17      1.13942408    -0.45590580  -130.29649813    -0.00000000     0.00000001  0.38D-14  0.11D-14  6  5    10.46     0.66
  18      1.13942408    -0.45590580  -130.29649813     0.00000000     0.00000000  0.41D-15  0.30D-15  6  6    11.03     0.66
  19      1.13942408    -0.45590580  -130.29649813     0.00000000    -0.00000000  0.54D-16  0.36D-16  6  1    11.64     0.66
  20      1.13942409    -0.45590580  -130.29649813     0.00000000    -0.00000000  0.28D-17  0.82D-17  6  3    12.22     0.66
  21      1.13942409    -0.45590580  -130.29649813     0.00000000    -0.00000000  0.46D-18  0.17D-17  6  4    12.85     0.67
  22      1.13942409    -0.45590580  -130.29649813     0.00000000    -0.00000000  0.14D-19  0.60D-18  6  2    13.46     0.67
  23      1.13942409    -0.45590580  -130.29649813    -0.00000000     0.00000000  0.39D-19  0.13D-18  6  5    14.05     0.67
  24      1.13942409    -0.45590580  -130.29649813    -0.00000000     0.00000000  0.43D-20  0.12D-19  6  1    14.63     0.67
  25      1.13942409    -0.45590580  -130.29649813     0.00000000    -0.00000000  0.18D-20  0.78D-21  6  6    15.20     0.67

 Norm of t1 vector:      0.07632192      S-energy:     0.00000000      T1 diagnostic:  0.01557915
                                                                       D1 diagnostic:  0.04230711

 Doubles amplitudes (print threshold =  0.500E-01):

         I         J         SYM. A    SYM. B    A         B      T(IJ, AB)

         6         6         2         2         1         1     -0.13392290


 Total CPU time for triples:      6.28 sec


 RESULTS
 =======

  Reference energy                   -129.840592324629
  CCSD singlet pair energy             -0.312995103659
  CCSD triplet pair energy             -0.142910700083
  CCSD correlation energy              -0.455905803741

  Triples (T) contribution             -0.021039536144
  Total correlation energy             -0.476945339885

  CCSD total energy                  -130.296498128370
  CCSD[T] energy                     -130.318609478737
  CCSD-T energy                      -130.317129845983
 !CCSD(T) total energy               -130.317537664514

 Timing summary (sec):

 STEP                 CPU(USER)    SYS     CPU(TOT)    WALL
 Transformation          0.66      0.15      0.81      0.82
 CCSD iterations        14.56      2.16     16.72     16.70
 Triples                 6.28      0.20      6.48      6.49

 Program statistics:

 Available memory in ccsd:               994999756
 Min. memory needed in ccsd:                887758
 Max. memory used in ccsd:                 1088212
 Max. memory used in cckext:               1535578 (25 integral passes)



 **********************************************************************************************************************************
 DATASETS  * FILE   NREC   LENGTH (MB)   RECORD NAMES
              1      20      479.49       500      610      700      900      950      970     1000      129      960     1100   
                                          VAR    BASINP    GEOM    SYMINP    ZMAT    AOBASIS   BASIS     P2S    ABASIS      S 
                                         1400     1410     1200     1210     1080     1600     1650     1300     1700     1380   
                                           T        V       H0       H01     AOSYM     SMH    MOLCAS    ERIS     OPER     JKOP   

              2       4        3.13       700     1000      520     2100   
                                         GEOM     BASIS   MCVARS     RHF  

 PROGRAMS   *        TOTAL   CCSD(T)        HF       INT
 CPU TIMES  *        30.30     21.53      4.60      4.07
 REAL TIME  *        36.62 SEC
 DISK USED  *         1.33 GB      
 **********************************************************************************************************************************

 CCSD(T)/USERDEF energy=   -130.317537664514

        CCSD(T)         HF-SCF  
   -130.31753766   -129.84059232
 **********************************************************************************************************************************
 Molpro calculation terminated
 Variable memory released
