
 Primary working directories    : /tmp/r2666/282247.maple
 Secondary working directories  : /tmp/r2666/282247.maple
 Wavefunction directory         : /ddn/home4/r2666/wfu/
 Main file repository           : /tmp/r2666/282247.maple/

 SHA1      : d5ffa45e93fdbca01ffc919aa182cfdae0147319
 NAME      : 2015.1.35
 ARCHNAME  : linux/x86_64
 FC        : /opt/intel/composer_xe_2015.1.133/bin/intel64/ifort
 BLASLIB   : -Wl,-_start-group /opt/intel/mkl/lib/intel64/libmkl_intel_ilp64.a /opt/intel/mkl/lib/intel64/libmkl_intel_thread.a /opt/intel/mkl/lib/intel64/libmkl_core.a -Wl,-_end-group
 id        : olemiss

 Nodes     nprocs
 cn079        1

 Using customized tuning parameters: mindgm=1; mindgv=20; mindgc=4; mindgr=1; noblas=0; minvec=7
 default implementation of scratch files=df  

 ***,hno CCSD(T)/TZ-F12 QFF
 memory, 995, m;
 gthresh,energy=1.d-12,zero=1.d-22,oneint=1.d-22,twoint=1.d-22;
 gthresh,optgrad=1.d-8,optstep=1.d-8;
 nocompress;
 geomtyp=xyz
 bohr
 geometry={
 3
         15        15
 H        0.0000000000        1.6579537127       -1.9255387275
 N        0.0000000000       -0.1520201268       -1.1499214305
 O        0.0000000000        0.0358342040        1.1248705670
 }
 
 basis={
 default=aug-cc-pvtz
 s,C,8236.0,1235.0,280.8, 79.27,25.59, 8.997,3.319
 s,C,0.9059,0.3643,0.1285000
 p,C,56.0,18.71,4.133,0.2827,0.3827,0.1209
 d,C,30.0,10.0,3.3,1.097,0.318
 f,C,7.0,2.3,0.7610
 s,N,11420.0,1712.0,389.3,110.0,35.57,12.54,4.644
 s,N,1.293,0.5118,0.1787
 p,N,79.89,26.63,5.948,1.742,0.555,0.1725
 d,N,45.0,15.0,5.0,1.654,0.469
 f,N,9.9,3.3,1.093
 s,O,15330.0,2299.0,522.4,147.3,47.55,16.76,6.207
 s,O,1.752,0.6882,0.2384
 p,O,103.5,34.46,7.749,2.28,0.7156,0.214
 d,O,63.0,21.0,7.0,2.314,0.645
 f,O,12.9,4.3,1.428
 s,mg,164900.0,24710.0,5628.0,1596.0,521.0;
 s,mg,188.0,73.01,29.90,12.54,4.306,1.826;
 s,mg,0.7417,0.0761,0.145,0.033,0.0129;
 p,mg,950.70,316.90,74.86,23.72,8.669,3.363;
 p,mg,1.310,0.4911,0.2364,0.08733,0.03237,0.00745;
 d,mg,1.601,0.686,0.126,0.294,0.0468;
 f,mg,1.372,0.588,0.094,0.252;
 }
   {hf,maxit=500;accu,20;}
 {ccsd(t),nocheck,maxit=250;orbital,IGNORE_ERROR;}

 Variables initialized (889), CPU time= 0.00 sec
 Commands  initialized (702), CPU time= 0.02 sec, 572 directives.
 Default parameters read. Elapsed time= 0.06 sec

 Checking input...
 Passed
1


                                         ***  PROGRAM SYSTEM MOLPRO  ***
                                       Copyright, TTI GmbH Stuttgart, 2015
                                    Version 2015.1 linked Jul  9 2018 13:16:40


 **********************************************************************************************************************************
 LABEL *   hno CCSD(T)/TZ-F12 QFF                                                        
  64 bit serial version                                                                  DATE: 04-Mar-20          TIME: 13:46:55  
 **********************************************************************************************************************************

 SHA1:             d5ffa45e93fdbca01ffc919aa182cfdae0147319
 **********************************************************************************************************************************

 THRESHOLDS:

 ZERO    =  1.00D-22  ONEINT  =  1.00D-22  TWOINT  =  1.00D-22  PREFAC  =  1.00D-14  LOCALI  =  1.00D-09  EORDER  =  1.00D-04
 ENERGY  =  1.00D-12  ETEST   =  0.00D+00  EDENS   =  0.00D+00  THRDEDEF=  1.00D-06  GRADIENT=  1.00D-02  STEP    =  1.00D-03
 ORBITAL =  1.00D-05  CIVEC   =  1.00D-05  COEFF   =  1.00D-04  PRINTCI =  5.00D-02  PUNCHCI =  9.90D+01  OPTGRAD =  3.00D-04
 OPTENERG=  1.00D-06  OPTSTEP =  3.00D-04  THRGRAD =  1.00D-10  COMPRESS=  1.00D-11  VARMIN  =  1.00D-07  VARMAX  =  1.00D-03
 THRDOUB =  0.00D+00  THRDIV  =  1.00D-05  THRRED  =  1.00D-07  THRPSP  =  1.00D+00  THRDC   =  1.00D-10  THRCS   =  1.00D-10
 THRNRM  =  1.00D-08  THREQ   =  0.00D+00  THRDE   =  1.00D+00  THRREF  =  1.00D-05  SPARFAC =  1.00D+00  THRDLP  =  1.00D-07
 THRDIA  =  1.00D-10  THRDLS  =  1.00D-07  THRGPS  =  0.00D+00  THRKEX  =  0.00D+00  THRDIS  =  2.00D-01  THRVAR  =  1.00D-10
 THRLOC  =  1.00D-06  THRGAP  =  1.00D-06  THRLOCT = -1.00D+00  THRGAPT = -1.00D+00  THRORB  =  1.00D-06  THRMLTP =  0.00D+00
 THRCPQCI=  1.00D-10  KEXTA   =  0.00D+00  THRCOARS=  0.00D+00  SYMTOL  =  1.00D-06  GRADTOL =  1.00D-06  THROVL  =  1.00D-08
 THRORTH =  1.00D-08  GRID    =  1.00D-06  GRIDMAX =  1.00D-03  DTMAX   =  0.00D+00  THROCCDE=  1.00D-01  THROCCDE=  1.00D-01



 THRESHOLDS:

 ZERO    =  1.00D-22  ONEINT  =  1.00D-22  TWOINT  =  1.00D-22  PREFAC  =  1.00D-14  LOCALI  =  1.00D-09  EORDER  =  1.00D-04
 ENERGY  =  1.00D-12  ETEST   =  0.00D+00  EDENS   =  0.00D+00  THRDEDEF=  1.00D-06  GRADIENT=  1.00D-02  STEP    =  1.00D-03
 ORBITAL =  1.00D-05  CIVEC   =  1.00D-05  COEFF   =  1.00D-04  PRINTCI =  5.00D-02  PUNCHCI =  9.90D+01  OPTGRAD =  1.00D-08
 OPTENERG=  1.00D-06  OPTSTEP =  1.00D-08  THRGRAD =  1.00D-10  COMPRESS=  1.00D-11  VARMIN  =  1.00D-07  VARMAX  =  1.00D-03
 THRDOUB =  0.00D+00  THRDIV  =  1.00D-05  THRRED  =  1.00D-07  THRPSP  =  1.00D+00  THRDC   =  1.00D-10  THRCS   =  1.00D-10
 THRNRM  =  1.00D-08  THREQ   =  0.00D+00  THRDE   =  1.00D+00  THRREF  =  1.00D-05  SPARFAC =  1.00D+00  THRDLP  =  1.00D-07
 THRDIA  =  1.00D-10  THRDLS  =  1.00D-07  THRGPS  =  0.00D+00  THRKEX  =  0.00D+00  THRDIS  =  2.00D-01  THRVAR  =  1.00D-10
 THRLOC  =  1.00D-06  THRGAP  =  1.00D-06  THRLOCT = -1.00D+00  THRGAPT = -1.00D+00  THRORB  =  1.00D-06  THRMLTP =  0.00D+00
 THRCPQCI=  1.00D-10  KEXTA   =  0.00D+00  THRCOARS=  0.00D+00  SYMTOL  =  1.00D-06  GRADTOL =  1.00D-06  THROVL  =  1.00D-08
 THRORTH =  1.00D-08  GRID    =  1.00D-06  GRIDMAX =  1.00D-03  DTMAX   =  0.00D+00  THROCCDE=  1.00D-01  THROCCDE=  1.00D-01



 Input parameters for SORTINT:

 COMPRESS =    0.000000
 C_FINAL  =    1.000000
 DEBUG    =   -1.000000
 C_SORT1  =    0.000000
 C_SEWARD =    0.000000
 THRESH   =    0.000000
 IO       =  molpro                                                          
 SPRI     =    0.000000
 SETTING GEOMTYP        =    XYZ
 ZUNIT=BOHR
 

 Variable memory set to  995000000 words,  buffer space   230000 words

 SETTING BASIS          =    USERDEF


 Recomputing integrals since basis changed


 Using spherical harmonics

 Library entry H      S aug-cc-pVTZ          selected for orbital group  1
 Library entry H      P aug-cc-pVTZ          selected for orbital group  1
 Library entry H      D aug-cc-pVTZ          selected for orbital group  1


 PROGRAM * SEWARD (Integral evaluation for generally contracted gaussian basis sets)     Author: Roland Lindh, 1990

 Geometry written to block  1 of record 700


 Point group  Cs  



 ATOMIC COORDINATES

 NR  ATOM    CHARGE       X              Y              Z

   1  H       1.00    0.000000000    1.657953713   -1.925538727
   2  N       7.00    0.000000000   -0.152020127   -1.149921431
   3  O       8.00    0.000000000    0.035834204    1.124870567

 Bond lengths in Bohr (Angstrom)

 1-2  1.969159082  2-3  2.282535406
     ( 1.042034111)     ( 1.207865720)

 Bond angles

  1-2-3  108.47547239

 NUCLEAR CHARGE:                   16
 NUMBER OF PRIMITIVE AOS:         203
 NUMBER OF SYMMETRY AOS:          173
 NUMBER OF CONTRACTIONS:          171   ( 114A'  +  57A"  )
 NUMBER OF CORE ORBITALS:           2   (   2A'  +   0A"  )
 NUMBER OF VALENCE ORBITALS:        9   (   7A'  +   2A"  )


 NUCLEAR REPULSION ENERGY   30.40449615


 Eigenvalues of metric

         1 0.102E-02 0.248E-02 0.329E-02 0.629E-02 0.952E-02 0.136E-01 0.144E-01 0.226E-01
         2 0.351E-01 0.530E-01 0.691E-01 0.941E-01 0.131E+00 0.134E+00 0.139E+00 0.142E+00


 Contracted 2-electron integrals neglected if value below      1.0D-22

       46150999. INTEGRALS WRITTEN OUT IN   11271 BLOCKS ON RECORD 1290 OF FILE 1


 NUMBER OF SORTED TWO-ELECTRON INTEGRALS:   55360566.     BUFFER LENGTH:  32768
 NUMBER OF SEGMENTS:   4  SEGMENT LENGTH:   15997996      RECORD LENGTH: 524288

 Memory used in sort:      16.56 MW

 SORT1 READ    46150999. AND WROTE    46588483. INTEGRALS IN    136 RECORDS. CPU TIME:     0.74 SEC, REAL TIME:     1.01 SEC
 SORT2 READ    46588483. AND WROTE    55360566. INTEGRALS IN      4 RECORDS. CPU TIME:     0.63 SEC, REAL TIME:     0.84 SEC

 FILE SIZES:   FILE 1:   759.4 MBYTE,  FILE 4:   570.5 MBYTE,   TOTAL:   1329.8 MBYTE

 OPERATOR DM      FOR CENTER  0  COORDINATES:    0.000000    0.000000    0.000000


 **********************************************************************************************************************************
 DATASETS  * FILE   NREC   LENGTH (MB)   RECORD NAMES
              1      19      421.28       500      610      700      900      950      970     1000      129      960     1100   
                                          VAR    BASINP    GEOM    SYMINP    ZMAT    AOBASIS   BASIS     P2S    ABASIS      S 
                                         1400     1410     1200     1210     1080     1600     1650     1300     1700   
                                           T        V       H0       H01     AOSYM     SMH    MOLCAS    ERIS     OPER   

 PROGRAMS   *        TOTAL       INT
 CPU TIMES  *         4.02      3.89
 REAL TIME  *         5.35 SEC
 DISK USED  *         1.33 GB      
 **********************************************************************************************************************************


 PROGRAM * RHF-SCF (CLOSED SHELL)       Authors: W. Meyer, H.-J. Werner


 NUMBER OF ELECTRONS:       8+    8-
 CONVERGENCE THRESHOLDS:    1.00E-10 (Density)    1.00E-13 (Energy)
 MAX. NUMBER OF ITERATIONS:      500
 INTERPOLATION TYPE:            DIIS
 INTERPOLATION STEPS:              2 (START)      1 (STEP)
 LEVEL SHIFTS:                  0.00 (CLOSED)  0.00 (OPEN) 



 Orbital guess generated from atomic densities. Full valence occupancy:    9   2

 Molecular orbital dump at record        2100.2

 Initial occupancy:   7   1

 ITERATION    DDIFF          GRAD             ENERGY        2-EL.EN.            DIPOLE MOMENTS         DIIS   ORB.
    1      0.000D+00      0.000D+00      -129.79007842    154.130586    0.00000    0.57853   -1.01262    0    start
    2      0.000D+00      0.874D-02      -129.81699623    155.295220    0.00000    0.59842   -0.20163    1    diag
    3      0.366D-02      0.661D-02      -129.83927593    155.418094    0.00000    0.55113   -0.58565    2    diag
    4      0.141D-02      0.104D-02      -129.84005817    155.144838    0.00000    0.55915   -0.52318    3    diag
    5      0.333D-03      0.335D-03      -129.84017657    155.232160    0.00000    0.56506   -0.52556    4    diag
    6      0.153D-03      0.978D-04      -129.84019574    155.216214    0.00000    0.56563   -0.52147    5    diag
    7      0.604D-04      0.492D-04      -129.84020142    155.218696    0.00000    0.56694   -0.51896    6    diag
    8      0.411D-04      0.168D-04      -129.84020203    155.217880    0.00000    0.56699   -0.51805    7    diag
    9      0.142D-04      0.312D-05      -129.84020205    155.217771    0.00000    0.56694   -0.51787    8    diag
   10      0.288D-05      0.713D-06      -129.84020205    155.217758    0.00000    0.56690   -0.51785    9    orth
   11      0.868D-06      0.141D-06      -129.84020205    155.217754    0.00000    0.56689   -0.51784    9    diag
   12      0.203D-06      0.292D-07      -129.84020205    155.217753    0.00000    0.56689   -0.51784    9    diag
   13      0.489D-07      0.768D-08      -129.84020205    155.217753    0.00000    0.56689   -0.51784    9    diag
   14      0.111D-07      0.135D-08      -129.84020205    155.217753    0.00000    0.56689   -0.51784    9    diag
   15      0.142D-08      0.361D-09      -129.84020205    155.217753    0.00000    0.56689   -0.51784    9    diag
   16      0.317D-09      0.105D-09      -129.84020205    155.217753    0.00000    0.56689   -0.51784    9    diag
   17      0.699D-10      0.281D-10      -129.84020205    155.217753    0.00000    0.56689   -0.51784    9    diag
   18      0.212D-10      0.932D-11      -129.84020205    155.217753    0.00000    0.56689   -0.51784    9    diag
   19      0.860D-11      0.227D-11      -129.84020205    155.217753    0.00000    0.56689   -0.51784    9    fixocc
   20      0.204D-11      0.564D-12      -129.84020205    155.217753    0.00000    0.56689   -0.51784    9    orth
   21      0.402D-12      0.760D-12      -129.84020205    155.217753    0.00000    0.56689   -0.51784    9    diag
   22      0.722D-13      0.422D-12      -129.84020205    155.217753    0.00000    0.56689   -0.51784    0    orth

 Final occupancy:   7   1

 !RHF STATE 1.1 Energy               -129.840202052464
 Nuclear energy                        30.40449615
 One-electron energy                 -237.85357471
 Two-electron energy                   77.60887651
 Virial quotient                       -1.00151771
 !RHF STATE 1.1 Dipole moment           0.00000000     0.56689230    -0.51784280
 Dipole moment /Debye                   0.00000000     1.44080213    -1.31613890

 Orbital energies:

         1.1          2.1          3.1          4.1          5.1          6.1          7.1          8.1          9.1
    -20.651154   -15.709185    -1.528104    -0.995636    -0.746313    -0.664323    -0.429119     0.039737     0.193678

         1.2          2.2          3.2
     -0.594077     0.079030     0.239649

 HOMO      7.1    -0.429119 =     -11.6769eV
 LUMO      8.1     0.039737 =       1.0813eV
 LUMO-HOMO         0.468857 =      12.7582eV


 **********************************************************************************************************************************
 DATASETS  * FILE   NREC   LENGTH (MB)   RECORD NAMES
              1      19      421.28       500      610      700      900      950      970     1000      129      960     1100   
                                          VAR    BASINP    GEOM    SYMINP    ZMAT    AOBASIS   BASIS     P2S    ABASIS      S 
                                         1400     1410     1200     1210     1080     1600     1650     1300     1700   
                                           T        V       H0       H01     AOSYM     SMH    MOLCAS    ERIS     OPER   

              2       4        3.13       700     1000      520     2100   
                                         GEOM     BASIS   MCVARS     RHF  

 PROGRAMS   *        TOTAL        HF       INT
 CPU TIMES  *         9.34      5.33      3.89
 REAL TIME  *        11.74 SEC
 DISK USED  *         1.33 GB      
 **********************************************************************************************************************************


 PROGRAM * CCSD (Closed-shell coupled cluster)     Authors: C. Hampel, H.-J. Werner, 1991, M. Deegan, P.J. Knowles, 1992


 Convergence thresholds:  THRVAR = 1.00D-08  THRDEN = 1.00D-12

 CCSD(T)     terms to be evaluated (factor= 1.000)


 Number of core orbitals:           2 (   2   0 )
 Number of closed-shell orbitals:   6 (   5   1 )
 Number of external orbitals:     163 ( 107  56 )

 Molecular orbitals read from record     2100.2  Type=RHF/CANONICAL (state 1.1)

 Number of N-1 electron functions:               6
 Number of N-2 electron functions:              21
 Number of singly external CSFs:               591
 Number of doubly external CSFs:            250014
 Total number of CSFs:                      250606

 Length of J-op  integral file:               0.00 MB
 Length of K-op  integral file:               1.15 MB
 Length of 3-ext integral record:             0.00 MB

 Memory could be reduced to 19.93 Mwords without degradation in triples

 Integral transformation finished. Total CPU:   0.67 sec, npass=  1  Memory used:   5.10 MW

 Reference energy:                   -129.84020205

 MP2 singlet pair energy:              -0.28663702
 MP2 triplet pair energy:              -0.16704996
 MP2 correlation energy:               -0.45368697
 MP2 total energy:                   -130.29388903

 SCS-MP2 correlation energy:           -0.44790662   (PS=  1.200000  PT=  0.333333)
 SCS-MP2 total energy:               -130.28810867

 ITER.      SQ.NORM     CORR.ENERGY   TOTAL ENERGY   ENERGY CHANGE        DEN1      VAR(S)    VAR(P)  DIIS     TIME  TIME/IT
   1      1.11846178    -0.45584904  -130.29605109    -0.00216207     0.01450828  0.32D-02  0.31D-02  1  1     1.24     0.62
   2      1.12891776    -0.45577389  -130.29597594     0.00007515    -0.01245321  0.12D-03  0.49D-03  2  2     1.83     0.64
   3      1.13541928    -0.45614013  -130.29634218    -0.00036624    -0.00334475  0.43D-04  0.57D-04  3  3     2.45     0.65
   4      1.13826721    -0.45617319  -130.29637525    -0.00003307    -0.00093740  0.42D-05  0.96D-05  4  4     3.04     0.65
   5      1.13933137    -0.45620471  -130.29640676    -0.00003151    -0.00021777  0.13D-05  0.18D-05  5  5     3.64     0.65
   6      1.13972320    -0.45618918  -130.29639124     0.00001552    -0.00006499  0.11D-06  0.43D-06  6  6     4.22     0.65
   7      1.13979483    -0.45619084  -130.29639289    -0.00000165     0.00000858  0.15D-07  0.95D-07  6  1     4.81     0.65
   8      1.13982904    -0.45619046  -130.29639251     0.00000038    -0.00000457  0.51D-08  0.14D-07  6  2     5.41     0.65
   9      1.13983406    -0.45619037  -130.29639242     0.00000009     0.00000097  0.22D-08  0.16D-08  6  3     5.99     0.65
  10      1.13983443    -0.45619069  -130.29639274    -0.00000032    -0.00000025  0.50D-09  0.25D-09  6  4     6.56     0.65
  11      1.13983293    -0.45619082  -130.29639288    -0.00000014     0.00000034  0.12D-09  0.25D-10  6  5     7.15     0.66
  12      1.13983180    -0.45619097  -130.29639302    -0.00000015     0.00000046  0.15D-10  0.73D-11  6  6     7.72     0.66
  13      1.13983116    -0.45619099  -130.29639304    -0.00000002     0.00000012  0.56D-11  0.13D-11  6  1     8.33     0.66
  14      1.13983066    -0.45619102  -130.29639307    -0.00000003     0.00000011  0.53D-12  0.43D-12  6  3     8.92     0.66
  15      1.13983051    -0.45619102  -130.29639307     0.00000000     0.00000001  0.13D-12  0.30D-13  6  2     9.46     0.66
  16      1.13983046    -0.45619102  -130.29639307    -0.00000000     0.00000001  0.30D-13  0.72D-14  6  4    10.04     0.66
  17      1.13983044    -0.45619102  -130.29639307    -0.00000000     0.00000001  0.39D-14  0.11D-14  6  5    10.65     0.66
  18      1.13983044    -0.45619102  -130.29639307     0.00000000     0.00000000  0.45D-15  0.30D-15  6  6    11.24     0.66
  19      1.13983044    -0.45619102  -130.29639307     0.00000000    -0.00000000  0.59D-16  0.38D-16  6  1    11.83     0.66
  20      1.13983044    -0.45619102  -130.29639307     0.00000000    -0.00000000  0.29D-17  0.90D-17  6  3    12.45     0.66
  21      1.13983045    -0.45619102  -130.29639307     0.00000000    -0.00000000  0.49D-18  0.19D-17  6  4    13.02     0.66
  22      1.13983045    -0.45619102  -130.29639307     0.00000000    -0.00000000  0.21D-19  0.67D-18  6  2    13.63     0.66
  23      1.13983045    -0.45619102  -130.29639307    -0.00000000     0.00000000  0.30D-19  0.12D-18  6  4    14.20     0.66
  24      1.13983045    -0.45619102  -130.29639307     0.00000000    -0.00000000  0.30D-20  0.59D-20  6  5    14.82     0.66
  25      1.13983045    -0.45619102  -130.29639307    -0.00000000     0.00000000  0.40D-21  0.49D-21  6  6    15.44     0.66
  26      1.13983045    -0.45619102  -130.29639307     0.00000000    -0.00000000  0.16D-21  0.59D-22  6  1    16.08     0.66
  27      1.13983045    -0.45619102  -130.29639307     0.00000000    -0.00000000  0.62D-22  0.17D-22  6  3    16.66     0.66

 Norm of t1 vector:      0.07677951      S-energy:    -0.00000000      T1 diagnostic:  0.01567255
                                                                       D1 diagnostic:  0.04297193

 Doubles amplitudes (print threshold =  0.500E-01):

         I         J         SYM. A    SYM. B    A         B      T(IJ, AB)

         6         6         2         2         1         1     -0.13544553


 Total CPU time for triples:      6.56 sec


 RESULTS
 =======

  Reference energy                   -129.840202052463
  CCSD singlet pair energy             -0.313251842114
  CCSD triplet pair energy             -0.142939177095
  CCSD correlation energy              -0.456191019209

  Triples (T) contribution             -0.021131510218
  Total correlation energy             -0.477322529427

  CCSD total energy                  -130.296393071672
  CCSD[T] energy                     -130.318610448003
  CCSD-T energy                      -130.317114402537
 !CCSD(T) total energy               -130.317524581890

 Timing summary (sec):

 STEP                 CPU(USER)    SYS     CPU(TOT)    WALL
 Transformation          0.68      0.12      0.80      0.81
 CCSD iterations        15.99      1.97     17.96     17.96
 Triples                 6.56      0.24      6.80      6.81

 Program statistics:

 Available memory in ccsd:               994999756
 Min. memory needed in ccsd:                887758
 Max. memory used in ccsd:                 1088212
 Max. memory used in cckext:               1535578 (27 integral passes)



 **********************************************************************************************************************************
 DATASETS  * FILE   NREC   LENGTH (MB)   RECORD NAMES
              1      20      479.24       500      610      700      900      950      970     1000      129      960     1100   
                                          VAR    BASINP    GEOM    SYMINP    ZMAT    AOBASIS   BASIS     P2S    ABASIS      S 
                                         1400     1410     1200     1210     1080     1600     1650     1300     1700     1380   
                                           T        V       H0       H01     AOSYM     SMH    MOLCAS    ERIS     OPER     JKOP   

              2       4        3.13       700     1000      520     2100   
                                         GEOM     BASIS   MCVARS     RHF  

 PROGRAMS   *        TOTAL   CCSD(T)        HF       INT
 CPU TIMES  *        32.61     23.27      5.33      3.89
 REAL TIME  *        37.98 SEC
 DISK USED  *         1.33 GB      
 **********************************************************************************************************************************

 CCSD(T)/USERDEF energy=   -130.317524581890

        CCSD(T)         HF-SCF  
   -130.31752458   -129.84020205
 **********************************************************************************************************************************
 Molpro calculation terminated
 Variable memory released
