
 Primary working directories    : /tmp/r2666/282294.maple
 Secondary working directories  : /tmp/r2666/282294.maple
 Wavefunction directory         : /ddn/home4/r2666/wfu/
 Main file repository           : /tmp/r2666/282294.maple/

 SHA1      : d5ffa45e93fdbca01ffc919aa182cfdae0147319
 NAME      : 2015.1.35
 ARCHNAME  : linux/x86_64
 FC        : /opt/intel/composer_xe_2015.1.133/bin/intel64/ifort
 BLASLIB   : -Wl,-_start-group /opt/intel/mkl/lib/intel64/libmkl_intel_ilp64.a /opt/intel/mkl/lib/intel64/libmkl_intel_thread.a /opt/intel/mkl/lib/intel64/libmkl_core.a -Wl,-_end-group
 id        : olemiss

 Nodes     nprocs
 cn080        1

 Using customized tuning parameters: mindgm=1; mindgv=20; mindgc=4; mindgr=1; noblas=0; minvec=7
 default implementation of scratch files=df  

 ***,hno CCSD(T)/TZ-F12 QFF
 memory, 995, m;
 gthresh,energy=1.d-12,zero=1.d-22,oneint=1.d-22,twoint=1.d-22;
 gthresh,optgrad=1.d-8,optstep=1.d-8;
 nocompress;
 geomtyp=xyz
 bohr
 geometry={
 3
         62        62
 H        0.0000000000        1.6659332095       -1.9148985554
 N        0.0000000000       -0.1707203083       -1.1539308327
 O        0.0000000000        0.0465548888        1.1182397970
 }
 
 basis={
 default=aug-cc-pvtz
 s,C,8236.0,1235.0,280.8, 79.27,25.59, 8.997,3.319
 s,C,0.9059,0.3643,0.1285000
 p,C,56.0,18.71,4.133,0.2827,0.3827,0.1209
 d,C,30.0,10.0,3.3,1.097,0.318
 f,C,7.0,2.3,0.7610
 s,N,11420.0,1712.0,389.3,110.0,35.57,12.54,4.644
 s,N,1.293,0.5118,0.1787
 p,N,79.89,26.63,5.948,1.742,0.555,0.1725
 d,N,45.0,15.0,5.0,1.654,0.469
 f,N,9.9,3.3,1.093
 s,O,15330.0,2299.0,522.4,147.3,47.55,16.76,6.207
 s,O,1.752,0.6882,0.2384
 p,O,103.5,34.46,7.749,2.28,0.7156,0.214
 d,O,63.0,21.0,7.0,2.314,0.645
 f,O,12.9,4.3,1.428
 s,mg,164900.0,24710.0,5628.0,1596.0,521.0;
 s,mg,188.0,73.01,29.90,12.54,4.306,1.826;
 s,mg,0.7417,0.0761,0.145,0.033,0.0129;
 p,mg,950.70,316.90,74.86,23.72,8.669,3.363;
 p,mg,1.310,0.4911,0.2364,0.08733,0.03237,0.00745;
 d,mg,1.601,0.686,0.126,0.294,0.0468;
 f,mg,1.372,0.588,0.094,0.252;
 }
   {hf,maxit=500;accu,20;}
 {ccsd(t),nocheck,maxit=250;orbital,IGNORE_ERROR;}

 Variables initialized (889), CPU time= 0.01 sec
 Commands  initialized (702), CPU time= 0.01 sec, 572 directives.
 Default parameters read. Elapsed time= 0.04 sec

 Checking input...
 Passed
1


                                         ***  PROGRAM SYSTEM MOLPRO  ***
                                       Copyright, TTI GmbH Stuttgart, 2015
                                    Version 2015.1 linked Jul  9 2018 13:16:40


 **********************************************************************************************************************************
 LABEL *   hno CCSD(T)/TZ-F12 QFF                                                        
  64 bit serial version                                                                  DATE: 04-Mar-20          TIME: 13:47:35  
 **********************************************************************************************************************************

 SHA1:             d5ffa45e93fdbca01ffc919aa182cfdae0147319
 **********************************************************************************************************************************

 THRESHOLDS:

 ZERO    =  1.00D-22  ONEINT  =  1.00D-22  TWOINT  =  1.00D-22  PREFAC  =  1.00D-14  LOCALI  =  1.00D-09  EORDER  =  1.00D-04
 ENERGY  =  1.00D-12  ETEST   =  0.00D+00  EDENS   =  0.00D+00  THRDEDEF=  1.00D-06  GRADIENT=  1.00D-02  STEP    =  1.00D-03
 ORBITAL =  1.00D-05  CIVEC   =  1.00D-05  COEFF   =  1.00D-04  PRINTCI =  5.00D-02  PUNCHCI =  9.90D+01  OPTGRAD =  3.00D-04
 OPTENERG=  1.00D-06  OPTSTEP =  3.00D-04  THRGRAD =  1.00D-10  COMPRESS=  1.00D-11  VARMIN  =  1.00D-07  VARMAX  =  1.00D-03
 THRDOUB =  0.00D+00  THRDIV  =  1.00D-05  THRRED  =  1.00D-07  THRPSP  =  1.00D+00  THRDC   =  1.00D-10  THRCS   =  1.00D-10
 THRNRM  =  1.00D-08  THREQ   =  0.00D+00  THRDE   =  1.00D+00  THRREF  =  1.00D-05  SPARFAC =  1.00D+00  THRDLP  =  1.00D-07
 THRDIA  =  1.00D-10  THRDLS  =  1.00D-07  THRGPS  =  0.00D+00  THRKEX  =  0.00D+00  THRDIS  =  2.00D-01  THRVAR  =  1.00D-10
 THRLOC  =  1.00D-06  THRGAP  =  1.00D-06  THRLOCT = -1.00D+00  THRGAPT = -1.00D+00  THRORB  =  1.00D-06  THRMLTP =  0.00D+00
 THRCPQCI=  1.00D-10  KEXTA   =  0.00D+00  THRCOARS=  0.00D+00  SYMTOL  =  1.00D-06  GRADTOL =  1.00D-06  THROVL  =  1.00D-08
 THRORTH =  1.00D-08  GRID    =  1.00D-06  GRIDMAX =  1.00D-03  DTMAX   =  0.00D+00  THROCCDE=  1.00D-01  THROCCDE=  1.00D-01



 THRESHOLDS:

 ZERO    =  1.00D-22  ONEINT  =  1.00D-22  TWOINT  =  1.00D-22  PREFAC  =  1.00D-14  LOCALI  =  1.00D-09  EORDER  =  1.00D-04
 ENERGY  =  1.00D-12  ETEST   =  0.00D+00  EDENS   =  0.00D+00  THRDEDEF=  1.00D-06  GRADIENT=  1.00D-02  STEP    =  1.00D-03
 ORBITAL =  1.00D-05  CIVEC   =  1.00D-05  COEFF   =  1.00D-04  PRINTCI =  5.00D-02  PUNCHCI =  9.90D+01  OPTGRAD =  1.00D-08
 OPTENERG=  1.00D-06  OPTSTEP =  1.00D-08  THRGRAD =  1.00D-10  COMPRESS=  1.00D-11  VARMIN  =  1.00D-07  VARMAX  =  1.00D-03
 THRDOUB =  0.00D+00  THRDIV  =  1.00D-05  THRRED  =  1.00D-07  THRPSP  =  1.00D+00  THRDC   =  1.00D-10  THRCS   =  1.00D-10
 THRNRM  =  1.00D-08  THREQ   =  0.00D+00  THRDE   =  1.00D+00  THRREF  =  1.00D-05  SPARFAC =  1.00D+00  THRDLP  =  1.00D-07
 THRDIA  =  1.00D-10  THRDLS  =  1.00D-07  THRGPS  =  0.00D+00  THRKEX  =  0.00D+00  THRDIS  =  2.00D-01  THRVAR  =  1.00D-10
 THRLOC  =  1.00D-06  THRGAP  =  1.00D-06  THRLOCT = -1.00D+00  THRGAPT = -1.00D+00  THRORB  =  1.00D-06  THRMLTP =  0.00D+00
 THRCPQCI=  1.00D-10  KEXTA   =  0.00D+00  THRCOARS=  0.00D+00  SYMTOL  =  1.00D-06  GRADTOL =  1.00D-06  THROVL  =  1.00D-08
 THRORTH =  1.00D-08  GRID    =  1.00D-06  GRIDMAX =  1.00D-03  DTMAX   =  0.00D+00  THROCCDE=  1.00D-01  THROCCDE=  1.00D-01



 Input parameters for SORTINT:

 COMPRESS =    0.000000
 C_FINAL  =    1.000000
 DEBUG    =   -1.000000
 C_SORT1  =    0.000000
 C_SEWARD =    0.000000
 THRESH   =    0.000000
 IO       =  molpro                                                          
 SPRI     =    0.000000
 SETTING GEOMTYP        =    XYZ
 ZUNIT=BOHR
 

 Variable memory set to  995000000 words,  buffer space   230000 words

 SETTING BASIS          =    USERDEF


 Recomputing integrals since basis changed


 Using spherical harmonics

 Library entry H      S aug-cc-pVTZ          selected for orbital group  1
 Library entry H      P aug-cc-pVTZ          selected for orbital group  1
 Library entry H      D aug-cc-pVTZ          selected for orbital group  1


 PROGRAM * SEWARD (Integral evaluation for generally contracted gaussian basis sets)     Author: Roland Lindh, 1990

 Geometry written to block  1 of record 700


 Point group  Cs  



 ATOMIC COORDINATES

 NR  ATOM    CHARGE       X              Y              Z

   1  H       1.00    0.000000000    1.665933209   -1.914898555
   2  N       7.00    0.000000000   -0.170720308   -1.153930833
   3  O       8.00    0.000000000    0.046554889    1.118239797

 Bond lengths in Bohr (Angstrom)

 1-2  1.988056342  2-3  2.282535406
     ( 1.052034110)     ( 1.207865720)

 Bond angles

  1-2-3  107.04307790

 NUCLEAR CHARGE:                   16
 NUMBER OF PRIMITIVE AOS:         203
 NUMBER OF SYMMETRY AOS:          173
 NUMBER OF CONTRACTIONS:          171   ( 114A'  +  57A"  )
 NUMBER OF CORE ORBITALS:           2   (   2A'  +   0A"  )
 NUMBER OF VALENCE ORBITALS:        9   (   7A'  +   2A"  )


 NUCLEAR REPULSION ENERGY   30.38183917


 Eigenvalues of metric

         1 0.105E-02 0.249E-02 0.332E-02 0.635E-02 0.986E-02 0.137E-01 0.145E-01 0.230E-01
         2 0.365E-01 0.532E-01 0.703E-01 0.940E-01 0.131E+00 0.134E+00 0.140E+00 0.142E+00


 Contracted 2-electron integrals neglected if value below      1.0D-22

       46155401. INTEGRALS WRITTEN OUT IN   11272 BLOCKS ON RECORD 1290 OF FILE 1


 NUMBER OF SORTED TWO-ELECTRON INTEGRALS:   55360566.     BUFFER LENGTH:  32768
 NUMBER OF SEGMENTS:   4  SEGMENT LENGTH:   15997996      RECORD LENGTH: 524288

 Memory used in sort:      16.56 MW

 SORT1 READ    46155401. AND WROTE    46592931. INTEGRALS IN    136 RECORDS. CPU TIME:     0.82 SEC, REAL TIME:     1.06 SEC
 SORT2 READ    46592931. AND WROTE    55360566. INTEGRALS IN      4 RECORDS. CPU TIME:     0.65 SEC, REAL TIME:     0.89 SEC

 FILE SIZES:   FILE 1:   759.5 MBYTE,  FILE 4:   570.5 MBYTE,   TOTAL:   1329.9 MBYTE

 OPERATOR DM      FOR CENTER  0  COORDINATES:    0.000000    0.000000    0.000000


 **********************************************************************************************************************************
 DATASETS  * FILE   NREC   LENGTH (MB)   RECORD NAMES
              1      19      421.32       500      610      700      900      950      970     1000      129      960     1100   
                                          VAR    BASINP    GEOM    SYMINP    ZMAT    AOBASIS   BASIS     P2S    ABASIS      S 
                                         1400     1410     1200     1210     1080     1600     1650     1300     1700   
                                           T        V       H0       H01     AOSYM     SMH    MOLCAS    ERIS     OPER   

 PROGRAMS   *        TOTAL       INT
 CPU TIMES  *         4.31      4.22
 REAL TIME  *         5.65 SEC
 DISK USED  *         1.33 GB      
 **********************************************************************************************************************************


 PROGRAM * RHF-SCF (CLOSED SHELL)       Authors: W. Meyer, H.-J. Werner


 NUMBER OF ELECTRONS:       8+    8-
 CONVERGENCE THRESHOLDS:    1.00E-10 (Density)    1.00E-13 (Energy)
 MAX. NUMBER OF ITERATIONS:      500
 INTERPOLATION TYPE:            DIIS
 INTERPOLATION STEPS:              2 (START)      1 (STEP)
 LEVEL SHIFTS:                  0.00 (CLOSED)  0.00 (OPEN) 



 Orbital guess generated from atomic densities. Full valence occupancy:    9   2

 Molecular orbital dump at record        2100.2

 Initial occupancy:   7   1

 ITERATION    DDIFF          GRAD             ENERGY        2-EL.EN.            DIPOLE MOMENTS         DIIS   ORB.
    1      0.000D+00      0.000D+00      -129.78912255    154.089329    0.00000    0.55957   -1.01066    0    start
    2      0.000D+00      0.879D-02      -129.81606333    155.258526    0.00000    0.59803   -0.19157    1    diag
    3      0.364D-02      0.669D-02      -129.83892362    155.380262    0.00000    0.54182   -0.57902    2    diag
    4      0.142D-02      0.103D-02      -129.83970383    155.106286    0.00000    0.55048   -0.51700    3    diag
    5      0.330D-03      0.338D-03      -129.83982458    155.194005    0.00000    0.55640   -0.51933    4    diag
    6      0.153D-03      0.993D-04      -129.83984433    155.177885    0.00000    0.55695   -0.51520    5    diag
    7      0.607D-04      0.498D-04      -129.83985015    155.180428    0.00000    0.55828   -0.51267    6    diag
    8      0.412D-04      0.170D-04      -129.83985078    155.179593    0.00000    0.55833   -0.51176    7    diag
    9      0.143D-04      0.316D-05      -129.83985081    155.179481    0.00000    0.55828   -0.51158    8    diag
   10      0.290D-05      0.714D-06      -129.83985081    155.179468    0.00000    0.55825   -0.51156    9    orth
   11      0.858D-06      0.142D-06      -129.83985081    155.179464    0.00000    0.55824   -0.51155    9    diag
   12      0.204D-06      0.298D-07      -129.83985081    155.179463    0.00000    0.55824   -0.51155    9    diag
   13      0.503D-07      0.788D-08      -129.83985081    155.179463    0.00000    0.55823   -0.51155    9    diag
   14      0.115D-07      0.139D-08      -129.83985081    155.179463    0.00000    0.55823   -0.51155    9    diag
   15      0.147D-08      0.374D-09      -129.83985081    155.179463    0.00000    0.55823   -0.51155    9    diag
   16      0.328D-09      0.111D-09      -129.83985081    155.179463    0.00000    0.55823   -0.51155    9    diag
   17      0.787D-10      0.314D-10      -129.83985081    155.179463    0.00000    0.55823   -0.51155    9    diag
   18      0.247D-10      0.105D-10      -129.83985081    155.179463    0.00000    0.55823   -0.51155    0    orth

 Final occupancy:   7   1

 !RHF STATE 1.1 Energy               -129.839850807333
 Nuclear energy                        30.38183917
 One-electron energy                 -237.81142149
 Two-electron energy                   77.58973152
 Virial quotient                       -1.00159673
 !RHF STATE 1.1 Dipole moment           0.00000000     0.55823496    -0.51154984
 Dipole moment /Debye                   0.00000000     1.41879881    -1.30014485

 Orbital energies:

         1.1          2.1          3.1          4.1          5.1          6.1          7.1          8.1          9.1
    -20.650998   -15.710804    -1.528734    -0.992190    -0.745310    -0.664046    -0.429478     0.039828     0.192887

         1.2          2.2          3.2
     -0.594419     0.079396     0.239427

 HOMO      7.1    -0.429478 =     -11.6867eV
 LUMO      8.1     0.039828 =       1.0838eV
 LUMO-HOMO         0.469305 =      12.7704eV


 **********************************************************************************************************************************
 DATASETS  * FILE   NREC   LENGTH (MB)   RECORD NAMES
              1      19      421.32       500      610      700      900      950      970     1000      129      960     1100   
                                          VAR    BASINP    GEOM    SYMINP    ZMAT    AOBASIS   BASIS     P2S    ABASIS      S 
                                         1400     1410     1200     1210     1080     1600     1650     1300     1700   
                                           T        V       H0       H01     AOSYM     SMH    MOLCAS    ERIS     OPER   

              2       4        3.13       700     1000      520     2100   
                                         GEOM     BASIS   MCVARS     RHF  

 PROGRAMS   *        TOTAL        HF       INT
 CPU TIMES  *         8.91      4.60      4.22
 REAL TIME  *        11.26 SEC
 DISK USED  *         1.33 GB      
 **********************************************************************************************************************************


 PROGRAM * CCSD (Closed-shell coupled cluster)     Authors: C. Hampel, H.-J. Werner, 1991, M. Deegan, P.J. Knowles, 1992


 Convergence thresholds:  THRVAR = 1.00D-08  THRDEN = 1.00D-12

 CCSD(T)     terms to be evaluated (factor= 1.000)


 Number of core orbitals:           2 (   2   0 )
 Number of closed-shell orbitals:   6 (   5   1 )
 Number of external orbitals:     163 ( 107  56 )

 Molecular orbitals read from record     2100.2  Type=RHF/CANONICAL (state 1.1)

 Number of N-1 electron functions:               6
 Number of N-2 electron functions:              21
 Number of singly external CSFs:               591
 Number of doubly external CSFs:            250014
 Total number of CSFs:                      250606

 Length of J-op  integral file:               0.00 MB
 Length of K-op  integral file:               1.15 MB
 Length of 3-ext integral record:             0.00 MB

 Memory could be reduced to 19.93 Mwords without degradation in triples

 Integral transformation finished. Total CPU:   0.72 sec, npass=  1  Memory used:   5.10 MW

 Reference energy:                   -129.83985081

 MP2 singlet pair energy:              -0.28686514
 MP2 triplet pair energy:              -0.16718449
 MP2 correlation energy:               -0.45404963
 MP2 total energy:                   -130.29390044

 SCS-MP2 correlation energy:           -0.44826408   (PS=  1.200000  PT=  0.333333)
 SCS-MP2 total energy:               -130.28811488

 ITER.      SQ.NORM     CORR.ENERGY   TOTAL ENERGY   ENERGY CHANGE        DEN1      VAR(S)    VAR(P)  DIIS     TIME  TIME/IT
   1      1.11876250    -0.45618532  -130.29603613    -0.00213569     0.01459417  0.32D-02  0.31D-02  1  1     1.32     0.67
   2      1.12925873    -0.45610909  -130.29595990     0.00007623    -0.01249229  0.12D-03  0.49D-03  2  2     1.97     0.68
   3      1.13579272    -0.45647842  -130.29632923    -0.00036933    -0.00336403  0.43D-04  0.57D-04  3  3     2.61     0.69
   4      1.13864137    -0.45651107  -130.29636187    -0.00003264    -0.00094027  0.43D-05  0.95D-05  4  4     3.25     0.69
   5      1.13970272    -0.45654294  -130.29639375    -0.00003188    -0.00021794  0.13D-05  0.17D-05  5  5     3.88     0.69
   6      1.14009101    -0.45652742  -130.29637823     0.00001552    -0.00006470  0.12D-06  0.41D-06  6  6     4.52     0.70
   7      1.14016162    -0.45652891  -130.29637972    -0.00000149     0.00000851  0.17D-07  0.90D-07  6  1     5.16     0.70
   8      1.14019562    -0.45652846  -130.29637927     0.00000045    -0.00000457  0.47D-08  0.14D-07  6  2     5.77     0.70
   9      1.14020066    -0.45652836  -130.29637917     0.00000010     0.00000099  0.20D-08  0.16D-08  6  3     6.37     0.70
  10      1.14020111    -0.45652868  -130.29637948    -0.00000031    -0.00000026  0.46D-09  0.24D-09  6  4     6.98     0.70
  11      1.14019964    -0.45652881  -130.29637962    -0.00000013     0.00000034  0.11D-09  0.24D-10  6  5     7.58     0.70
  12      1.14019854    -0.45652895  -130.29637976    -0.00000014     0.00000045  0.14D-10  0.70D-11  6  6     8.20     0.70
  13      1.14019791    -0.45652897  -130.29637978    -0.00000002     0.00000012  0.54D-11  0.13D-11  6  1     8.85     0.70
  14      1.14019743    -0.45652900  -130.29637980    -0.00000003     0.00000011  0.51D-12  0.40D-12  6  3     9.47     0.70
  15      1.14019728    -0.45652900  -130.29637980     0.00000000     0.00000001  0.13D-12  0.29D-13  6  2    10.11     0.70
  16      1.14019723    -0.45652900  -130.29637981    -0.00000000     0.00000001  0.30D-13  0.70D-14  6  4    10.75     0.70
  17      1.14019721    -0.45652900  -130.29637981    -0.00000000     0.00000001  0.39D-14  0.11D-14  6  5    11.36     0.70
  18      1.14019721    -0.45652900  -130.29637981     0.00000000     0.00000000  0.43D-15  0.31D-15  6  6    12.01     0.70
  19      1.14019721    -0.45652900  -130.29637981     0.00000000    -0.00000000  0.57D-16  0.39D-16  6  1    12.66     0.70
  20      1.14019721    -0.45652900  -130.29637981     0.00000000    -0.00000000  0.29D-17  0.94D-17  6  3    13.31     0.70
  21      1.14019722    -0.45652900  -130.29637981     0.00000000    -0.00000000  0.47D-18  0.20D-17  6  4    13.94     0.70
  22      1.14019722    -0.45652900  -130.29637981     0.00000000    -0.00000000  0.15D-19  0.71D-18  6  2    14.56     0.70
  23      1.14019722    -0.45652900  -130.29637981    -0.00000000     0.00000000  0.28D-19  0.12D-18  6  4    15.21     0.70
  24      1.14019722    -0.45652900  -130.29637981     0.00000000    -0.00000000  0.30D-20  0.59D-20  6  5    15.87     0.70
  25      1.14019722    -0.45652900  -130.29637981    -0.00000000     0.00000000  0.31D-21  0.50D-21  6  6    16.50     0.70
  26      1.14019722    -0.45652900  -130.29637981     0.00000000    -0.00000000  0.13D-21  0.56D-22  6  1    17.12     0.70
  27      1.14019722    -0.45652900  -130.29637981    -0.00000000    -0.00000000  0.50D-22  0.16D-22  6  3    17.73     0.70

 Norm of t1 vector:      0.07683899      S-energy:     0.00000000      T1 diagnostic:  0.01568469
                                                                       D1 diagnostic:  0.04286828

 Doubles amplitudes (print threshold =  0.500E-01):

         I         J         SYM. A    SYM. B    A         B      T(IJ, AB)

         6         6         2         2         1         1     -0.13555830


 Total CPU time for triples:      8.17 sec


 RESULTS
 =======

  Reference energy                   -129.839850807333
  CCSD singlet pair energy             -0.313536534551
  CCSD triplet pair energy             -0.142992464619
  CCSD correlation energy              -0.456528999169

  Triples (T) contribution             -0.021184499927
  Total correlation energy             -0.477713499096

  CCSD total energy                  -130.296379806502
  CCSD[T] energy                     -130.318653043213
  CCSD-T energy                      -130.317152087756
 !CCSD(T) total energy               -130.317564306430

 Timing summary (sec):

 STEP                 CPU(USER)    SYS     CPU(TOT)    WALL
 Transformation          0.73      0.12      0.85      0.86
 CCSD iterations        17.01      2.05     19.06     19.04
 Triples                 8.17      0.27      8.44      8.45

 Program statistics:

 Available memory in ccsd:               994999756
 Min. memory needed in ccsd:                887758
 Max. memory used in ccsd:                 1088212
 Max. memory used in cckext:               1535578 (27 integral passes)



 **********************************************************************************************************************************
 DATASETS  * FILE   NREC   LENGTH (MB)   RECORD NAMES
              1      20      479.27       500      610      700      900      950      970     1000      129      960     1100   
                                          VAR    BASINP    GEOM    SYMINP    ZMAT    AOBASIS   BASIS     P2S    ABASIS      S 
                                         1400     1410     1200     1210     1080     1600     1650     1300     1700     1380   
                                           T        V       H0       H01     AOSYM     SMH    MOLCAS    ERIS     OPER     JKOP   

              2       4        3.13       700     1000      520     2100   
                                         GEOM     BASIS   MCVARS     RHF  

 PROGRAMS   *        TOTAL   CCSD(T)        HF       INT
 CPU TIMES  *        34.86     25.94      4.60      4.22
 REAL TIME  *        39.77 SEC
 DISK USED  *         1.33 GB      
 **********************************************************************************************************************************

 CCSD(T)/USERDEF energy=   -130.317564306430

        CCSD(T)         HF-SCF  
   -130.31756431   -129.83985081
 **********************************************************************************************************************************
 Molpro calculation terminated
 Variable memory released
