
 Primary working directories    : /tmp/r2666/282243.maple
 Secondary working directories  : /tmp/r2666/282243.maple
 Wavefunction directory         : /ddn/home4/r2666/wfu/
 Main file repository           : /tmp/r2666/282243.maple/

 SHA1      : d5ffa45e93fdbca01ffc919aa182cfdae0147319
 NAME      : 2015.1.35
 ARCHNAME  : linux/x86_64
 FC        : /opt/intel/composer_xe_2015.1.133/bin/intel64/ifort
 BLASLIB   : -Wl,-_start-group /opt/intel/mkl/lib/intel64/libmkl_intel_ilp64.a /opt/intel/mkl/lib/intel64/libmkl_intel_thread.a /opt/intel/mkl/lib/intel64/libmkl_core.a -Wl,-_end-group
 id        : olemiss

 Nodes     nprocs
 cn045        1

 Using customized tuning parameters: mindgm=1; mindgv=20; mindgc=4; mindgr=1; noblas=0; minvec=7
 default implementation of scratch files=df  

 ***,hno CCSD(T)/TZ-F12 QFF
 memory, 995, m;
 gthresh,energy=1.d-12,zero=1.d-22,oneint=1.d-22,twoint=1.d-22;
 gthresh,optgrad=1.d-8,optstep=1.d-8;
 nocompress;
 geomtyp=xyz
 bohr
 geometry={
 3
         11        11
 H        0.0000000000        1.6571458047       -1.9233588848
 N        0.0000000000       -0.1521770599       -1.1462242359
 O        0.0000000000        0.0367990451        1.1189935296
 }
 
 basis={
 default=aug-cc-pvtz
 s,C,8236.0,1235.0,280.8, 79.27,25.59, 8.997,3.319
 s,C,0.9059,0.3643,0.1285000
 p,C,56.0,18.71,4.133,0.2827,0.3827,0.1209
 d,C,30.0,10.0,3.3,1.097,0.318
 f,C,7.0,2.3,0.7610
 s,N,11420.0,1712.0,389.3,110.0,35.57,12.54,4.644
 s,N,1.293,0.5118,0.1787
 p,N,79.89,26.63,5.948,1.742,0.555,0.1725
 d,N,45.0,15.0,5.0,1.654,0.469
 f,N,9.9,3.3,1.093
 s,O,15330.0,2299.0,522.4,147.3,47.55,16.76,6.207
 s,O,1.752,0.6882,0.2384
 p,O,103.5,34.46,7.749,2.28,0.7156,0.214
 d,O,63.0,21.0,7.0,2.314,0.645
 f,O,12.9,4.3,1.428
 s,mg,164900.0,24710.0,5628.0,1596.0,521.0;
 s,mg,188.0,73.01,29.90,12.54,4.306,1.826;
 s,mg,0.7417,0.0761,0.145,0.033,0.0129;
 p,mg,950.70,316.90,74.86,23.72,8.669,3.363;
 p,mg,1.310,0.4911,0.2364,0.08733,0.03237,0.00745;
 d,mg,1.601,0.686,0.126,0.294,0.0468;
 f,mg,1.372,0.588,0.094,0.252;
 }
   {hf,maxit=500;accu,20;}
 {ccsd(t),nocheck,maxit=250;orbital,IGNORE_ERROR;}

 Variables initialized (889), CPU time= 0.00 sec
 Commands  initialized (702), CPU time= 0.00 sec, 572 directives.
 Default parameters read. Elapsed time= 0.04 sec

 Checking input...
 Passed
1


                                         ***  PROGRAM SYSTEM MOLPRO  ***
                                       Copyright, TTI GmbH Stuttgart, 2015
                                    Version 2015.1 linked Jul  9 2018 13:16:40


 **********************************************************************************************************************************
 LABEL *   hno CCSD(T)/TZ-F12 QFF                                                        
  64 bit serial version                                                                  DATE: 04-Mar-20          TIME: 13:46:53  
 **********************************************************************************************************************************

 SHA1:             d5ffa45e93fdbca01ffc919aa182cfdae0147319
 **********************************************************************************************************************************

 THRESHOLDS:

 ZERO    =  1.00D-22  ONEINT  =  1.00D-22  TWOINT  =  1.00D-22  PREFAC  =  1.00D-14  LOCALI  =  1.00D-09  EORDER  =  1.00D-04
 ENERGY  =  1.00D-12  ETEST   =  0.00D+00  EDENS   =  0.00D+00  THRDEDEF=  1.00D-06  GRADIENT=  1.00D-02  STEP    =  1.00D-03
 ORBITAL =  1.00D-05  CIVEC   =  1.00D-05  COEFF   =  1.00D-04  PRINTCI =  5.00D-02  PUNCHCI =  9.90D+01  OPTGRAD =  3.00D-04
 OPTENERG=  1.00D-06  OPTSTEP =  3.00D-04  THRGRAD =  1.00D-10  COMPRESS=  1.00D-11  VARMIN  =  1.00D-07  VARMAX  =  1.00D-03
 THRDOUB =  0.00D+00  THRDIV  =  1.00D-05  THRRED  =  1.00D-07  THRPSP  =  1.00D+00  THRDC   =  1.00D-10  THRCS   =  1.00D-10
 THRNRM  =  1.00D-08  THREQ   =  0.00D+00  THRDE   =  1.00D+00  THRREF  =  1.00D-05  SPARFAC =  1.00D+00  THRDLP  =  1.00D-07
 THRDIA  =  1.00D-10  THRDLS  =  1.00D-07  THRGPS  =  0.00D+00  THRKEX  =  0.00D+00  THRDIS  =  2.00D-01  THRVAR  =  1.00D-10
 THRLOC  =  1.00D-06  THRGAP  =  1.00D-06  THRLOCT = -1.00D+00  THRGAPT = -1.00D+00  THRORB  =  1.00D-06  THRMLTP =  0.00D+00
 THRCPQCI=  1.00D-10  KEXTA   =  0.00D+00  THRCOARS=  0.00D+00  SYMTOL  =  1.00D-06  GRADTOL =  1.00D-06  THROVL  =  1.00D-08
 THRORTH =  1.00D-08  GRID    =  1.00D-06  GRIDMAX =  1.00D-03  DTMAX   =  0.00D+00  THROCCDE=  1.00D-01  THROCCDE=  1.00D-01



 THRESHOLDS:

 ZERO    =  1.00D-22  ONEINT  =  1.00D-22  TWOINT  =  1.00D-22  PREFAC  =  1.00D-14  LOCALI  =  1.00D-09  EORDER  =  1.00D-04
 ENERGY  =  1.00D-12  ETEST   =  0.00D+00  EDENS   =  0.00D+00  THRDEDEF=  1.00D-06  GRADIENT=  1.00D-02  STEP    =  1.00D-03
 ORBITAL =  1.00D-05  CIVEC   =  1.00D-05  COEFF   =  1.00D-04  PRINTCI =  5.00D-02  PUNCHCI =  9.90D+01  OPTGRAD =  1.00D-08
 OPTENERG=  1.00D-06  OPTSTEP =  1.00D-08  THRGRAD =  1.00D-10  COMPRESS=  1.00D-11  VARMIN  =  1.00D-07  VARMAX  =  1.00D-03
 THRDOUB =  0.00D+00  THRDIV  =  1.00D-05  THRRED  =  1.00D-07  THRPSP  =  1.00D+00  THRDC   =  1.00D-10  THRCS   =  1.00D-10
 THRNRM  =  1.00D-08  THREQ   =  0.00D+00  THRDE   =  1.00D+00  THRREF  =  1.00D-05  SPARFAC =  1.00D+00  THRDLP  =  1.00D-07
 THRDIA  =  1.00D-10  THRDLS  =  1.00D-07  THRGPS  =  0.00D+00  THRKEX  =  0.00D+00  THRDIS  =  2.00D-01  THRVAR  =  1.00D-10
 THRLOC  =  1.00D-06  THRGAP  =  1.00D-06  THRLOCT = -1.00D+00  THRGAPT = -1.00D+00  THRORB  =  1.00D-06  THRMLTP =  0.00D+00
 THRCPQCI=  1.00D-10  KEXTA   =  0.00D+00  THRCOARS=  0.00D+00  SYMTOL  =  1.00D-06  GRADTOL =  1.00D-06  THROVL  =  1.00D-08
 THRORTH =  1.00D-08  GRID    =  1.00D-06  GRIDMAX =  1.00D-03  DTMAX   =  0.00D+00  THROCCDE=  1.00D-01  THROCCDE=  1.00D-01



 Input parameters for SORTINT:

 COMPRESS =    0.000000
 C_FINAL  =    1.000000
 DEBUG    =   -1.000000
 C_SORT1  =    0.000000
 C_SEWARD =    0.000000
 THRESH   =    0.000000
 IO       =  molpro                                                          
 SPRI     =    0.000000
 SETTING GEOMTYP        =    XYZ
 ZUNIT=BOHR
 

 Variable memory set to  995000000 words,  buffer space   230000 words

 SETTING BASIS          =    USERDEF


 Recomputing integrals since basis changed


 Using spherical harmonics

 Library entry H      S aug-cc-pVTZ          selected for orbital group  1
 Library entry H      P aug-cc-pVTZ          selected for orbital group  1
 Library entry H      D aug-cc-pVTZ          selected for orbital group  1


 PROGRAM * SEWARD (Integral evaluation for generally contracted gaussian basis sets)     Author: Roland Lindh, 1990

 Geometry written to block  1 of record 700


 Point group  Cs  



 ATOMIC COORDINATES

 NR  ATOM    CHARGE       X              Y              Z

   1  H       1.00    0.000000000    1.657145805   -1.923358885
   2  N       7.00    0.000000000   -0.152177060   -1.146224236
   3  O       8.00    0.000000000    0.036799045    1.118993530

 Bond lengths in Bohr (Angstrom)

 1-2  1.969159082  2-3  2.273086776
     ( 1.042034111)     ( 1.202865721)

 Bond angles

  1-2-3  108.47547239

 NUCLEAR CHARGE:                   16
 NUMBER OF PRIMITIVE AOS:         203
 NUMBER OF SYMMETRY AOS:          173
 NUMBER OF CONTRACTIONS:          171   ( 114A'  +  57A"  )
 NUMBER OF CORE ORBITALS:           2   (   2A'  +   0A"  )
 NUMBER OF VALENCE ORBITALS:        9   (   7A'  +   2A"  )


 NUCLEAR REPULSION ENERGY   30.51181548


 Eigenvalues of metric

         1 0.101E-02 0.244E-02 0.327E-02 0.626E-02 0.952E-02 0.136E-01 0.144E-01 0.225E-01
         2 0.351E-01 0.523E-01 0.688E-01 0.940E-01 0.131E+00 0.134E+00 0.139E+00 0.142E+00


 Contracted 2-electron integrals neglected if value below      1.0D-22

       46185779. INTEGRALS WRITTEN OUT IN   11279 BLOCKS ON RECORD 1290 OF FILE 1


 NUMBER OF SORTED TWO-ELECTRON INTEGRALS:   55360566.     BUFFER LENGTH:  32768
 NUMBER OF SEGMENTS:   4  SEGMENT LENGTH:   15997996      RECORD LENGTH: 524288

 Memory used in sort:      16.56 MW

 SORT1 READ    46185779. AND WROTE    46623665. INTEGRALS IN    136 RECORDS. CPU TIME:     1.32 SEC, REAL TIME:     1.69 SEC
 SORT2 READ    46623665. AND WROTE    55360566. INTEGRALS IN      4 RECORDS. CPU TIME:     0.76 SEC, REAL TIME:     1.05 SEC

 FILE SIZES:   FILE 1:   759.9 MBYTE,  FILE 4:   570.5 MBYTE,   TOTAL:   1330.4 MBYTE

 OPERATOR DM      FOR CENTER  0  COORDINATES:    0.000000    0.000000    0.000000


 **********************************************************************************************************************************
 DATASETS  * FILE   NREC   LENGTH (MB)   RECORD NAMES
              1      19      421.51       500      610      700      900      950      970     1000      129      960     1100   
                                          VAR    BASINP    GEOM    SYMINP    ZMAT    AOBASIS   BASIS     P2S    ABASIS      S 
                                         1400     1410     1200     1210     1080     1600     1650     1300     1700   
                                           T        V       H0       H01     AOSYM     SMH    MOLCAS    ERIS     OPER   

 PROGRAMS   *        TOTAL       INT
 CPU TIMES  *         5.74      5.65
 REAL TIME  *         7.43 SEC
 DISK USED  *         1.33 GB      
 **********************************************************************************************************************************


 PROGRAM * RHF-SCF (CLOSED SHELL)       Authors: W. Meyer, H.-J. Werner


 NUMBER OF ELECTRONS:       8+    8-
 CONVERGENCE THRESHOLDS:    1.00E-10 (Density)    1.00E-13 (Energy)
 MAX. NUMBER OF ITERATIONS:      500
 INTERPOLATION TYPE:            DIIS
 INTERPOLATION STEPS:              2 (START)      1 (STEP)
 LEVEL SHIFTS:                  0.00 (CLOSED)  0.00 (OPEN) 



 Orbital guess generated from atomic densities. Full valence occupancy:    9   2

 Molecular orbital dump at record        2100.2

 Initial occupancy:   7   1

 ITERATION    DDIFF          GRAD             ENERGY        2-EL.EN.            DIPOLE MOMENTS         DIIS   ORB.
    1      0.000D+00      0.000D+00      -129.79144584    154.322864    0.00000    0.57627   -0.99677    0    start
    2      0.000D+00      0.869D-02      -129.81850335    155.496702    0.00000    0.59536   -0.20414    1    diag
    3      0.364D-02      0.650D-02      -129.83998145    155.608844    0.00000    0.54878   -0.57841    2    diag
    4      0.138D-02      0.103D-02      -129.84075299    155.339285    0.00000    0.55692   -0.51683    3    diag
    5      0.331D-03      0.333D-03      -129.84086956    155.426167    0.00000    0.56283   -0.51930    4    diag
    6      0.152D-03      0.971D-04      -129.84088840    155.410286    0.00000    0.56342   -0.51530    5    diag
    7      0.603D-04      0.485D-04      -129.84089390    155.412819    0.00000    0.56474   -0.51286    6    diag
    8      0.408D-04      0.163D-04      -129.84089446    155.412025    0.00000    0.56479   -0.51199    7    diag
    9      0.137D-04      0.302D-05      -129.84089449    155.411920    0.00000    0.56474   -0.51182    8    diag
   10      0.276D-05      0.697D-06      -129.84089449    155.411907    0.00000    0.56471   -0.51179    9    orth
   11      0.851D-06      0.139D-06      -129.84089449    155.411904    0.00000    0.56470   -0.51179    9    diag
   12      0.201D-06      0.284D-07      -129.84089449    155.411903    0.00000    0.56470   -0.51179    9    diag
   13      0.483D-07      0.741D-08      -129.84089449    155.411903    0.00000    0.56470   -0.51179    9    diag
   14      0.109D-07      0.131D-08      -129.84089449    155.411903    0.00000    0.56470   -0.51179    9    diag
   15      0.144D-08      0.357D-09      -129.84089449    155.411903    0.00000    0.56470   -0.51179    9    diag
   16      0.318D-09      0.107D-09      -129.84089449    155.411903    0.00000    0.56470   -0.51179    9    diag
   17      0.767D-10      0.299D-10      -129.84089449    155.411903    0.00000    0.56470   -0.51179    0    orth

 Final occupancy:   7   1

 !RHF STATE 1.1 Energy               -129.840894488257
 Nuclear energy                        30.51181548
 One-electron energy                 -238.05866128
 Two-electron energy                   77.70595131
 Virial quotient                       -1.00136608
 !RHF STATE 1.1 Dipole moment           0.00000000     0.56469913    -0.51178579
 Dipole moment /Debye                   0.00000000     1.43522800    -1.30074452

 Orbital energies:

         1.1          2.1          3.1          4.1          5.1          6.1          7.1          8.1          9.1
    -20.650677   -15.708336    -1.532220    -0.994480    -0.747842    -0.665772    -0.427589     0.039814     0.193931

         1.2          2.2          3.2
     -0.596463     0.080787     0.239816

 HOMO      7.1    -0.427589 =     -11.6353eV
 LUMO      8.1     0.039814 =       1.0834eV
 LUMO-HOMO         0.467404 =      12.7187eV


 **********************************************************************************************************************************
 DATASETS  * FILE   NREC   LENGTH (MB)   RECORD NAMES
              1      19      421.51       500      610      700      900      950      970     1000      129      960     1100   
                                          VAR    BASINP    GEOM    SYMINP    ZMAT    AOBASIS   BASIS     P2S    ABASIS      S 
                                         1400     1410     1200     1210     1080     1600     1650     1300     1700   
                                           T        V       H0       H01     AOSYM     SMH    MOLCAS    ERIS     OPER   

              2       4        3.13       700     1000      520     2100   
                                         GEOM     BASIS   MCVARS     RHF  

 PROGRAMS   *        TOTAL        HF       INT
 CPU TIMES  *        10.96      5.22      5.65
 REAL TIME  *        13.92 SEC
 DISK USED  *         1.33 GB      
 **********************************************************************************************************************************


 PROGRAM * CCSD (Closed-shell coupled cluster)     Authors: C. Hampel, H.-J. Werner, 1991, M. Deegan, P.J. Knowles, 1992


 Convergence thresholds:  THRVAR = 1.00D-08  THRDEN = 1.00D-12

 CCSD(T)     terms to be evaluated (factor= 1.000)


 Number of core orbitals:           2 (   2   0 )
 Number of closed-shell orbitals:   6 (   5   1 )
 Number of external orbitals:     163 ( 107  56 )

 Molecular orbitals read from record     2100.2  Type=RHF/CANONICAL (state 1.1)

 Number of N-1 electron functions:               6
 Number of N-2 electron functions:              21
 Number of singly external CSFs:               591
 Number of doubly external CSFs:            250014
 Total number of CSFs:                      250606

 Length of J-op  integral file:               0.00 MB
 Length of K-op  integral file:               1.15 MB
 Length of 3-ext integral record:             0.00 MB

 Memory could be reduced to 19.93 Mwords without degradation in triples

 Integral transformation finished. Total CPU:   0.91 sec, npass=  1  Memory used:   5.10 MW

 Reference energy:                   -129.84089449

 MP2 singlet pair energy:              -0.28613354
 MP2 triplet pair energy:              -0.16671590
 MP2 correlation energy:               -0.45284944
 MP2 total energy:                   -130.29374393

 SCS-MP2 correlation energy:           -0.44709459   (PS=  1.200000  PT=  0.333333)
 SCS-MP2 total energy:               -130.28798908

 ITER.      SQ.NORM     CORR.ENERGY   TOTAL ENERGY   ENERGY CHANGE        DEN1      VAR(S)    VAR(P)  DIIS     TIME  TIME/IT
   1      1.11792595    -0.45519752  -130.29609201    -0.00234808     0.01410800  0.31D-02  0.30D-02  1  1     1.75     0.89
   2      1.12825763    -0.45516332  -130.29605781     0.00003420    -0.01232719  0.12D-03  0.48D-03  2  2     2.57     0.91
   3      1.13466033    -0.45552287  -130.29641736    -0.00035955    -0.00331283  0.42D-04  0.56D-04  3  3     3.37     0.92
   4      1.13744996    -0.45555538  -130.29644987    -0.00003251    -0.00092198  0.41D-05  0.94D-05  4  4     4.17     0.92
   5      1.13848259    -0.45558592  -130.29648041    -0.00003054    -0.00021140  0.12D-05  0.17D-05  5  5     5.01     0.93
   6      1.13886575    -0.45557093  -130.29646542     0.00001499    -0.00006346  0.11D-06  0.43D-06  6  6     5.85     0.93
   7      1.13893742    -0.45557253  -130.29646702    -0.00000160     0.00000825  0.15D-07  0.93D-07  6  1     6.69     0.93
   8      1.13897124    -0.45557221  -130.29646670     0.00000032    -0.00000442  0.51D-08  0.14D-07  6  2     7.53     0.93
   9      1.13897625    -0.45557212  -130.29646661     0.00000009     0.00000088  0.21D-08  0.15D-08  6  3     8.41     0.93
  10      1.13897656    -0.45557244  -130.29646693    -0.00000032    -0.00000021  0.48D-09  0.24D-09  6  4     9.21     0.93
  11      1.13897507    -0.45557257  -130.29646706    -0.00000013     0.00000034  0.11D-09  0.24D-10  6  5    10.03     0.93
  12      1.13897396    -0.45557272  -130.29646720    -0.00000014     0.00000045  0.14D-10  0.70D-11  6  6    10.88     0.93
  13      1.13897334    -0.45557273  -130.29646722    -0.00000002     0.00000012  0.55D-11  0.13D-11  6  1    11.67     0.93
  14      1.13897285    -0.45557276  -130.29646725    -0.00000003     0.00000011  0.53D-12  0.41D-12  6  3    12.55     0.93
  15      1.13897271    -0.45557276  -130.29646725     0.00000000     0.00000001  0.13D-12  0.29D-13  6  2    13.39     0.94
  16      1.13897266    -0.45557276  -130.29646725    -0.00000000     0.00000001  0.30D-13  0.69D-14  6  4    14.23     0.94
  17      1.13897264    -0.45557276  -130.29646725    -0.00000000     0.00000001  0.37D-14  0.11D-14  6  5    15.04     0.94
  18      1.13897264    -0.45557276  -130.29646725     0.00000000     0.00000000  0.42D-15  0.29D-15  6  6    15.89     0.94
  19      1.13897264    -0.45557276  -130.29646725     0.00000000    -0.00000000  0.54D-16  0.35D-16  6  1    16.71     0.94
  20      1.13897264    -0.45557276  -130.29646725     0.00000000    -0.00000000  0.27D-17  0.79D-17  6  3    17.53     0.94
  21      1.13897264    -0.45557276  -130.29646725     0.00000000    -0.00000000  0.46D-18  0.16D-17  6  4    18.37     0.94
  22      1.13897264    -0.45557276  -130.29646725     0.00000000    -0.00000000  0.16D-19  0.58D-18  6  2    19.21     0.94
  23      1.13897264    -0.45557276  -130.29646725    -0.00000000     0.00000000  0.45D-19  0.12D-18  6  5    20.05     0.94
  24      1.13897264    -0.45557276  -130.29646725    -0.00000000     0.00000000  0.46D-20  0.11D-19  6  1    20.85     0.94
  25      1.13897264    -0.45557276  -130.29646725     0.00000000    -0.00000000  0.20D-20  0.79D-21  6  6    21.63     0.94

 Norm of t1 vector:      0.07599827      S-energy:     0.00000000      T1 diagnostic:  0.01551308
                                                                       D1 diagnostic:  0.04233310

 Doubles amplitudes (print threshold =  0.500E-01):

         I         J         SYM. A    SYM. B    A         B      T(IJ, AB)

         6         6         2         2         1         1     -0.13392987


 Total CPU time for triples:      6.96 sec


 RESULTS
 =======

  Reference energy                   -129.840894488257
  CCSD singlet pair energy             -0.312710438373
  CCSD triplet pair energy             -0.142862324384
  CCSD correlation energy              -0.455572762751

  Triples (T) contribution             -0.020978763641
  Total correlation energy             -0.476551526392

  CCSD total energy                  -130.296467251008
  CCSD[T] energy                     -130.318510269257
  CCSD-T energy                      -130.317041457636
 !CCSD(T) total energy               -130.317446014650

 Timing summary (sec):

 STEP                 CPU(USER)    SYS     CPU(TOT)    WALL
 Transformation          0.92      0.15      1.07      1.08
 CCSD iterations        20.72      2.74     23.46     23.44
 Triples                 6.96      0.26      7.22      7.23

 Program statistics:

 Available memory in ccsd:               994999756
 Min. memory needed in ccsd:                887758
 Max. memory used in ccsd:                 1088212
 Max. memory used in cckext:               1535578 (25 integral passes)



 **********************************************************************************************************************************
 DATASETS  * FILE   NREC   LENGTH (MB)   RECORD NAMES
              1      20      479.47       500      610      700      900      950      970     1000      129      960     1100   
                                          VAR    BASINP    GEOM    SYMINP    ZMAT    AOBASIS   BASIS     P2S    ABASIS      S 
                                         1400     1410     1200     1210     1080     1600     1650     1300     1700     1380   
                                           T        V       H0       H01     AOSYM     SMH    MOLCAS    ERIS     OPER     JKOP   

              2       4        3.13       700     1000      520     2100   
                                         GEOM     BASIS   MCVARS     RHF  

 PROGRAMS   *        TOTAL   CCSD(T)        HF       INT
 CPU TIMES  *        39.57     28.61      5.22      5.65
 REAL TIME  *        45.76 SEC
 DISK USED  *         1.33 GB      
 **********************************************************************************************************************************

 CCSD(T)/USERDEF energy=   -130.317446014650

        CCSD(T)         HF-SCF  
   -130.31744601   -129.84089449
 **********************************************************************************************************************************
 Molpro calculation terminated
 Variable memory released
