
 Primary working directories    : /tmp/r2666/234980.maple
 Secondary working directories  : /tmp/r2666/234980.maple
 Wavefunction directory         : /ddn/home4/r2666/wfu/
 Main file repository           : /tmp/r2666/234980.maple/

 SHA1      : d5ffa45e93fdbca01ffc919aa182cfdae0147319
 NAME      : 2015.1.35
 ARCHNAME  : linux/x86_64
 FC        : /opt/intel/composer_xe_2015.1.133/bin/intel64/ifort
 BLASLIB   : -Wl,-_start-group /opt/intel/mkl/lib/intel64/libmkl_intel_ilp64.a /opt/intel/mkl/lib/intel64/libmkl_intel_thread.a /opt/intel/mkl/lib/intel64/libmkl_core.a -Wl,-_end-group
 id        : olemiss

 Nodes     nprocs
 cn088        1

 Using customized tuning parameters: mindgm=1; mindgv=20; mindgc=4; mindgr=1; noblas=0; minvec=7
 default implementation of scratch files=df  

 ***,hno CCSD(T)/TZ-F12 QFF
 memory, 995, m;
 gthresh,energy=1.d-12,zero=1.d-22,oneint=1.d-22,twoint=1.d-22;
 gthresh,optgrad=1.d-8,optstep=1.d-8;
 nocompress;
 geomtyp=xyz
 bohr
 geometry={
 3
         94        94
 N        0.0000000000       -0.1734622383       -1.1549311349
 H        0.0000000000        1.6712435922       -1.9211468435
 O        0.0000000000        0.0439864361        1.1254883875
 }
 
 basis=avtz
   {hf,maxit=500;accu,20;}
 {ccsd(t),nocheck,maxit=250;orbital,IGNORE_ERROR;}

 Variables initialized (889), CPU time= 0.01 sec
 Commands  initialized (702), CPU time= 0.01 sec, 572 directives.
 Default parameters read. Elapsed time= 0.04 sec

 Checking input...
 Passed
1


                                         ***  PROGRAM SYSTEM MOLPRO  ***
                                       Copyright, TTI GmbH Stuttgart, 2015
                                    Version 2015.1 linked Jul  9 2018 13:16:40


 **********************************************************************************************************************************
 LABEL *   hno CCSD(T)/TZ-F12 QFF                                                        
  64 bit serial version                                                                  DATE: 08-Feb-20          TIME: 17:56:43  
 **********************************************************************************************************************************

 SHA1:             d5ffa45e93fdbca01ffc919aa182cfdae0147319
 **********************************************************************************************************************************

 THRESHOLDS:

 ZERO    =  1.00D-22  ONEINT  =  1.00D-22  TWOINT  =  1.00D-22  PREFAC  =  1.00D-14  LOCALI  =  1.00D-09  EORDER  =  1.00D-04
 ENERGY  =  1.00D-12  ETEST   =  0.00D+00  EDENS   =  0.00D+00  THRDEDEF=  1.00D-06  GRADIENT=  1.00D-02  STEP    =  1.00D-03
 ORBITAL =  1.00D-05  CIVEC   =  1.00D-05  COEFF   =  1.00D-04  PRINTCI =  5.00D-02  PUNCHCI =  9.90D+01  OPTGRAD =  3.00D-04
 OPTENERG=  1.00D-06  OPTSTEP =  3.00D-04  THRGRAD =  1.00D-10  COMPRESS=  1.00D-11  VARMIN  =  1.00D-07  VARMAX  =  1.00D-03
 THRDOUB =  0.00D+00  THRDIV  =  1.00D-05  THRRED  =  1.00D-07  THRPSP  =  1.00D+00  THRDC   =  1.00D-10  THRCS   =  1.00D-10
 THRNRM  =  1.00D-08  THREQ   =  0.00D+00  THRDE   =  1.00D+00  THRREF  =  1.00D-05  SPARFAC =  1.00D+00  THRDLP  =  1.00D-07
 THRDIA  =  1.00D-10  THRDLS  =  1.00D-07  THRGPS  =  0.00D+00  THRKEX  =  0.00D+00  THRDIS  =  2.00D-01  THRVAR  =  1.00D-10
 THRLOC  =  1.00D-06  THRGAP  =  1.00D-06  THRLOCT = -1.00D+00  THRGAPT = -1.00D+00  THRORB  =  1.00D-06  THRMLTP =  0.00D+00
 THRCPQCI=  1.00D-10  KEXTA   =  0.00D+00  THRCOARS=  0.00D+00  SYMTOL  =  1.00D-06  GRADTOL =  1.00D-06  THROVL  =  1.00D-08
 THRORTH =  1.00D-08  GRID    =  1.00D-06  GRIDMAX =  1.00D-03  DTMAX   =  0.00D+00  THROCCDE=  1.00D-01  THROCCDE=  1.00D-01



 THRESHOLDS:

 ZERO    =  1.00D-22  ONEINT  =  1.00D-22  TWOINT  =  1.00D-22  PREFAC  =  1.00D-14  LOCALI  =  1.00D-09  EORDER  =  1.00D-04
 ENERGY  =  1.00D-12  ETEST   =  0.00D+00  EDENS   =  0.00D+00  THRDEDEF=  1.00D-06  GRADIENT=  1.00D-02  STEP    =  1.00D-03
 ORBITAL =  1.00D-05  CIVEC   =  1.00D-05  COEFF   =  1.00D-04  PRINTCI =  5.00D-02  PUNCHCI =  9.90D+01  OPTGRAD =  1.00D-08
 OPTENERG=  1.00D-06  OPTSTEP =  1.00D-08  THRGRAD =  1.00D-10  COMPRESS=  1.00D-11  VARMIN  =  1.00D-07  VARMAX  =  1.00D-03
 THRDOUB =  0.00D+00  THRDIV  =  1.00D-05  THRRED  =  1.00D-07  THRPSP  =  1.00D+00  THRDC   =  1.00D-10  THRCS   =  1.00D-10
 THRNRM  =  1.00D-08  THREQ   =  0.00D+00  THRDE   =  1.00D+00  THRREF  =  1.00D-05  SPARFAC =  1.00D+00  THRDLP  =  1.00D-07
 THRDIA  =  1.00D-10  THRDLS  =  1.00D-07  THRGPS  =  0.00D+00  THRKEX  =  0.00D+00  THRDIS  =  2.00D-01  THRVAR  =  1.00D-10
 THRLOC  =  1.00D-06  THRGAP  =  1.00D-06  THRLOCT = -1.00D+00  THRGAPT = -1.00D+00  THRORB  =  1.00D-06  THRMLTP =  0.00D+00
 THRCPQCI=  1.00D-10  KEXTA   =  0.00D+00  THRCOARS=  0.00D+00  SYMTOL  =  1.00D-06  GRADTOL =  1.00D-06  THROVL  =  1.00D-08
 THRORTH =  1.00D-08  GRID    =  1.00D-06  GRIDMAX =  1.00D-03  DTMAX   =  0.00D+00  THROCCDE=  1.00D-01  THROCCDE=  1.00D-01



 Input parameters for SORTINT:

 COMPRESS =    0.000000
 C_FINAL  =    1.000000
 DEBUG    =   -1.000000
 C_SORT1  =    0.000000
 C_SEWARD =    0.000000
 THRESH   =    0.000000
 IO       =  molpro                                                          
 SPRI     =    0.000000
 SETTING GEOMTYP        =    XYZ
 ZUNIT=BOHR
 

 Variable memory set to  995000000 words,  buffer space   230000 words

 SETTING BASIS          =    AVTZ


 Recomputing integrals since basis changed


 Using spherical harmonics

 Library entry N      S aug-cc-pVTZ          selected for orbital group  1
 Library entry N      P aug-cc-pVTZ          selected for orbital group  1
 Library entry N      D aug-cc-pVTZ          selected for orbital group  1
 Library entry N      F aug-cc-pVTZ          selected for orbital group  1
 Library entry H      S aug-cc-pVTZ          selected for orbital group  2
 Library entry H      P aug-cc-pVTZ          selected for orbital group  2
 Library entry H      D aug-cc-pVTZ          selected for orbital group  2
 Library entry O      S aug-cc-pVTZ          selected for orbital group  3
 Library entry O      P aug-cc-pVTZ          selected for orbital group  3
 Library entry O      D aug-cc-pVTZ          selected for orbital group  3
 Library entry O      F aug-cc-pVTZ          selected for orbital group  3


 PROGRAM * SEWARD (Integral evaluation for generally contracted gaussian basis sets)     Author: Roland Lindh, 1990

 Geometry written to block  1 of record 700


 Point group  Cs  



 ATOMIC COORDINATES

 NR  ATOM    CHARGE       X              Y              Z

   1  N       7.00    0.000000000   -0.173462238   -1.154931135
   2  H       1.00    0.000000000    1.671243592   -1.921146844
   3  O       8.00    0.000000000    0.043986436    1.125488387

 Bond lengths in Bohr (Angstrom)

 1-2  1.997504972  1-3  2.290763437
     ( 1.057034110)     ( 1.212219806)

 Bond angles

  2-1-3  107.10905749

 NUCLEAR CHARGE:                   16
 NUMBER OF PRIMITIVE AOS:         161
 NUMBER OF SYMMETRY AOS:          141
 NUMBER OF CONTRACTIONS:          115   (  76A'  +  39A"  )
 NUMBER OF CORE ORBITALS:           2   (   2A'  +   0A"  )
 NUMBER OF VALENCE ORBITALS:        9   (   7A'  +   2A"  )


 NUCLEAR REPULSION ENERGY   30.26654155

 Eigenvalues of metric

         1 0.233E-03 0.508E-03 0.181E-02 0.215E-02 0.257E-02 0.365E-02 0.433E-02 0.525E-02
         2 0.401E-02 0.103E-01 0.265E-01 0.375E-01 0.517E-01 0.626E-01 0.833E-01 0.120E+00


 Contracted 2-electron integrals neglected if value below      1.0D-22

       10790064. INTEGRALS WRITTEN OUT IN    2635 BLOCKS ON RECORD 1290 OF FILE 1


 NUMBER OF SORTED TWO-ELECTRON INTEGRALS:   11433631.     BUFFER LENGTH:  32768
 NUMBER OF SEGMENTS:   1  SEGMENT LENGTH:   11433631      RECORD LENGTH: 524288

 Memory used in sort:      11.99 MW

 SORT1 READ    10790064. AND WROTE    10943632. INTEGRALS IN     32 RECORDS. CPU TIME:     0.16 SEC, REAL TIME:     0.22 SEC
 SORT2 READ    10943632. AND WROTE    11433631. INTEGRALS IN      1 RECORDS. CPU TIME:     0.17 SEC, REAL TIME:     0.20 SEC

 FILE SIZES:   FILE 1:   193.0 MBYTE,  FILE 4:   134.3 MBYTE,   TOTAL:    327.2 MBYTE

 OPERATOR DM      FOR CENTER  0  COORDINATES:    0.000000    0.000000    0.000000


 **********************************************************************************************************************************
 DATASETS  * FILE   NREC   LENGTH (MB)   RECORD NAMES
              1      19      111.05       500      610      700      900      950      970     1000      129      960     1100   
                                          VAR    BASINP    GEOM    SYMINP    ZMAT    AOBASIS   BASIS     P2S    ABASIS      S 
                                         1400     1410     1200     1210     1080     1600     1650     1300     1700   
                                           T        V       H0       H01     AOSYM     SMH    MOLCAS    ERIS     OPER   

 PROGRAMS   *        TOTAL       INT
 CPU TIMES  *         1.27      1.18
 REAL TIME  *         2.05 SEC
 DISK USED  *       327.55 MB      
 **********************************************************************************************************************************


 PROGRAM * RHF-SCF (CLOSED SHELL)       Authors: W. Meyer, H.-J. Werner


 NUMBER OF ELECTRONS:       8+    8-
 CONVERGENCE THRESHOLDS:    1.00E-10 (Density)    1.00E-13 (Energy)
 MAX. NUMBER OF ITERATIONS:      500
 INTERPOLATION TYPE:            DIIS
 INTERPOLATION STEPS:              2 (START)      1 (STEP)
 LEVEL SHIFTS:                  0.00 (CLOSED)  0.00 (OPEN) 



 Orbital guess generated from atomic densities. Full valence occupancy:    9   2

 Molecular orbital dump at record        2100.2

 Initial occupancy:   7   1

 ITERATION    DDIFF          GRAD             ENERGY        2-EL.EN.            DIPOLE MOMENTS         DIIS   ORB.
    1      0.000D+00      0.000D+00      -129.78657380    153.714035    0.00000    0.58121   -1.03311    0    start
    2      0.000D+00      0.108D-01      -129.81390893    154.974581    0.00000    0.61397   -0.20121    1    diag
    3      0.120D-01      0.840D-02      -129.83757572    155.095584    0.00000    0.55338   -0.59417    2    diag
    4      0.603D-02      0.128D-02      -129.83837462    154.803697    0.00000    0.56121   -0.53388    3    diag
    5      0.108D-02      0.426D-03      -129.83850345    154.898131    0.00000    0.56676   -0.53654    4    diag
    6      0.455D-03      0.123D-03      -129.83852413    154.882407    0.00000    0.56710   -0.53235    5    diag
    7      0.175D-03      0.613D-04      -129.83853015    154.884901    0.00000    0.56835   -0.52972    6    diag
    8      0.121D-03      0.211D-04      -129.83853081    154.884219    0.00000    0.56836   -0.52869    7    diag
    9      0.462D-04      0.400D-05      -129.83853084    154.884108    0.00000    0.56833   -0.52846    8    diag
   10      0.893D-05      0.898D-06      -129.83853084    154.884088    0.00000    0.56829   -0.52844    9    orth
   11      0.176D-05      0.179D-06      -129.83853084    154.884086    0.00000    0.56829   -0.52843    9    diag
   12      0.338D-06      0.373D-07      -129.83853084    154.884085    0.00000    0.56828   -0.52843    9    diag
   13      0.738D-07      0.954D-08      -129.83853084    154.884085    0.00000    0.56828   -0.52843    9    diag
   14      0.196D-07      0.196D-08      -129.83853084    154.884085    0.00000    0.56828   -0.52843    9    diag
   15      0.382D-08      0.541D-09      -129.83853084    154.884085    0.00000    0.56828   -0.52843    9    diag
   16      0.104D-08      0.145D-09      -129.83853084    154.884085    0.00000    0.56828   -0.52843    9    diag
   17      0.180D-09      0.412D-10      -129.83853084    154.884085    0.00000    0.56828   -0.52843    9    diag
   18      0.508D-10      0.147D-10      -129.83853084    154.884085    0.00000    0.56828   -0.52843    0    orth

 Final occupancy:   7   1

 !RHF STATE 1.1 Energy               -129.838530843033
 Nuclear energy                        30.26654155
 One-electron energy                 -237.54711497
 Two-electron energy                   77.44204258
 Virial quotient                       -1.00231161
 !RHF STATE 1.1 Dipole moment           0.00000000     0.56828350    -0.52843245
 Dipole moment /Debye                   0.00000000     1.44433798    -1.34305335

 Orbital energies:

         1.1          2.1          3.1          4.1          5.1          6.1          7.1          8.1          9.1
    -20.656789   -15.716063    -1.527790    -0.994129    -0.745506    -0.664668    -0.432148     0.029209     0.092208

         1.2          2.2          3.2
     -0.594421     0.063856     0.130209

 HOMO      7.1    -0.432148 =     -11.7594eV
 LUMO      8.1     0.029209 =       0.7948eV
 LUMO-HOMO         0.461357 =      12.5542eV


 **********************************************************************************************************************************
 DATASETS  * FILE   NREC   LENGTH (MB)   RECORD NAMES
              1      19      111.05       500      610      700      900      950      970     1000      129      960     1100   
                                          VAR    BASINP    GEOM    SYMINP    ZMAT    AOBASIS   BASIS     P2S    ABASIS      S 
                                         1400     1410     1200     1210     1080     1600     1650     1300     1700   
                                           T        V       H0       H01     AOSYM     SMH    MOLCAS    ERIS     OPER   

              2       4        2.94       700     1000      520     2100   
                                         GEOM     BASIS   MCVARS     RHF  

 PROGRAMS   *        TOTAL        HF       INT
 CPU TIMES  *         2.21      0.94      1.18
 REAL TIME  *         3.20 SEC
 DISK USED  *       327.55 MB      
 **********************************************************************************************************************************


 PROGRAM * CCSD (Closed-shell coupled cluster)     Authors: C. Hampel, H.-J. Werner, 1991, M. Deegan, P.J. Knowles, 1992


 Convergence thresholds:  THRVAR = 1.00D-08  THRDEN = 1.00D-12

 CCSD(T)     terms to be evaluated (factor= 1.000)


 Number of core orbitals:           2 (   2   0 )
 Number of closed-shell orbitals:   6 (   5   1 )
 Number of external orbitals:     107 (  69  38 )

 Molecular orbitals read from record     2100.2  Type=RHF/CANONICAL (state 1.1)

 Number of N-1 electron functions:               6
 Number of N-2 electron functions:              21
 Number of singly external CSFs:               383
 Number of doubly external CSFs:            107206
 Total number of CSFs:                      107590

 Length of J-op  integral file:               0.00 MB
 Length of K-op  integral file:               0.54 MB
 Length of 3-ext integral record:             0.00 MB

 Memory could be reduced to 5.94 Mwords without degradation in triples

 Integral transformation finished. Total CPU:   0.13 sec, npass=  1  Memory used:   1.65 MW

 Reference energy:                   -129.83853084

 MP2 singlet pair energy:              -0.28001139
 MP2 triplet pair energy:              -0.16555283
 MP2 correlation energy:               -0.44556422
 MP2 total energy:                   -130.28409506

 SCS-MP2 correlation energy:           -0.43902432   (PS=  1.200000  PT=  0.333333)
 SCS-MP2 total energy:               -130.27755516

 ITER.      SQ.NORM     CORR.ENERGY   TOTAL ENERGY   ENERGY CHANGE        DEN1      VAR(S)    VAR(P)  DIIS     TIME  TIME/IT
   1      1.12155444    -0.44949636  -130.28802720    -0.00393214     0.01233510  0.32D-02  0.32D-02  1  1     0.27     0.15
   2      1.13280040    -0.44966129  -130.28819213    -0.00016493    -0.01256525  0.10D-03  0.52D-03  2  2     0.42     0.16
   3      1.13939635    -0.45006965  -130.28860049    -0.00040836    -0.00304047  0.55D-04  0.52D-04  3  3     0.54     0.16
   4      1.14233355    -0.45008134  -130.28861219    -0.00001170    -0.00099129  0.43D-05  0.93D-05  4  4     0.69     0.16
   5      1.14340575    -0.45011108  -130.28864193    -0.00002974    -0.00022715  0.12D-05  0.16D-05  5  5     0.82     0.16
   6      1.14375207    -0.45009353  -130.28862437     0.00001755    -0.00004262  0.10D-06  0.39D-06  6  6     0.96     0.16
   7      1.14382551    -0.45009471  -130.28862555    -0.00000118    -0.00000154  0.19D-07  0.91D-07  6  1     1.11     0.16
   8      1.14384693    -0.45009529  -130.28862613    -0.00000058     0.00000149  0.34D-08  0.17D-07  6  2     1.24     0.16
   9      1.14385231    -0.45009483  -130.28862567     0.00000046     0.00000045  0.27D-08  0.19D-08  6  4     1.39     0.16
  10      1.14385469    -0.45009531  -130.28862615    -0.00000048    -0.00000072  0.44D-09  0.23D-09  6  3     1.52     0.16
  11      1.14385422    -0.45009533  -130.28862617    -0.00000002    -0.00000008  0.16D-09  0.34D-10  6  5     1.68     0.17
  12      1.14385316    -0.45009548  -130.28862633    -0.00000016     0.00000034  0.18D-10  0.11D-10  6  6     1.82     0.17
  13      1.14385230    -0.45009552  -130.28862636    -0.00000003     0.00000022  0.63D-11  0.22D-11  6  1     1.96     0.17
  14      1.14385175    -0.45009555  -130.28862639    -0.00000003     0.00000014  0.97D-12  0.69D-12  6  2     2.11     0.17
  15      1.14385152    -0.45009556  -130.28862640    -0.00000001     0.00000003  0.28D-12  0.21D-12  6  4     2.27     0.17
  16      1.14385142    -0.45009556  -130.28862640    -0.00000000     0.00000001  0.52D-13  0.75D-13  6  3     2.42     0.17
  17      1.14385136    -0.45009556  -130.28862640    -0.00000000     0.00000001  0.38D-14  0.18D-13  6  5     2.57     0.17
  18      1.14385135    -0.45009556  -130.28862640     0.00000000    -0.00000000  0.12D-14  0.38D-14  6  6     2.71     0.17
  19      1.14385135    -0.45009556  -130.28862640     0.00000000    -0.00000000  0.15D-15  0.25D-15  6  5     2.85     0.17
  20      1.14385135    -0.45009556  -130.28862640    -0.00000000     0.00000000  0.61D-16  0.44D-16  6  1     2.99     0.17
  21      1.14385135    -0.45009556  -130.28862640    -0.00000000     0.00000000  0.13D-16  0.96D-17  6  2     3.13     0.17
  22      1.14385135    -0.45009556  -130.28862640    -0.00000000     0.00000000  0.45D-17  0.11D-17  6  4     3.27     0.17
  23      1.14385135    -0.45009556  -130.28862640     0.00000000     0.00000000  0.12D-17  0.36D-18  6  3     3.41     0.17
  24      1.14385135    -0.45009556  -130.28862640    -0.00000000     0.00000000  0.34D-18  0.70D-19  6  6     3.55     0.17
  25      1.14385135    -0.45009556  -130.28862640     0.00000000    -0.00000000  0.54D-19  0.35D-19  6  5     3.69     0.17
  26      1.14385135    -0.45009556  -130.28862640     0.00000000    -0.00000000  0.86D-20  0.14D-19  6  1     3.82     0.17
  27      1.14385135    -0.45009556  -130.28862640    -0.00000000    -0.00000000  0.45D-21  0.20D-20  6  4     3.97     0.17
  28      1.14385135    -0.45009556  -130.28862640     0.00000000     0.00000000  0.87D-22  0.22D-21  6  2     4.10     0.17

 Norm of t1 vector:      0.07905693      S-energy:     0.00000000      T1 diagnostic:  0.01613743
                                                                       D1 diagnostic:  0.04258003

 Doubles amplitudes (print threshold =  0.500E-01):

         I         J         SYM. A    SYM. B    A         B      T(IJ, AB)

         6         6         2         2         1         1     -0.11077209


 Total CPU time for triples:      1.16 sec


 RESULTS
 =======

  Reference energy                   -129.838530843033
  CCSD singlet pair energy             -0.308732193898
  CCSD triplet pair energy             -0.141363366766
  CCSD correlation energy              -0.450095560662

  Triples (T) contribution             -0.021067107949
  Total correlation energy             -0.471162668611

  CCSD total energy                  -130.288626403695
  CCSD[T] energy                     -130.310778220597
  CCSD-T energy                      -130.309284157831
 !CCSD(T) total energy               -130.309693511644

 Timing summary (sec):

 STEP                 CPU(USER)    SYS     CPU(TOT)    WALL
 Transformation          0.13      0.04      0.17      0.18
 CCSD iterations         3.98      0.67      4.65      4.64
 Triples                 1.16      0.03      1.19      1.20

 Program statistics:

 Available memory in ccsd:               994999756
 Min. memory needed in ccsd:                389120
 Max. memory used in ccsd:                  473124
 Max. memory used in cckext:                599488 (28 integral passes)



 **********************************************************************************************************************************
 DATASETS  * FILE   NREC   LENGTH (MB)   RECORD NAMES
              1      20      128.20       500      610      700      900      950      970     1000      129      960     1100   
                                          VAR    BASINP    GEOM    SYMINP    ZMAT    AOBASIS   BASIS     P2S    ABASIS      S 
                                         1400     1410     1200     1210     1080     1600     1650     1300     1700     1380   
                                           T        V       H0       H01     AOSYM     SMH    MOLCAS    ERIS     OPER     JKOP   

              2       4        2.94       700     1000      520     2100   
                                         GEOM     BASIS   MCVARS     RHF  

 PROGRAMS   *        TOTAL   CCSD(T)        HF       INT
 CPU TIMES  *         7.50      5.28      0.94      1.18
 REAL TIME  *         9.26 SEC
 DISK USED  *       327.55 MB      
 **********************************************************************************************************************************

 CCSD(T)/aug-cc-pVTZ energy=   -130.309693511644

        CCSD(T)         HF-SCF  
   -130.30969351   -129.83853084
 **********************************************************************************************************************************
 Molpro calculation terminated
 Variable memory released
