
 Primary working directories    : /tmp/r2666/234931.maple
 Secondary working directories  : /tmp/r2666/234931.maple
 Wavefunction directory         : /ddn/home4/r2666/wfu/
 Main file repository           : /tmp/r2666/234931.maple/

 SHA1      : d5ffa45e93fdbca01ffc919aa182cfdae0147319
 NAME      : 2015.1.35
 ARCHNAME  : linux/x86_64
 FC        : /opt/intel/composer_xe_2015.1.133/bin/intel64/ifort
 BLASLIB   : -Wl,-_start-group /opt/intel/mkl/lib/intel64/libmkl_intel_ilp64.a /opt/intel/mkl/lib/intel64/libmkl_intel_thread.a /opt/intel/mkl/lib/intel64/libmkl_core.a -Wl,-_end-group
 id        : olemiss

 Nodes     nprocs
 cn091        1

 Using customized tuning parameters: mindgm=1; mindgv=20; mindgc=4; mindgr=1; noblas=0; minvec=7
 default implementation of scratch files=df  

 ***,hno CCSD(T)/TZ-F12 QFF
 memory, 995, m;
 gthresh,energy=1.d-12,zero=1.d-22,oneint=1.d-22,twoint=1.d-22;
 gthresh,optgrad=1.d-8,optstep=1.d-8;
 nocompress;
 geomtyp=xyz
 bohr
 geometry={
 3
         45        45
 N        0.0000000000       -0.1522579308       -1.1567714609
 H        0.0000000000        1.6650318528       -1.9392970650
 O        0.0000000000        0.0289938680        1.1454789349
 }
 
 basis=avtz
   {hf,maxit=500;accu,20;}
 {ccsd(t),nocheck,maxit=250;orbital,IGNORE_ERROR;}

 Variables initialized (889), CPU time= 0.00 sec
 Commands  initialized (702), CPU time= 0.01 sec, 572 directives.
 Default parameters read. Elapsed time= 0.06 sec

 Checking input...
 Passed
1


                                         ***  PROGRAM SYSTEM MOLPRO  ***
                                       Copyright, TTI GmbH Stuttgart, 2015
                                    Version 2015.1 linked Jul  9 2018 13:16:40


 **********************************************************************************************************************************
 LABEL *   hno CCSD(T)/TZ-F12 QFF                                                        
  64 bit serial version                                                                  DATE: 08-Feb-20          TIME: 17:56:22  
 **********************************************************************************************************************************

 SHA1:             d5ffa45e93fdbca01ffc919aa182cfdae0147319
 **********************************************************************************************************************************

 THRESHOLDS:

 ZERO    =  1.00D-22  ONEINT  =  1.00D-22  TWOINT  =  1.00D-22  PREFAC  =  1.00D-14  LOCALI  =  1.00D-09  EORDER  =  1.00D-04
 ENERGY  =  1.00D-12  ETEST   =  0.00D+00  EDENS   =  0.00D+00  THRDEDEF=  1.00D-06  GRADIENT=  1.00D-02  STEP    =  1.00D-03
 ORBITAL =  1.00D-05  CIVEC   =  1.00D-05  COEFF   =  1.00D-04  PRINTCI =  5.00D-02  PUNCHCI =  9.90D+01  OPTGRAD =  3.00D-04
 OPTENERG=  1.00D-06  OPTSTEP =  3.00D-04  THRGRAD =  1.00D-10  COMPRESS=  1.00D-11  VARMIN  =  1.00D-07  VARMAX  =  1.00D-03
 THRDOUB =  0.00D+00  THRDIV  =  1.00D-05  THRRED  =  1.00D-07  THRPSP  =  1.00D+00  THRDC   =  1.00D-10  THRCS   =  1.00D-10
 THRNRM  =  1.00D-08  THREQ   =  0.00D+00  THRDE   =  1.00D+00  THRREF  =  1.00D-05  SPARFAC =  1.00D+00  THRDLP  =  1.00D-07
 THRDIA  =  1.00D-10  THRDLS  =  1.00D-07  THRGPS  =  0.00D+00  THRKEX  =  0.00D+00  THRDIS  =  2.00D-01  THRVAR  =  1.00D-10
 THRLOC  =  1.00D-06  THRGAP  =  1.00D-06  THRLOCT = -1.00D+00  THRGAPT = -1.00D+00  THRORB  =  1.00D-06  THRMLTP =  0.00D+00
 THRCPQCI=  1.00D-10  KEXTA   =  0.00D+00  THRCOARS=  0.00D+00  SYMTOL  =  1.00D-06  GRADTOL =  1.00D-06  THROVL  =  1.00D-08
 THRORTH =  1.00D-08  GRID    =  1.00D-06  GRIDMAX =  1.00D-03  DTMAX   =  0.00D+00  THROCCDE=  1.00D-01  THROCCDE=  1.00D-01



 THRESHOLDS:

 ZERO    =  1.00D-22  ONEINT  =  1.00D-22  TWOINT  =  1.00D-22  PREFAC  =  1.00D-14  LOCALI  =  1.00D-09  EORDER  =  1.00D-04
 ENERGY  =  1.00D-12  ETEST   =  0.00D+00  EDENS   =  0.00D+00  THRDEDEF=  1.00D-06  GRADIENT=  1.00D-02  STEP    =  1.00D-03
 ORBITAL =  1.00D-05  CIVEC   =  1.00D-05  COEFF   =  1.00D-04  PRINTCI =  5.00D-02  PUNCHCI =  9.90D+01  OPTGRAD =  1.00D-08
 OPTENERG=  1.00D-06  OPTSTEP =  1.00D-08  THRGRAD =  1.00D-10  COMPRESS=  1.00D-11  VARMIN  =  1.00D-07  VARMAX  =  1.00D-03
 THRDOUB =  0.00D+00  THRDIV  =  1.00D-05  THRRED  =  1.00D-07  THRPSP  =  1.00D+00  THRDC   =  1.00D-10  THRCS   =  1.00D-10
 THRNRM  =  1.00D-08  THREQ   =  0.00D+00  THRDE   =  1.00D+00  THRREF  =  1.00D-05  SPARFAC =  1.00D+00  THRDLP  =  1.00D-07
 THRDIA  =  1.00D-10  THRDLS  =  1.00D-07  THRGPS  =  0.00D+00  THRKEX  =  0.00D+00  THRDIS  =  2.00D-01  THRVAR  =  1.00D-10
 THRLOC  =  1.00D-06  THRGAP  =  1.00D-06  THRLOCT = -1.00D+00  THRGAPT = -1.00D+00  THRORB  =  1.00D-06  THRMLTP =  0.00D+00
 THRCPQCI=  1.00D-10  KEXTA   =  0.00D+00  THRCOARS=  0.00D+00  SYMTOL  =  1.00D-06  GRADTOL =  1.00D-06  THROVL  =  1.00D-08
 THRORTH =  1.00D-08  GRID    =  1.00D-06  GRIDMAX =  1.00D-03  DTMAX   =  0.00D+00  THROCCDE=  1.00D-01  THROCCDE=  1.00D-01



 Input parameters for SORTINT:

 COMPRESS =    0.000000
 C_FINAL  =    1.000000
 DEBUG    =   -1.000000
 C_SORT1  =    0.000000
 C_SEWARD =    0.000000
 THRESH   =    0.000000
 IO       =  molpro                                                          
 SPRI     =    0.000000
 SETTING GEOMTYP        =    XYZ
 ZUNIT=BOHR
 

 Variable memory set to  995000000 words,  buffer space   230000 words

 SETTING BASIS          =    AVTZ


 Recomputing integrals since basis changed


 Using spherical harmonics

 Library entry N      S aug-cc-pVTZ          selected for orbital group  1
 Library entry N      P aug-cc-pVTZ          selected for orbital group  1
 Library entry N      D aug-cc-pVTZ          selected for orbital group  1
 Library entry N      F aug-cc-pVTZ          selected for orbital group  1
 Library entry H      S aug-cc-pVTZ          selected for orbital group  2
 Library entry H      P aug-cc-pVTZ          selected for orbital group  2
 Library entry H      D aug-cc-pVTZ          selected for orbital group  2
 Library entry O      S aug-cc-pVTZ          selected for orbital group  3
 Library entry O      P aug-cc-pVTZ          selected for orbital group  3
 Library entry O      D aug-cc-pVTZ          selected for orbital group  3
 Library entry O      F aug-cc-pVTZ          selected for orbital group  3


 PROGRAM * SEWARD (Integral evaluation for generally contracted gaussian basis sets)     Author: Roland Lindh, 1990

 Geometry written to block  1 of record 700


 Point group  Cs  



 ATOMIC COORDINATES

 NR  ATOM    CHARGE       X              Y              Z

   1  N       7.00    0.000000000   -0.152257931   -1.156771461
   2  H       1.00    0.000000000    1.665031853   -1.939297065
   3  O       8.00    0.000000000    0.028993868    1.145478935

 Bond lengths in Bohr (Angstrom)

 1-2  1.978607712  1-3  2.309374179
     ( 1.047034111)     ( 1.222068187)

 Bond angles

  2-1-3  108.79522515

 NUCLEAR CHARGE:                   16
 NUMBER OF PRIMITIVE AOS:         161
 NUMBER OF SYMMETRY AOS:          141
 NUMBER OF CONTRACTIONS:          115   (  76A'  +  39A"  )
 NUMBER OF CORE ORBITALS:           2   (   2A'  +   0A"  )
 NUMBER OF VALENCE ORBITALS:        9   (   7A'  +   2A"  )


 NUCLEAR REPULSION ENERGY   30.07793612

 Eigenvalues of metric

         1 0.236E-03 0.501E-03 0.184E-02 0.216E-02 0.265E-02 0.379E-02 0.434E-02 0.515E-02
         2 0.410E-02 0.100E-01 0.268E-01 0.372E-01 0.513E-01 0.622E-01 0.834E-01 0.121E+00


 Contracted 2-electron integrals neglected if value below      1.0D-22

       10790064. INTEGRALS WRITTEN OUT IN    2635 BLOCKS ON RECORD 1290 OF FILE 1


 NUMBER OF SORTED TWO-ELECTRON INTEGRALS:   11433631.     BUFFER LENGTH:  32768
 NUMBER OF SEGMENTS:   1  SEGMENT LENGTH:   11433631      RECORD LENGTH: 524288

 Memory used in sort:      11.99 MW

 SORT1 READ    10790064. AND WROTE    10943632. INTEGRALS IN     32 RECORDS. CPU TIME:     0.17 SEC, REAL TIME:     0.23 SEC
 SORT2 READ    10943632. AND WROTE    11433631. INTEGRALS IN      1 RECORDS. CPU TIME:     0.17 SEC, REAL TIME:     0.23 SEC

 FILE SIZES:   FILE 1:   193.0 MBYTE,  FILE 4:   134.3 MBYTE,   TOTAL:    327.2 MBYTE

 OPERATOR DM      FOR CENTER  0  COORDINATES:    0.000000    0.000000    0.000000


 **********************************************************************************************************************************
 DATASETS  * FILE   NREC   LENGTH (MB)   RECORD NAMES
              1      19      111.05       500      610      700      900      950      970     1000      129      960     1100   
                                          VAR    BASINP    GEOM    SYMINP    ZMAT    AOBASIS   BASIS     P2S    ABASIS      S 
                                         1400     1410     1200     1210     1080     1600     1650     1300     1700   
                                           T        V       H0       H01     AOSYM     SMH    MOLCAS    ERIS     OPER   

 PROGRAMS   *        TOTAL       INT
 CPU TIMES  *         1.36      1.27
 REAL TIME  *         2.12 SEC
 DISK USED  *       327.55 MB      
 **********************************************************************************************************************************


 PROGRAM * RHF-SCF (CLOSED SHELL)       Authors: W. Meyer, H.-J. Werner


 NUMBER OF ELECTRONS:       8+    8-
 CONVERGENCE THRESHOLDS:    1.00E-10 (Density)    1.00E-13 (Energy)
 MAX. NUMBER OF ITERATIONS:      500
 INTERPOLATION TYPE:            DIIS
 INTERPOLATION STEPS:              2 (START)      1 (STEP)
 LEVEL SHIFTS:                  0.00 (CLOSED)  0.00 (OPEN) 



 Orbital guess generated from atomic densities. Full valence occupancy:    9   2

 Molecular orbital dump at record        2100.2

 Initial occupancy:   7   1

 ITERATION    DDIFF          GRAD             ENERGY        2-EL.EN.            DIPOLE MOMENTS         DIIS   ORB.
    1      0.000D+00      0.000D+00      -129.78453336    153.375500    0.00000    0.60669   -1.06735    0    start
    2      0.000D+00      0.109D-01      -129.81147618    154.610651    0.00000    0.61924   -0.20665    1    diag
    3      0.122D-01      0.857D-02      -129.83624833    154.755699    0.00000    0.56762   -0.61623    2    diag
    4      0.614D-02      0.130D-02      -129.83707029    154.456822    0.00000    0.57444   -0.55389    3    diag
    5      0.109D-02      0.428D-03      -129.83720053    154.551874    0.00000    0.58001   -0.55649    4    diag
    6      0.459D-03      0.123D-03      -129.83722124    154.536191    0.00000    0.58033   -0.55217    5    diag
    7      0.175D-03      0.618D-04      -129.83722742    154.538543    0.00000    0.58153   -0.54943    6    diag
    8      0.122D-03      0.220D-04      -129.83722816    154.537846    0.00000    0.58155   -0.54832    7    diag
    9      0.491D-04      0.423D-05      -129.83722820    154.537726    0.00000    0.58151   -0.54809    8    diag
   10      0.974D-05      0.940D-06      -129.83722820    154.537707    0.00000    0.58147   -0.54806    9    orth
   11      0.186D-05      0.184D-06      -129.83722820    154.537704    0.00000    0.58147   -0.54806    9    diag
   12      0.344D-06      0.388D-07      -129.83722820    154.537704    0.00000    0.58146   -0.54806    9    diag
   13      0.734D-07      0.102D-07      -129.83722820    154.537704    0.00000    0.58146   -0.54806    9    diag
   14      0.201D-07      0.211D-08      -129.83722820    154.537704    0.00000    0.58146   -0.54806    9    diag
   15      0.382D-08      0.582D-09      -129.83722820    154.537704    0.00000    0.58146   -0.54806    9    diag
   16      0.107D-08      0.153D-09      -129.83722820    154.537704    0.00000    0.58146   -0.54806    9    diag
   17      0.173D-09      0.412D-10      -129.83722820    154.537704    0.00000    0.58146   -0.54806    9    diag
   18      0.486D-10      0.143D-10      -129.83722820    154.537704    0.00000    0.58146   -0.54806    9    diag
   19      0.246D-10      0.308D-11      -129.83722820    154.537704    0.00000    0.58146   -0.54806    9    fixocc
   20      0.628D-11      0.488D-12      -129.83722820    154.537704    0.00000    0.58146   -0.54806    0    orth

 Final occupancy:   7   1

 !RHF STATE 1.1 Energy               -129.837228197330
 Nuclear energy                        30.07793612
 One-electron energy                 -237.18401635
 Two-electron energy                   77.26885203
 Virial quotient                       -1.00252691
 !RHF STATE 1.1 Dipole moment           0.00000000     0.58146296    -0.54805623
 Dipole moment /Debye                   0.00000000     1.47783462    -1.39292874

 Orbital energies:

         1.1          2.1          3.1          4.1          5.1          6.1          7.1          8.1          9.1
    -20.657992   -15.716127    -1.519153    -0.999996    -0.743611    -0.662187    -0.434599     0.028938     0.092078

         1.2          2.2          3.2
     -0.589493     0.060820     0.129750

 HOMO      7.1    -0.434599 =     -11.8260eV
 LUMO      8.1     0.028938 =       0.7874eV
 LUMO-HOMO         0.463536 =      12.6135eV


 **********************************************************************************************************************************
 DATASETS  * FILE   NREC   LENGTH (MB)   RECORD NAMES
              1      19      111.05       500      610      700      900      950      970     1000      129      960     1100   
                                          VAR    BASINP    GEOM    SYMINP    ZMAT    AOBASIS   BASIS     P2S    ABASIS      S 
                                         1400     1410     1200     1210     1080     1600     1650     1300     1700   
                                           T        V       H0       H01     AOSYM     SMH    MOLCAS    ERIS     OPER   

              2       4        2.94       700     1000      520     2100   
                                         GEOM     BASIS   MCVARS     RHF  

 PROGRAMS   *        TOTAL        HF       INT
 CPU TIMES  *         2.41      1.05      1.27
 REAL TIME  *         3.51 SEC
 DISK USED  *       327.55 MB      
 **********************************************************************************************************************************


 PROGRAM * CCSD (Closed-shell coupled cluster)     Authors: C. Hampel, H.-J. Werner, 1991, M. Deegan, P.J. Knowles, 1992


 Convergence thresholds:  THRVAR = 1.00D-08  THRDEN = 1.00D-12

 CCSD(T)     terms to be evaluated (factor= 1.000)


 Number of core orbitals:           2 (   2   0 )
 Number of closed-shell orbitals:   6 (   5   1 )
 Number of external orbitals:     107 (  69  38 )

 Molecular orbitals read from record     2100.2  Type=RHF/CANONICAL (state 1.1)

 Number of N-1 electron functions:               6
 Number of N-2 electron functions:              21
 Number of singly external CSFs:               383
 Number of doubly external CSFs:            107206
 Total number of CSFs:                      107590

 Length of J-op  integral file:               0.00 MB
 Length of K-op  integral file:               0.54 MB
 Length of 3-ext integral record:             0.00 MB

 Memory could be reduced to 5.94 Mwords without degradation in triples

 Integral transformation finished. Total CPU:   0.15 sec, npass=  1  Memory used:   1.65 MW

 Reference energy:                   -129.83722820

 MP2 singlet pair energy:              -0.28082446
 MP2 triplet pair energy:              -0.16612300
 MP2 correlation energy:               -0.44694746
 MP2 total energy:                   -130.28417566

 SCS-MP2 correlation energy:           -0.44035478   (PS=  1.200000  PT=  0.333333)
 SCS-MP2 total energy:               -130.27758297

 ITER.      SQ.NORM     CORR.ENERGY   TOTAL ENERGY   ENERGY CHANGE        DEN1      VAR(S)    VAR(P)  DIIS     TIME  TIME/IT
   1      1.12235632    -0.45051503  -130.28774322    -0.00356756     0.01307673  0.33D-02  0.33D-02  1  1     0.30     0.17
   2      1.13381952    -0.45059846  -130.28782666    -0.00008343    -0.01277800  0.11D-03  0.53D-03  2  2     0.46     0.17
   3      1.14060997    -0.45102214  -130.28825033    -0.00042368    -0.00309075  0.58D-04  0.55D-04  3  3     0.62     0.17
   4      1.14368131    -0.45103482  -130.28826302    -0.00001268    -0.00102389  0.46D-05  0.99D-05  4  4     0.75     0.17
   5      1.14483011    -0.45106636  -130.28829456    -0.00003155    -0.00024188  0.12D-05  0.17D-05  5  5     0.90     0.18
   6      1.14519862    -0.45104746  -130.28827566     0.00001891    -0.00004533  0.10D-06  0.41D-06  6  6     1.06     0.18
   7      1.14527448    -0.45104899  -130.28827719    -0.00000153    -0.00000132  0.18D-07  0.99D-07  6  1     1.21     0.18
   8      1.14529633    -0.45104958  -130.28827778    -0.00000059     0.00000162  0.36D-08  0.19D-07  6  2     1.38     0.18
   9      1.14530537    -0.45104894  -130.28827714     0.00000064    -0.00000087  0.28D-08  0.20D-08  6  3     1.52     0.18
  10      1.14530558    -0.45104949  -130.28827769    -0.00000055    -0.00000004  0.56D-09  0.29D-09  6  4     1.68     0.18
  11      1.14530389    -0.45104962  -130.28827781    -0.00000013     0.00000055  0.17D-09  0.37D-10  6  5     1.83     0.18
  12      1.14530249    -0.45104982  -130.28827802    -0.00000020     0.00000044  0.17D-10  0.10D-10  6  6     1.98     0.18
  13      1.14530171    -0.45104984  -130.28827804    -0.00000002     0.00000019  0.60D-11  0.20D-11  6  1     2.13     0.18
  14      1.14530123    -0.45104987  -130.28827806    -0.00000002     0.00000010  0.90D-12  0.64D-12  6  2     2.28     0.18
  15      1.14530103    -0.45104987  -130.28827807    -0.00000001     0.00000002  0.26D-12  0.19D-12  6  3     2.43     0.18
  16      1.14530093    -0.45104988  -130.28827807    -0.00000000     0.00000001  0.43D-13  0.69D-13  6  4     2.58     0.18
  17      1.14530087    -0.45104988  -130.28827808    -0.00000000     0.00000001  0.30D-14  0.16D-13  6  5     2.74     0.18
  18      1.14530086    -0.45104988  -130.28827808     0.00000000     0.00000000  0.12D-14  0.37D-14  6  6     2.89     0.18
  19      1.14530086    -0.45104988  -130.28827808     0.00000000    -0.00000000  0.16D-15  0.26D-15  6  5     3.04     0.18
  20      1.14530086    -0.45104988  -130.28827808    -0.00000000    -0.00000000  0.65D-16  0.43D-16  6  1     3.19     0.18
  21      1.14530086    -0.45104988  -130.28827808     0.00000000     0.00000000  0.15D-16  0.95D-17  6  2     3.33     0.18
  22      1.14530086    -0.45104988  -130.28827808    -0.00000000     0.00000000  0.41D-17  0.11D-17  6  3     3.46     0.18
  23      1.14530086    -0.45104988  -130.28827808     0.00000000     0.00000000  0.10D-17  0.35D-18  6  4     3.63     0.18
  24      1.14530086    -0.45104988  -130.28827808    -0.00000000     0.00000000  0.30D-18  0.66D-19  6  6     3.77     0.18
  25      1.14530086    -0.45104988  -130.28827808     0.00000000    -0.00000000  0.49D-19  0.31D-19  6  5     3.93     0.18
  26      1.14530086    -0.45104988  -130.28827808     0.00000000    -0.00000000  0.71D-20  0.12D-19  6  1     4.08     0.18
  27      1.14530086    -0.45104988  -130.28827808    -0.00000000    -0.00000000  0.35D-21  0.17D-20  6  3     4.24     0.18
  28      1.14530086    -0.45104988  -130.28827808     0.00000000     0.00000000  0.87D-22  0.22D-21  6  2     4.41     0.18

 Norm of t1 vector:      0.08079352      S-energy:     0.00000000      T1 diagnostic:  0.01649191
                                                                       D1 diagnostic:  0.04408053

 Doubles amplitudes (print threshold =  0.500E-01):

         I         J         SYM. A    SYM. B    A         B      T(IJ, AB)

         6         6         2         2         1         1     -0.11513224


 Total CPU time for triples:      1.35 sec


 RESULTS
 =======

  Reference energy                   -129.837228197330
  CCSD singlet pair energy             -0.309560500017
  CCSD triplet pair energy             -0.141489378353
  CCSD correlation energy              -0.451049878370

  Triples (T) contribution             -0.021332564364
  Total correlation energy             -0.472382442733

  CCSD total energy                  -130.288278075699
  CCSD[T] energy                     -130.310739389326
  CCSD-T energy                      -130.309192738533
 !CCSD(T) total energy               -130.309610640063

 Timing summary (sec):

 STEP                 CPU(USER)    SYS     CPU(TOT)    WALL
 Transformation          0.15      0.04      0.19      0.19
 CCSD iterations         4.27      0.73      5.00      5.00
 Triples                 1.35      0.09      1.44      1.43

 Program statistics:

 Available memory in ccsd:               994999756
 Min. memory needed in ccsd:                389120
 Max. memory used in ccsd:                  473124
 Max. memory used in cckext:                599488 (28 integral passes)



 **********************************************************************************************************************************
 DATASETS  * FILE   NREC   LENGTH (MB)   RECORD NAMES
              1      20      128.20       500      610      700      900      950      970     1000      129      960     1100   
                                          VAR    BASINP    GEOM    SYMINP    ZMAT    AOBASIS   BASIS     P2S    ABASIS      S 
                                         1400     1410     1200     1210     1080     1600     1650     1300     1700     1380   
                                           T        V       H0       H01     AOSYM     SMH    MOLCAS    ERIS     OPER     JKOP   

              2       4        2.94       700     1000      520     2100   
                                         GEOM     BASIS   MCVARS     RHF  

 PROGRAMS   *        TOTAL   CCSD(T)        HF       INT
 CPU TIMES  *         8.20      5.79      1.05      1.27
 REAL TIME  *        10.17 SEC
 DISK USED  *       327.55 MB      
 **********************************************************************************************************************************

 CCSD(T)/aug-cc-pVTZ energy=   -130.309610640063

        CCSD(T)         HF-SCF  
   -130.30961064   -129.83722820
 **********************************************************************************************************************************
 Molpro calculation terminated
 Variable memory released
