
 Primary working directories    : /tmp/r2666/234893.maple
 Secondary working directories  : /tmp/r2666/234893.maple
 Wavefunction directory         : /ddn/home4/r2666/wfu/
 Main file repository           : /tmp/r2666/234893.maple/

 SHA1      : d5ffa45e93fdbca01ffc919aa182cfdae0147319
 NAME      : 2015.1.35
 ARCHNAME  : linux/x86_64
 FC        : /opt/intel/composer_xe_2015.1.133/bin/intel64/ifort
 BLASLIB   : -Wl,-_start-group /opt/intel/mkl/lib/intel64/libmkl_intel_ilp64.a /opt/intel/mkl/lib/intel64/libmkl_intel_thread.a /opt/intel/mkl/lib/intel64/libmkl_core.a -Wl,-_end-group
 id        : olemiss

 Nodes     nprocs
 cn076        1

 Using customized tuning parameters: mindgm=1; mindgv=20; mindgc=4; mindgr=1; noblas=0; minvec=7
 default implementation of scratch files=df  

 ***,hno CCSD(T)/TZ-F12 QFF
 memory, 995, m;
 gthresh,energy=1.d-12,zero=1.d-22,oneint=1.d-22,twoint=1.d-22;
 gthresh,optgrad=1.d-8,optstep=1.d-8;
 nocompress;
 geomtyp=xyz
 bohr
 geometry={
 3
          7         7
 N        0.0000000000       -0.1440630030       -1.1556366482
 H        0.0000000000        1.6552186766       -1.9321999065
 O        0.0000000000        0.0306121164        1.1372469637
 }
 
 basis=avtz
   {hf,maxit=500;accu,20;}
 {ccsd(t),nocheck,maxit=250;orbital,IGNORE_ERROR;}

 Variables initialized (889), CPU time= 0.01 sec
 Commands  initialized (702), CPU time= 0.01 sec, 572 directives.
 Default parameters read. Elapsed time= 0.04 sec

 Checking input...
 Passed
1


                                         ***  PROGRAM SYSTEM MOLPRO  ***
                                       Copyright, TTI GmbH Stuttgart, 2015
                                    Version 2015.1 linked Jul  9 2018 13:16:40


 **********************************************************************************************************************************
 LABEL *   hno CCSD(T)/TZ-F12 QFF                                                        
  64 bit serial version                                                                  DATE: 08-Feb-20          TIME: 17:55:49  
 **********************************************************************************************************************************

 SHA1:             d5ffa45e93fdbca01ffc919aa182cfdae0147319
 **********************************************************************************************************************************

 THRESHOLDS:

 ZERO    =  1.00D-22  ONEINT  =  1.00D-22  TWOINT  =  1.00D-22  PREFAC  =  1.00D-14  LOCALI  =  1.00D-09  EORDER  =  1.00D-04
 ENERGY  =  1.00D-12  ETEST   =  0.00D+00  EDENS   =  0.00D+00  THRDEDEF=  1.00D-06  GRADIENT=  1.00D-02  STEP    =  1.00D-03
 ORBITAL =  1.00D-05  CIVEC   =  1.00D-05  COEFF   =  1.00D-04  PRINTCI =  5.00D-02  PUNCHCI =  9.90D+01  OPTGRAD =  3.00D-04
 OPTENERG=  1.00D-06  OPTSTEP =  3.00D-04  THRGRAD =  1.00D-10  COMPRESS=  1.00D-11  VARMIN  =  1.00D-07  VARMAX  =  1.00D-03
 THRDOUB =  0.00D+00  THRDIV  =  1.00D-05  THRRED  =  1.00D-07  THRPSP  =  1.00D+00  THRDC   =  1.00D-10  THRCS   =  1.00D-10
 THRNRM  =  1.00D-08  THREQ   =  0.00D+00  THRDE   =  1.00D+00  THRREF  =  1.00D-05  SPARFAC =  1.00D+00  THRDLP  =  1.00D-07
 THRDIA  =  1.00D-10  THRDLS  =  1.00D-07  THRGPS  =  0.00D+00  THRKEX  =  0.00D+00  THRDIS  =  2.00D-01  THRVAR  =  1.00D-10
 THRLOC  =  1.00D-06  THRGAP  =  1.00D-06  THRLOCT = -1.00D+00  THRGAPT = -1.00D+00  THRORB  =  1.00D-06  THRMLTP =  0.00D+00
 THRCPQCI=  1.00D-10  KEXTA   =  0.00D+00  THRCOARS=  0.00D+00  SYMTOL  =  1.00D-06  GRADTOL =  1.00D-06  THROVL  =  1.00D-08
 THRORTH =  1.00D-08  GRID    =  1.00D-06  GRIDMAX =  1.00D-03  DTMAX   =  0.00D+00  THROCCDE=  1.00D-01  THROCCDE=  1.00D-01



 THRESHOLDS:

 ZERO    =  1.00D-22  ONEINT  =  1.00D-22  TWOINT  =  1.00D-22  PREFAC  =  1.00D-14  LOCALI  =  1.00D-09  EORDER  =  1.00D-04
 ENERGY  =  1.00D-12  ETEST   =  0.00D+00  EDENS   =  0.00D+00  THRDEDEF=  1.00D-06  GRADIENT=  1.00D-02  STEP    =  1.00D-03
 ORBITAL =  1.00D-05  CIVEC   =  1.00D-05  COEFF   =  1.00D-04  PRINTCI =  5.00D-02  PUNCHCI =  9.90D+01  OPTGRAD =  1.00D-08
 OPTENERG=  1.00D-06  OPTSTEP =  1.00D-08  THRGRAD =  1.00D-10  COMPRESS=  1.00D-11  VARMIN  =  1.00D-07  VARMAX  =  1.00D-03
 THRDOUB =  0.00D+00  THRDIV  =  1.00D-05  THRRED  =  1.00D-07  THRPSP  =  1.00D+00  THRDC   =  1.00D-10  THRCS   =  1.00D-10
 THRNRM  =  1.00D-08  THREQ   =  0.00D+00  THRDE   =  1.00D+00  THRREF  =  1.00D-05  SPARFAC =  1.00D+00  THRDLP  =  1.00D-07
 THRDIA  =  1.00D-10  THRDLS  =  1.00D-07  THRGPS  =  0.00D+00  THRKEX  =  0.00D+00  THRDIS  =  2.00D-01  THRVAR  =  1.00D-10
 THRLOC  =  1.00D-06  THRGAP  =  1.00D-06  THRLOCT = -1.00D+00  THRGAPT = -1.00D+00  THRORB  =  1.00D-06  THRMLTP =  0.00D+00
 THRCPQCI=  1.00D-10  KEXTA   =  0.00D+00  THRCOARS=  0.00D+00  SYMTOL  =  1.00D-06  GRADTOL =  1.00D-06  THROVL  =  1.00D-08
 THRORTH =  1.00D-08  GRID    =  1.00D-06  GRIDMAX =  1.00D-03  DTMAX   =  0.00D+00  THROCCDE=  1.00D-01  THROCCDE=  1.00D-01



 Input parameters for SORTINT:

 COMPRESS =    0.000000
 C_FINAL  =    1.000000
 DEBUG    =   -1.000000
 C_SORT1  =    0.000000
 C_SEWARD =    0.000000
 THRESH   =    0.000000
 IO       =  molpro                                                          
 SPRI     =    0.000000
 SETTING GEOMTYP        =    XYZ
 ZUNIT=BOHR
 

 Variable memory set to  995000000 words,  buffer space   230000 words

 SETTING BASIS          =    AVTZ


 Recomputing integrals since basis changed


 Using spherical harmonics

 Library entry N      S aug-cc-pVTZ          selected for orbital group  1
 Library entry N      P aug-cc-pVTZ          selected for orbital group  1
 Library entry N      D aug-cc-pVTZ          selected for orbital group  1
 Library entry N      F aug-cc-pVTZ          selected for orbital group  1
 Library entry H      S aug-cc-pVTZ          selected for orbital group  2
 Library entry H      P aug-cc-pVTZ          selected for orbital group  2
 Library entry H      D aug-cc-pVTZ          selected for orbital group  2
 Library entry O      S aug-cc-pVTZ          selected for orbital group  3
 Library entry O      P aug-cc-pVTZ          selected for orbital group  3
 Library entry O      D aug-cc-pVTZ          selected for orbital group  3
 Library entry O      F aug-cc-pVTZ          selected for orbital group  3


 PROGRAM * SEWARD (Integral evaluation for generally contracted gaussian basis sets)     Author: Roland Lindh, 1990

 Geometry written to block  1 of record 700


 Point group  Cs  



 ATOMIC COORDINATES

 NR  ATOM    CHARGE       X              Y              Z

   1  N       7.00    0.000000000   -0.144063003   -1.155636648
   2  H       1.00    0.000000000    1.655218677   -1.932199906
   3  O       8.00    0.000000000    0.030612116    1.137246964

 Bond lengths in Bohr (Angstrom)

 1-2  1.959710452  1-3  2.299527485
     ( 1.037034111)     ( 1.216857541)

 Bond angles

  2-1-3  108.98838867

 NUCLEAR CHARGE:                   16
 NUMBER OF PRIMITIVE AOS:         161
 NUMBER OF SYMMETRY AOS:          141
 NUMBER OF CONTRACTIONS:          115   (  76A'  +  39A"  )
 NUMBER OF CORE ORBITALS:           2   (   2A'  +   0A"  )
 NUMBER OF VALENCE ORBITALS:        9   (   7A'  +   2A"  )


 NUCLEAR REPULSION ENERGY   30.22835332

 Eigenvalues of metric

         1 0.233E-03 0.493E-03 0.182E-02 0.211E-02 0.259E-02 0.370E-02 0.428E-02 0.502E-02
         2 0.404E-02 0.978E-02 0.264E-01 0.367E-01 0.511E-01 0.616E-01 0.818E-01 0.120E+00


 Contracted 2-electron integrals neglected if value below      1.0D-22

       10790064. INTEGRALS WRITTEN OUT IN    2635 BLOCKS ON RECORD 1290 OF FILE 1


 NUMBER OF SORTED TWO-ELECTRON INTEGRALS:   11433631.     BUFFER LENGTH:  32768
 NUMBER OF SEGMENTS:   1  SEGMENT LENGTH:   11433631      RECORD LENGTH: 524288

 Memory used in sort:      11.99 MW

 SORT1 READ    10790064. AND WROTE    10943632. INTEGRALS IN     32 RECORDS. CPU TIME:     0.15 SEC, REAL TIME:     0.22 SEC
 SORT2 READ    10943632. AND WROTE    11433631. INTEGRALS IN      1 RECORDS. CPU TIME:     0.16 SEC, REAL TIME:     0.22 SEC

 FILE SIZES:   FILE 1:   193.0 MBYTE,  FILE 4:   134.3 MBYTE,   TOTAL:    327.2 MBYTE

 OPERATOR DM      FOR CENTER  0  COORDINATES:    0.000000    0.000000    0.000000


 **********************************************************************************************************************************
 DATASETS  * FILE   NREC   LENGTH (MB)   RECORD NAMES
              1      19      111.05       500      610      700      900      950      970     1000      129      960     1100   
                                          VAR    BASINP    GEOM    SYMINP    ZMAT    AOBASIS   BASIS     P2S    ABASIS      S 
                                         1400     1410     1200     1210     1080     1600     1650     1300     1700   
                                           T        V       H0       H01     AOSYM     SMH    MOLCAS    ERIS     OPER   

 PROGRAMS   *        TOTAL       INT
 CPU TIMES  *         1.32      1.23
 REAL TIME  *         2.08 SEC
 DISK USED  *       327.55 MB      
 **********************************************************************************************************************************


 PROGRAM * RHF-SCF (CLOSED SHELL)       Authors: W. Meyer, H.-J. Werner


 NUMBER OF ELECTRONS:       8+    8-
 CONVERGENCE THRESHOLDS:    1.00E-10 (Density)    1.00E-13 (Energy)
 MAX. NUMBER OF ITERATIONS:      500
 INTERPOLATION TYPE:            DIIS
 INTERPOLATION STEPS:              2 (START)      1 (STEP)
 LEVEL SHIFTS:                  0.00 (CLOSED)  0.00 (OPEN) 



 Orbital guess generated from atomic densities. Full valence occupancy:    9   2

 Molecular orbital dump at record        2100.2

 Initial occupancy:   7   1

 ITERATION    DDIFF          GRAD             ENERGY        2-EL.EN.            DIPOLE MOMENTS         DIIS   ORB.
    1      0.000D+00      0.000D+00      -129.78691664    153.649752    0.00000    0.61209   -1.04884    0    start
    2      0.000D+00      0.108D-01      -129.81408624    154.887039    0.00000    0.61659   -0.21468    1    diag
    3      0.120D-01      0.834D-02      -129.83742140    155.021844    0.00000    0.56918   -0.61016    2    diag
    4      0.600D-02      0.130D-02      -129.83823150    154.728282    0.00000    0.57611   -0.54855    3    diag
    5      0.109D-02      0.423D-03      -129.83835769    154.822087    0.00000    0.58156   -0.55120    4    diag
    6      0.452D-03      0.121D-03      -129.83837759    154.806617    0.00000    0.58191   -0.54700    5    diag
    7      0.171D-03      0.606D-04      -129.83838347    154.808970    0.00000    0.58309   -0.54433    6    diag
    8      0.119D-03      0.212D-04      -129.83838415    154.808302    0.00000    0.58311   -0.54327    7    diag
    9      0.467D-04      0.403D-05      -129.83838418    154.808192    0.00000    0.58307   -0.54305    8    diag
   10      0.913D-05      0.906D-06      -129.83838418    154.808174    0.00000    0.58304   -0.54302    9    orth
   11      0.178D-05      0.177D-06      -129.83838418    154.808171    0.00000    0.58303   -0.54302    9    diag
   12      0.332D-06      0.369D-07      -129.83838418    154.808171    0.00000    0.58303   -0.54302    9    diag
   13      0.705D-07      0.950D-08      -129.83838418    154.808171    0.00000    0.58303   -0.54302    9    diag
   14      0.188D-07      0.196D-08      -129.83838418    154.808171    0.00000    0.58303   -0.54302    9    diag
   15      0.361D-08      0.540D-09      -129.83838418    154.808171    0.00000    0.58303   -0.54302    9    diag
   16      0.100D-08      0.143D-09      -129.83838418    154.808171    0.00000    0.58303   -0.54302    9    diag
   17      0.164D-09      0.377D-10      -129.83838418    154.808171    0.00000    0.58303   -0.54302    9    diag
   18      0.441D-10      0.129D-10      -129.83838418    154.808171    0.00000    0.58303   -0.54302    9    diag
   19      0.220D-10      0.267D-11      -129.83838418    154.808171    0.00000    0.58303   -0.54302    9    fixocc
   20      0.521D-11      0.367D-12      -129.83838418    154.808171    0.00000    0.58303   -0.54302    9    orth
   21      0.114D-11      0.113D-12      -129.83838418    154.808171    0.00000    0.58303   -0.54302    9    diag
   22      0.802D-12      0.658D-13      -129.83838418    154.808171    0.00000    0.58303   -0.54302    0    orth

 Final occupancy:   7   1

 !RHF STATE 1.1 Energy               -129.838384177342
 Nuclear energy                        30.22835332
 One-electron energy                 -237.47082295
 Two-electron energy                   77.40408545
 Virial quotient                       -1.00225875
 !RHF STATE 1.1 Dipole moment           0.00000000     0.58302686    -0.54301829
 Dipole moment /Debye                   0.00000000     1.48180940    -1.38012442

 Orbital energies:

         1.1          2.1          3.1          4.1          5.1          6.1          7.1          8.1          9.1
    -20.657377   -15.713843    -1.523366    -1.001518    -0.746266    -0.663723    -0.433481     0.029006     0.092091

         1.2          2.2          3.2
     -0.591751     0.062234     0.129662

 HOMO      7.1    -0.433481 =     -11.7956eV
 LUMO      8.1     0.029006 =       0.7893eV
 LUMO-HOMO         0.462487 =      12.5849eV


 **********************************************************************************************************************************
 DATASETS  * FILE   NREC   LENGTH (MB)   RECORD NAMES
              1      19      111.05       500      610      700      900      950      970     1000      129      960     1100   
                                          VAR    BASINP    GEOM    SYMINP    ZMAT    AOBASIS   BASIS     P2S    ABASIS      S 
                                         1400     1410     1200     1210     1080     1600     1650     1300     1700   
                                           T        V       H0       H01     AOSYM     SMH    MOLCAS    ERIS     OPER   

              2       4        2.94       700     1000      520     2100   
                                         GEOM     BASIS   MCVARS     RHF  

 PROGRAMS   *        TOTAL        HF       INT
 CPU TIMES  *         2.44      1.12      1.23
 REAL TIME  *         3.54 SEC
 DISK USED  *       327.55 MB      
 **********************************************************************************************************************************


 PROGRAM * CCSD (Closed-shell coupled cluster)     Authors: C. Hampel, H.-J. Werner, 1991, M. Deegan, P.J. Knowles, 1992


 Convergence thresholds:  THRVAR = 1.00D-08  THRDEN = 1.00D-12

 CCSD(T)     terms to be evaluated (factor= 1.000)


 Number of core orbitals:           2 (   2   0 )
 Number of closed-shell orbitals:   6 (   5   1 )
 Number of external orbitals:     107 (  69  38 )

 Molecular orbitals read from record     2100.2  Type=RHF/CANONICAL (state 1.1)

 Number of N-1 electron functions:               6
 Number of N-2 electron functions:              21
 Number of singly external CSFs:               383
 Number of doubly external CSFs:            107206
 Total number of CSFs:                      107590

 Length of J-op  integral file:               0.00 MB
 Length of K-op  integral file:               0.54 MB
 Length of 3-ext integral record:             0.00 MB

 Memory could be reduced to 5.94 Mwords without degradation in triples

 Integral transformation finished. Total CPU:   0.14 sec, npass=  1  Memory used:   1.65 MW

 Reference energy:                   -129.83838418

 MP2 singlet pair energy:              -0.28003461
 MP2 triplet pair energy:              -0.16561175
 MP2 correlation energy:               -0.44564635
 MP2 total energy:                   -130.28403053

 SCS-MP2 correlation energy:           -0.43908884   (PS=  1.200000  PT=  0.333333)
 SCS-MP2 total energy:               -130.27747301

 ITER.      SQ.NORM     CORR.ENERGY   TOTAL ENERGY   ENERGY CHANGE        DEN1      VAR(S)    VAR(P)  DIIS     TIME  TIME/IT
   1      1.12145102    -0.44944590  -130.28783007    -0.00379955     0.01253461  0.32D-02  0.32D-02  1  1     0.28     0.16
   2      1.13272088    -0.44957872  -130.28796289    -0.00013282    -0.01259501  0.11D-03  0.52D-03  2  2     0.43     0.16
   3      1.13934032    -0.44998698  -130.28837116    -0.00040826    -0.00303396  0.55D-04  0.53D-04  3  3     0.58     0.16
   4      1.14232892    -0.45000074  -130.28838492    -0.00001376    -0.00100021  0.43D-05  0.96D-05  4  4     0.73     0.16
   5      1.14342768    -0.45003055  -130.28841473    -0.00002981    -0.00023133  0.11D-05  0.17D-05  5  5     0.87     0.17
   6      1.14378353    -0.45001255  -130.28839672     0.00001800    -0.00004367  0.93D-07  0.42D-06  6  6     1.02     0.17
   7      1.14385807    -0.45001419  -130.28839836    -0.00000164    -0.00000138  0.17D-07  0.99D-07  6  1     1.17     0.17
   8      1.14387930    -0.45001486  -130.28839903    -0.00000067     0.00000178  0.37D-08  0.18D-07  6  2     1.30     0.17
   9      1.14388799    -0.45001427  -130.28839845     0.00000058    -0.00000094  0.28D-08  0.19D-08  6  3     1.44     0.17
  10      1.14388812    -0.45001481  -130.28839898    -0.00000053    -0.00000001  0.55D-09  0.27D-09  6  4     1.57     0.17
  11      1.14388646    -0.45001493  -130.28839911    -0.00000012     0.00000054  0.16D-09  0.35D-10  6  5     1.72     0.17
  12      1.14388511    -0.45001512  -130.28839930    -0.00000019     0.00000043  0.16D-10  0.96D-11  6  6     1.86     0.17
  13      1.14388436    -0.45001515  -130.28839932    -0.00000002     0.00000018  0.56D-11  0.19D-11  6  1     2.00     0.17
  14      1.14388391    -0.45001517  -130.28839935    -0.00000002     0.00000010  0.82D-12  0.61D-12  6  2     2.14     0.17
  15      1.14388372    -0.45001518  -130.28839935    -0.00000000     0.00000002  0.24D-12  0.19D-12  6  3     2.28     0.17
  16      1.14388363    -0.45001518  -130.28839935    -0.00000000     0.00000001  0.39D-13  0.68D-13  6  4     2.44     0.17
  17      1.14388357    -0.45001518  -130.28839936    -0.00000000     0.00000001  0.29D-14  0.15D-13  6  5     2.58     0.17
  18      1.14388356    -0.45001518  -130.28839936     0.00000000     0.00000000  0.13D-14  0.34D-14  6  6     2.74     0.17
  19      1.14388356    -0.45001518  -130.28839936     0.00000000    -0.00000000  0.17D-15  0.24D-15  6  5     2.88     0.17
  20      1.14388356    -0.45001518  -130.28839936    -0.00000000    -0.00000000  0.67D-16  0.42D-16  6  1     3.02     0.17
  21      1.14388356    -0.45001518  -130.28839936     0.00000000     0.00000000  0.15D-16  0.93D-17  6  2     3.16     0.17
  22      1.14388356    -0.45001518  -130.28839936    -0.00000000     0.00000000  0.40D-17  0.10D-17  6  3     3.31     0.17
  23      1.14388356    -0.45001518  -130.28839936     0.00000000     0.00000000  0.98D-18  0.33D-18  6  4     3.44     0.17
  24      1.14388356    -0.45001518  -130.28839936    -0.00000000     0.00000000  0.27D-18  0.64D-19  6  6     3.61     0.17
  25      1.14388356    -0.45001518  -130.28839936     0.00000000    -0.00000000  0.45D-19  0.30D-19  6  5     3.75     0.17
  26      1.14388356    -0.45001518  -130.28839936     0.00000000    -0.00000000  0.61D-20  0.11D-19  6  1     3.89     0.17
  27      1.14388356    -0.45001518  -130.28839936    -0.00000000    -0.00000000  0.29D-21  0.16D-20  6  3     4.04     0.17
  28      1.14388356    -0.45001518  -130.28839936     0.00000000     0.00000000  0.79D-22  0.20D-21  6  2     4.17     0.17

 Norm of t1 vector:      0.07951706      S-energy:     0.00000000      T1 diagnostic:  0.01623135
                                                                       D1 diagnostic:  0.04334155

 Doubles amplitudes (print threshold =  0.500E-01):

         I         J         SYM. A    SYM. B    A         B      T(IJ, AB)

         6         6         2         2         1         1     -0.11297603


 Total CPU time for triples:      1.13 sec


 RESULTS
 =======

  Reference energy                   -129.838384177342
  CCSD singlet pair energy             -0.308672087294
  CCSD triplet pair energy             -0.141343093215
  CCSD correlation energy              -0.450015180509

  Triples (T) contribution             -0.021104125435
  Total correlation energy             -0.471119305944

  CCSD total energy                  -130.288399357852
  CCSD[T] energy                     -130.310598636550
  CCSD-T energy                      -130.309094648800
 !CCSD(T) total energy               -130.309503483286

 Timing summary (sec):

 STEP                 CPU(USER)    SYS     CPU(TOT)    WALL
 Transformation          0.14      0.03      0.17      0.18
 CCSD iterations         4.03      0.70      4.73      4.73
 Triples                 1.13      0.06      1.19      1.19

 Program statistics:

 Available memory in ccsd:               994999756
 Min. memory needed in ccsd:                389120
 Max. memory used in ccsd:                  473124
 Max. memory used in cckext:                599488 (28 integral passes)



 **********************************************************************************************************************************
 DATASETS  * FILE   NREC   LENGTH (MB)   RECORD NAMES
              1      20      128.20       500      610      700      900      950      970     1000      129      960     1100   
                                          VAR    BASINP    GEOM    SYMINP    ZMAT    AOBASIS   BASIS     P2S    ABASIS      S 
                                         1400     1410     1200     1210     1080     1600     1650     1300     1700     1380   
                                           T        V       H0       H01     AOSYM     SMH    MOLCAS    ERIS     OPER     JKOP   

              2       4        2.94       700     1000      520     2100   
                                         GEOM     BASIS   MCVARS     RHF  

 PROGRAMS   *        TOTAL   CCSD(T)        HF       INT
 CPU TIMES  *         7.78      5.33      1.12      1.23
 REAL TIME  *         9.67 SEC
 DISK USED  *       327.55 MB      
 **********************************************************************************************************************************

 CCSD(T)/aug-cc-pVTZ energy=   -130.309503483286

        CCSD(T)         HF-SCF  
   -130.30950348   -129.83838418
 **********************************************************************************************************************************
 Molpro calculation terminated
 Variable memory released
