
 Primary working directories    : /tmp/r2666/234940.maple
 Secondary working directories  : /tmp/r2666/234940.maple
 Wavefunction directory         : /ddn/home4/r2666/wfu/
 Main file repository           : /tmp/r2666/234940.maple/

 SHA1      : d5ffa45e93fdbca01ffc919aa182cfdae0147319
 NAME      : 2015.1.35
 ARCHNAME  : linux/x86_64
 FC        : /opt/intel/composer_xe_2015.1.133/bin/intel64/ifort
 BLASLIB   : -Wl,-_start-group /opt/intel/mkl/lib/intel64/libmkl_intel_ilp64.a /opt/intel/mkl/lib/intel64/libmkl_intel_thread.a /opt/intel/mkl/lib/intel64/libmkl_core.a -Wl,-_end-group
 id        : olemiss

 Nodes     nprocs
 cn035        1

 Using customized tuning parameters: mindgm=1; mindgv=20; mindgc=4; mindgr=1; noblas=0; minvec=7
 default implementation of scratch files=df  

 ***,hno CCSD(T)/TZ-F12 QFF
 memory, 995, m;
 gthresh,energy=1.d-12,zero=1.d-22,oneint=1.d-22,twoint=1.d-22;
 gthresh,optgrad=1.d-8,optstep=1.d-8;
 nocompress;
 geomtyp=xyz
 bohr
 geometry={
 3
         54        54
 N        0.0000000000       -0.1693339810       -1.1542913293
 H        0.0000000000        1.6663355770       -1.9176295855
 O        0.0000000000        0.0447661940        1.1213313238
 }
 
 basis=avtz
   {hf,maxit=500;accu,20;}
 {ccsd(t),nocheck,maxit=250;orbital,IGNORE_ERROR;}

 Variables initialized (889), CPU time= 0.00 sec
 Commands  initialized (702), CPU time= 0.01 sec, 572 directives.
 Default parameters read. Elapsed time= 0.04 sec

 Checking input...
 Passed
1


                                         ***  PROGRAM SYSTEM MOLPRO  ***
                                       Copyright, TTI GmbH Stuttgart, 2015
                                    Version 2015.1 linked Jul  9 2018 13:16:40


 **********************************************************************************************************************************
 LABEL *   hno CCSD(T)/TZ-F12 QFF                                                        
  64 bit serial version                                                                  DATE: 08-Feb-20          TIME: 17:56:25  
 **********************************************************************************************************************************

 SHA1:             d5ffa45e93fdbca01ffc919aa182cfdae0147319
 **********************************************************************************************************************************

 THRESHOLDS:

 ZERO    =  1.00D-22  ONEINT  =  1.00D-22  TWOINT  =  1.00D-22  PREFAC  =  1.00D-14  LOCALI  =  1.00D-09  EORDER  =  1.00D-04
 ENERGY  =  1.00D-12  ETEST   =  0.00D+00  EDENS   =  0.00D+00  THRDEDEF=  1.00D-06  GRADIENT=  1.00D-02  STEP    =  1.00D-03
 ORBITAL =  1.00D-05  CIVEC   =  1.00D-05  COEFF   =  1.00D-04  PRINTCI =  5.00D-02  PUNCHCI =  9.90D+01  OPTGRAD =  3.00D-04
 OPTENERG=  1.00D-06  OPTSTEP =  3.00D-04  THRGRAD =  1.00D-10  COMPRESS=  1.00D-11  VARMIN  =  1.00D-07  VARMAX  =  1.00D-03
 THRDOUB =  0.00D+00  THRDIV  =  1.00D-05  THRRED  =  1.00D-07  THRPSP  =  1.00D+00  THRDC   =  1.00D-10  THRCS   =  1.00D-10
 THRNRM  =  1.00D-08  THREQ   =  0.00D+00  THRDE   =  1.00D+00  THRREF  =  1.00D-05  SPARFAC =  1.00D+00  THRDLP  =  1.00D-07
 THRDIA  =  1.00D-10  THRDLS  =  1.00D-07  THRGPS  =  0.00D+00  THRKEX  =  0.00D+00  THRDIS  =  2.00D-01  THRVAR  =  1.00D-10
 THRLOC  =  1.00D-06  THRGAP  =  1.00D-06  THRLOCT = -1.00D+00  THRGAPT = -1.00D+00  THRORB  =  1.00D-06  THRMLTP =  0.00D+00
 THRCPQCI=  1.00D-10  KEXTA   =  0.00D+00  THRCOARS=  0.00D+00  SYMTOL  =  1.00D-06  GRADTOL =  1.00D-06  THROVL  =  1.00D-08
 THRORTH =  1.00D-08  GRID    =  1.00D-06  GRIDMAX =  1.00D-03  DTMAX   =  0.00D+00  THROCCDE=  1.00D-01  THROCCDE=  1.00D-01



 THRESHOLDS:

 ZERO    =  1.00D-22  ONEINT  =  1.00D-22  TWOINT  =  1.00D-22  PREFAC  =  1.00D-14  LOCALI  =  1.00D-09  EORDER  =  1.00D-04
 ENERGY  =  1.00D-12  ETEST   =  0.00D+00  EDENS   =  0.00D+00  THRDEDEF=  1.00D-06  GRADIENT=  1.00D-02  STEP    =  1.00D-03
 ORBITAL =  1.00D-05  CIVEC   =  1.00D-05  COEFF   =  1.00D-04  PRINTCI =  5.00D-02  PUNCHCI =  9.90D+01  OPTGRAD =  1.00D-08
 OPTENERG=  1.00D-06  OPTSTEP =  1.00D-08  THRGRAD =  1.00D-10  COMPRESS=  1.00D-11  VARMIN  =  1.00D-07  VARMAX  =  1.00D-03
 THRDOUB =  0.00D+00  THRDIV  =  1.00D-05  THRRED  =  1.00D-07  THRPSP  =  1.00D+00  THRDC   =  1.00D-10  THRCS   =  1.00D-10
 THRNRM  =  1.00D-08  THREQ   =  0.00D+00  THRDE   =  1.00D+00  THRREF  =  1.00D-05  SPARFAC =  1.00D+00  THRDLP  =  1.00D-07
 THRDIA  =  1.00D-10  THRDLS  =  1.00D-07  THRGPS  =  0.00D+00  THRKEX  =  0.00D+00  THRDIS  =  2.00D-01  THRVAR  =  1.00D-10
 THRLOC  =  1.00D-06  THRGAP  =  1.00D-06  THRLOCT = -1.00D+00  THRGAPT = -1.00D+00  THRORB  =  1.00D-06  THRMLTP =  0.00D+00
 THRCPQCI=  1.00D-10  KEXTA   =  0.00D+00  THRCOARS=  0.00D+00  SYMTOL  =  1.00D-06  GRADTOL =  1.00D-06  THROVL  =  1.00D-08
 THRORTH =  1.00D-08  GRID    =  1.00D-06  GRIDMAX =  1.00D-03  DTMAX   =  0.00D+00  THROCCDE=  1.00D-01  THROCCDE=  1.00D-01



 Input parameters for SORTINT:

 COMPRESS =    0.000000
 C_FINAL  =    1.000000
 DEBUG    =   -1.000000
 C_SORT1  =    0.000000
 C_SEWARD =    0.000000
 THRESH   =    0.000000
 IO       =  molpro                                                          
 SPRI     =    0.000000
 SETTING GEOMTYP        =    XYZ
 ZUNIT=BOHR
 

 Variable memory set to  995000000 words,  buffer space   230000 words

 SETTING BASIS          =    AVTZ


 Recomputing integrals since basis changed


 Using spherical harmonics

 Library entry N      S aug-cc-pVTZ          selected for orbital group  1
 Library entry N      P aug-cc-pVTZ          selected for orbital group  1
 Library entry N      D aug-cc-pVTZ          selected for orbital group  1
 Library entry N      F aug-cc-pVTZ          selected for orbital group  1
 Library entry H      S aug-cc-pVTZ          selected for orbital group  2
 Library entry H      P aug-cc-pVTZ          selected for orbital group  2
 Library entry H      D aug-cc-pVTZ          selected for orbital group  2
 Library entry O      S aug-cc-pVTZ          selected for orbital group  3
 Library entry O      P aug-cc-pVTZ          selected for orbital group  3
 Library entry O      D aug-cc-pVTZ          selected for orbital group  3
 Library entry O      F aug-cc-pVTZ          selected for orbital group  3


 PROGRAM * SEWARD (Integral evaluation for generally contracted gaussian basis sets)     Author: Roland Lindh, 1990

 Geometry written to block  1 of record 700


 Point group  Cs  



 ATOMIC COORDINATES

 NR  ATOM    CHARGE       X              Y              Z

   1  N       7.00    0.000000000   -0.169333981   -1.154291329
   2  H       1.00    0.000000000    1.666335577   -1.917629586
   3  O       8.00    0.000000000    0.044766194    1.121331324

 Bond lengths in Bohr (Angstrom)

 1-2  1.988056342  1-3  2.285672187
     ( 1.052034110)     ( 1.209525633)

 Bond angles

  2-1-3  107.20451345

 NUCLEAR CHARGE:                   16
 NUMBER OF PRIMITIVE AOS:         161
 NUMBER OF SYMMETRY AOS:          141
 NUMBER OF CONTRACTIONS:          115   (  76A'  +  39A"  )
 NUMBER OF CORE ORBITALS:           2   (   2A'  +   0A"  )
 NUMBER OF VALENCE ORBITALS:        9   (   7A'  +   2A"  )


 NUCLEAR REPULSION ENERGY   30.34400278

 Eigenvalues of metric

         1 0.232E-03 0.503E-03 0.180E-02 0.212E-02 0.255E-02 0.361E-02 0.430E-02 0.518E-02
         2 0.397E-02 0.102E-01 0.263E-01 0.373E-01 0.515E-01 0.622E-01 0.825E-01 0.119E+00


 Contracted 2-electron integrals neglected if value below      1.0D-22

       10790064. INTEGRALS WRITTEN OUT IN    2635 BLOCKS ON RECORD 1290 OF FILE 1


 NUMBER OF SORTED TWO-ELECTRON INTEGRALS:   11433631.     BUFFER LENGTH:  32768
 NUMBER OF SEGMENTS:   1  SEGMENT LENGTH:   11433631      RECORD LENGTH: 524288

 Memory used in sort:      11.99 MW

 SORT1 READ    10790064. AND WROTE    10943632. INTEGRALS IN     32 RECORDS. CPU TIME:     0.28 SEC, REAL TIME:     0.36 SEC
 SORT2 READ    10943632. AND WROTE    11433631. INTEGRALS IN      1 RECORDS. CPU TIME:     0.21 SEC, REAL TIME:     0.26 SEC

 FILE SIZES:   FILE 1:   193.0 MBYTE,  FILE 4:   134.3 MBYTE,   TOTAL:    327.2 MBYTE

 OPERATOR DM      FOR CENTER  0  COORDINATES:    0.000000    0.000000    0.000000


 **********************************************************************************************************************************
 DATASETS  * FILE   NREC   LENGTH (MB)   RECORD NAMES
              1      19      111.05       500      610      700      900      950      970     1000      129      960     1100   
                                          VAR    BASINP    GEOM    SYMINP    ZMAT    AOBASIS   BASIS     P2S    ABASIS      S 
                                         1400     1410     1200     1210     1080     1600     1650     1300     1700   
                                           T        V       H0       H01     AOSYM     SMH    MOLCAS    ERIS     OPER   

 PROGRAMS   *        TOTAL       INT
 CPU TIMES  *         1.66      1.57
 REAL TIME  *         2.50 SEC
 DISK USED  *       327.55 MB      
 **********************************************************************************************************************************


 PROGRAM * RHF-SCF (CLOSED SHELL)       Authors: W. Meyer, H.-J. Werner


 NUMBER OF ELECTRONS:       8+    8-
 CONVERGENCE THRESHOLDS:    1.00E-10 (Density)    1.00E-13 (Energy)
 MAX. NUMBER OF ITERATIONS:      500
 INTERPOLATION TYPE:            DIIS
 INTERPOLATION STEPS:              2 (START)      1 (STEP)
 LEVEL SHIFTS:                  0.00 (CLOSED)  0.00 (OPEN) 



 Orbital guess generated from atomic densities. Full valence occupancy:    9   2

 Molecular orbital dump at record        2100.2

 Initial occupancy:   7   1

 ITERATION    DDIFF          GRAD             ENERGY        2-EL.EN.            DIPOLE MOMENTS         DIIS   ORB.
    1      0.000D+00      0.000D+00      -129.78779610    153.855876    0.00000    0.58415   -1.02393    0    start
    2      0.000D+00      0.108D-01      -129.81523024    155.116683    0.00000    0.61249   -0.20508    1    diag
    3      0.120D-01      0.828D-02      -129.83819600    155.232834    0.00000    0.55419   -0.59110    2    diag
    4      0.596D-02      0.128D-02      -129.83898848    154.943700    0.00000    0.56208   -0.53121    3    diag
    5      0.107D-02      0.423D-03      -129.83911521    155.037510    0.00000    0.56757   -0.53390    4    diag
    6      0.451D-03      0.122D-03      -129.83913547    155.021897    0.00000    0.56791   -0.52978    5    diag
    7      0.173D-03      0.606D-04      -129.83914133    155.024393    0.00000    0.56915   -0.52718    6    diag
    8      0.119D-03      0.207D-04      -129.83914196    155.023726    0.00000    0.56917   -0.52617    7    diag
    9      0.450D-04      0.391D-05      -129.83914199    155.023618    0.00000    0.56913   -0.52596    8    diag
   10      0.865D-05      0.882D-06      -129.83914199    155.023600    0.00000    0.56910   -0.52593    9    orth
   11      0.172D-05      0.176D-06      -129.83914199    155.023597    0.00000    0.56909   -0.52593    9    diag
   12      0.332D-06      0.365D-07      -129.83914199    155.023597    0.00000    0.56909   -0.52593    9    diag
   13      0.724D-07      0.925D-08      -129.83914199    155.023597    0.00000    0.56909   -0.52593    9    diag
   14      0.191D-07      0.190D-08      -129.83914199    155.023597    0.00000    0.56909   -0.52593    9    diag
   15      0.373D-08      0.528D-09      -129.83914199    155.023597    0.00000    0.56909   -0.52593    9    diag
   16      0.102D-08      0.143D-09      -129.83914199    155.023597    0.00000    0.56909   -0.52593    9    diag
   17      0.180D-09      0.407D-10      -129.83914199    155.023597    0.00000    0.56909   -0.52593    9    diag
   18      0.500D-10      0.145D-10      -129.83914199    155.023597    0.00000    0.56909   -0.52593    9    diag
   19      0.263D-10      0.317D-11      -129.83914199    155.023597    0.00000    0.56909   -0.52593    9    fixocc
   20      0.605D-11      0.565D-12      -129.83914199    155.023597    0.00000    0.56909   -0.52593    9    orth
   21      0.213D-11      0.187D-12      -129.83914199    155.023597    0.00000    0.56909   -0.52593    9    diag
   22      0.766D-12      0.712D-13      -129.83914199    155.023597    0.00000    0.56909   -0.52593    9    diag
   23      0.634D-12      0.669D-13      -129.83914199    155.023597    0.00000    0.56909   -0.52593    9    diag
   24      0.351D-12      0.408D-13      -129.83914199    155.023597    0.00000    0.56909   -0.52593    0    orth

 Final occupancy:   7   1

 !RHF STATE 1.1 Energy               -129.839141990786
 Nuclear energy                        30.34400278
 One-electron energy                 -237.69494309
 Two-electron energy                   77.51179833
 Virial quotient                       -1.00217412
 !RHF STATE 1.1 Dipole moment           0.00000000     0.56909264    -0.52592685
 Dipole moment /Debye                   0.00000000     1.44639448    -1.33668516

 Orbital energies:

         1.1          2.1          3.1          4.1          5.1          6.1          7.1          8.1          9.1
    -20.656458   -15.714907    -1.530002    -0.994795    -0.746879    -0.665452    -0.431570     0.029243     0.092214

         1.2          2.2          3.2
     -0.595611     0.064588     0.130182

 HOMO      7.1    -0.431570 =     -11.7436eV
 LUMO      8.1     0.029243 =       0.7957eV
 LUMO-HOMO         0.460813 =      12.5394eV


 **********************************************************************************************************************************
 DATASETS  * FILE   NREC   LENGTH (MB)   RECORD NAMES
              1      19      111.05       500      610      700      900      950      970     1000      129      960     1100   
                                          VAR    BASINP    GEOM    SYMINP    ZMAT    AOBASIS   BASIS     P2S    ABASIS      S 
                                         1400     1410     1200     1210     1080     1600     1650     1300     1700   
                                           T        V       H0       H01     AOSYM     SMH    MOLCAS    ERIS     OPER   

              2       4        2.94       700     1000      520     2100   
                                         GEOM     BASIS   MCVARS     RHF  

 PROGRAMS   *        TOTAL        HF       INT
 CPU TIMES  *         3.08      1.41      1.57
 REAL TIME  *         4.35 SEC
 DISK USED  *       327.55 MB      
 **********************************************************************************************************************************


 PROGRAM * CCSD (Closed-shell coupled cluster)     Authors: C. Hampel, H.-J. Werner, 1991, M. Deegan, P.J. Knowles, 1992


 Convergence thresholds:  THRVAR = 1.00D-08  THRDEN = 1.00D-12

 CCSD(T)     terms to be evaluated (factor= 1.000)


 Number of core orbitals:           2 (   2   0 )
 Number of closed-shell orbitals:   6 (   5   1 )
 Number of external orbitals:     107 (  69  38 )

 Molecular orbitals read from record     2100.2  Type=RHF/CANONICAL (state 1.1)

 Number of N-1 electron functions:               6
 Number of N-2 electron functions:              21
 Number of singly external CSFs:               383
 Number of doubly external CSFs:            107206
 Total number of CSFs:                      107590

 Length of J-op  integral file:               0.00 MB
 Length of K-op  integral file:               0.54 MB
 Length of 3-ext integral record:             0.00 MB

 Memory could be reduced to 5.94 Mwords without degradation in triples

 Integral transformation finished. Total CPU:   0.20 sec, npass=  1  Memory used:   1.65 MW

 Reference energy:                   -129.83914199

 MP2 singlet pair energy:              -0.27960697
 MP2 triplet pair energy:              -0.16529220
 MP2 correlation energy:               -0.44489917
 MP2 total energy:                   -130.28404116

 SCS-MP2 correlation energy:           -0.43837684   (PS=  1.200000  PT=  0.333333)
 SCS-MP2 total energy:               -130.27751884

 ITER.      SQ.NORM     CORR.ENERGY   TOTAL ENERGY   ENERGY CHANGE        DEN1      VAR(S)    VAR(P)  DIIS     TIME  TIME/IT
   1      1.12108994    -0.44894861  -130.28809060    -0.00404944     0.01206198  0.31D-02  0.32D-02  1  1     0.41     0.21
   2      1.13223749    -0.44913735  -130.28827934    -0.00018874    -0.01247287  0.10D-03  0.51D-03  2  2     0.61     0.23
   3      1.13874640    -0.44953789  -130.28867988    -0.00040054    -0.00301125  0.53D-04  0.51D-04  3  3     0.82     0.23
   4      1.14164171    -0.44955008  -130.28869207    -0.00001219    -0.00097918  0.42D-05  0.91D-05  4  4     1.04     0.23
   5      1.14268978    -0.44957897  -130.28872096    -0.00002889    -0.00022203  0.11D-05  0.16D-05  5  5     1.24     0.23
   6      1.14302997    -0.44956185  -130.28870384     0.00001712    -0.00004181  0.98D-07  0.39D-06  6  6     1.44     0.23
   7      1.14310271    -0.44956308  -130.28870507    -0.00000123    -0.00000157  0.18D-07  0.91D-07  6  1     1.65     0.23
   8      1.14312378    -0.44956370  -130.28870569    -0.00000062     0.00000156  0.35D-08  0.16D-07  6  2     1.86     0.23
   9      1.14313221    -0.44956313  -130.28870512     0.00000057    -0.00000085  0.24D-08  0.17D-08  6  3     2.07     0.23
  10      1.14313234    -0.44956363  -130.28870563    -0.00000051    -0.00000001  0.47D-09  0.24D-09  6  4     2.28     0.23
  11      1.14313075    -0.44956375  -130.28870574    -0.00000012     0.00000053  0.14D-09  0.30D-10  6  5     2.49     0.23
  12      1.14312947    -0.44956393  -130.28870592    -0.00000018     0.00000041  0.15D-10  0.86D-11  6  6     2.68     0.23
  13      1.14312876    -0.44956395  -130.28870594    -0.00000002     0.00000017  0.53D-11  0.16D-11  6  1     2.87     0.23
  14      1.14312834    -0.44956397  -130.28870597    -0.00000002     0.00000009  0.84D-12  0.52D-12  6  2     3.09     0.23
  15      1.14312817    -0.44956398  -130.28870597    -0.00000000     0.00000002  0.25D-12  0.16D-12  6  3     3.28     0.23
  16      1.14312809    -0.44956398  -130.28870597    -0.00000000     0.00000001  0.40D-13  0.56D-13  6  4     3.50     0.23
  17      1.14312804    -0.44956398  -130.28870597    -0.00000000     0.00000001  0.26D-14  0.13D-13  6  5     3.70     0.23
  18      1.14312803    -0.44956398  -130.28870597     0.00000000     0.00000000  0.10D-14  0.29D-14  6  6     3.91     0.23
  19      1.14312803    -0.44956398  -130.28870597     0.00000000     0.00000000  0.73D-15  0.46D-15  6  1     4.12     0.23
  20      1.14312803    -0.44956398  -130.28870597     0.00000000    -0.00000000  0.12D-15  0.78D-16  6  2     4.32     0.23
  21      1.14312803    -0.44956398  -130.28870597     0.00000000     0.00000000  0.58D-16  0.18D-16  6  3     4.52     0.23
  22      1.14312803    -0.44956398  -130.28870597     0.00000000    -0.00000000  0.28D-17  0.36D-17  6  5     4.71     0.23
  23      1.14312803    -0.44956398  -130.28870597     0.00000000     0.00000000  0.97D-18  0.31D-18  6  4     4.93     0.23
  24      1.14312803    -0.44956398  -130.28870597    -0.00000000    -0.00000000  0.25D-18  0.78D-19  6  6     5.14     0.23
  25      1.14312803    -0.44956398  -130.28870597     0.00000000    -0.00000000  0.31D-19  0.17D-19  6  1     5.33     0.23

 Norm of t1 vector:      0.07841728      S-energy:     0.00000000      T1 diagnostic:  0.01600686
                                                                       D1 diagnostic:  0.04221136

 Doubles amplitudes (print threshold =  0.500E-01):

         I         J         SYM. A    SYM. B    A         B      T(IJ, AB)

         6         6         2         2         1         1     -0.10961958


 Total CPU time for triples:      1.72 sec


 RESULTS
 =======

  Reference energy                   -129.839141990786
  CCSD singlet pair energy             -0.308275820824
  CCSD triplet pair energy             -0.141288162726
  CCSD correlation energy              -0.449563983545

  Triples (T) contribution             -0.020950691959
  Total correlation energy             -0.470514675504

  CCSD total energy                  -130.288705974331
  CCSD[T] energy                     -130.310724777360
  CCSD-T energy                      -130.309251947227
 !CCSD(T) total energy               -130.309656666289

 Timing summary (sec):

 STEP                 CPU(USER)    SYS     CPU(TOT)    WALL
 Transformation          0.20      0.03      0.23      0.23
 CCSD iterations         5.13      0.72      5.85      5.85
 Triples                 1.72      0.05      1.77      1.77

 Program statistics:

 Available memory in ccsd:               994999756
 Min. memory needed in ccsd:                389120
 Max. memory used in ccsd:                  473124
 Max. memory used in cckext:                599488 (25 integral passes)



 **********************************************************************************************************************************
 DATASETS  * FILE   NREC   LENGTH (MB)   RECORD NAMES
              1      20      128.20       500      610      700      900      950      970     1000      129      960     1100   
                                          VAR    BASINP    GEOM    SYMINP    ZMAT    AOBASIS   BASIS     P2S    ABASIS      S 
                                         1400     1410     1200     1210     1080     1600     1650     1300     1700     1380   
                                           T        V       H0       H01     AOSYM     SMH    MOLCAS    ERIS     OPER     JKOP   

              2       4        2.94       700     1000      520     2100   
                                         GEOM     BASIS   MCVARS     RHF  

 PROGRAMS   *        TOTAL   CCSD(T)        HF       INT
 CPU TIMES  *        10.15      7.07      1.41      1.57
 REAL TIME  *        12.26 SEC
 DISK USED  *       327.55 MB      
 **********************************************************************************************************************************

 CCSD(T)/aug-cc-pVTZ energy=   -130.309656666289

        CCSD(T)         HF-SCF  
   -130.30965667   -129.83914199
 **********************************************************************************************************************************
 Molpro calculation terminated
 Variable memory released
