
 Primary working directories    : /tmp/r2666/234945.maple
 Secondary working directories  : /tmp/r2666/234945.maple
 Wavefunction directory         : /ddn/home4/r2666/wfu/
 Main file repository           : /tmp/r2666/234945.maple/

 SHA1      : d5ffa45e93fdbca01ffc919aa182cfdae0147319
 NAME      : 2015.1.35
 ARCHNAME  : linux/x86_64
 FC        : /opt/intel/composer_xe_2015.1.133/bin/intel64/ifort
 BLASLIB   : -Wl,-_start-group /opt/intel/mkl/lib/intel64/libmkl_intel_ilp64.a /opt/intel/mkl/lib/intel64/libmkl_intel_thread.a /opt/intel/mkl/lib/intel64/libmkl_core.a -Wl,-_end-group
 id        : olemiss

 Nodes     nprocs
 cn092        1

 Using customized tuning parameters: mindgm=1; mindgv=20; mindgc=4; mindgr=1; noblas=0; minvec=7
 default implementation of scratch files=df  

 ***,hno CCSD(T)/TZ-F12 QFF
 memory, 995, m;
 gthresh,energy=1.d-12,zero=1.d-22,oneint=1.d-22,twoint=1.d-22;
 gthresh,optgrad=1.d-8,optstep=1.d-8;
 nocompress;
 geomtyp=xyz
 bohr
 geometry={
 3
         59        59
 N        0.0000000000       -0.1652658087       -1.1509924157
 H        0.0000000000        1.6666038081       -1.9234053404
 O        0.0000000000        0.0404297907        1.1238081651
 }
 
 basis=avtz
   {hf,maxit=500;accu,20;}
 {ccsd(t),nocheck,maxit=250;orbital,IGNORE_ERROR;}

 Variables initialized (889), CPU time= 0.01 sec
 Commands  initialized (702), CPU time= 0.01 sec, 572 directives.
 Default parameters read. Elapsed time= 0.05 sec

 Checking input...
 Passed
1


                                         ***  PROGRAM SYSTEM MOLPRO  ***
                                       Copyright, TTI GmbH Stuttgart, 2015
                                    Version 2015.1 linked Jul  9 2018 13:16:40


 **********************************************************************************************************************************
 LABEL *   hno CCSD(T)/TZ-F12 QFF                                                        
  64 bit serial version                                                                  DATE: 08-Feb-20          TIME: 17:56:28  
 **********************************************************************************************************************************

 SHA1:             d5ffa45e93fdbca01ffc919aa182cfdae0147319
 **********************************************************************************************************************************

 THRESHOLDS:

 ZERO    =  1.00D-22  ONEINT  =  1.00D-22  TWOINT  =  1.00D-22  PREFAC  =  1.00D-14  LOCALI  =  1.00D-09  EORDER  =  1.00D-04
 ENERGY  =  1.00D-12  ETEST   =  0.00D+00  EDENS   =  0.00D+00  THRDEDEF=  1.00D-06  GRADIENT=  1.00D-02  STEP    =  1.00D-03
 ORBITAL =  1.00D-05  CIVEC   =  1.00D-05  COEFF   =  1.00D-04  PRINTCI =  5.00D-02  PUNCHCI =  9.90D+01  OPTGRAD =  3.00D-04
 OPTENERG=  1.00D-06  OPTSTEP =  3.00D-04  THRGRAD =  1.00D-10  COMPRESS=  1.00D-11  VARMIN  =  1.00D-07  VARMAX  =  1.00D-03
 THRDOUB =  0.00D+00  THRDIV  =  1.00D-05  THRRED  =  1.00D-07  THRPSP  =  1.00D+00  THRDC   =  1.00D-10  THRCS   =  1.00D-10
 THRNRM  =  1.00D-08  THREQ   =  0.00D+00  THRDE   =  1.00D+00  THRREF  =  1.00D-05  SPARFAC =  1.00D+00  THRDLP  =  1.00D-07
 THRDIA  =  1.00D-10  THRDLS  =  1.00D-07  THRGPS  =  0.00D+00  THRKEX  =  0.00D+00  THRDIS  =  2.00D-01  THRVAR  =  1.00D-10
 THRLOC  =  1.00D-06  THRGAP  =  1.00D-06  THRLOCT = -1.00D+00  THRGAPT = -1.00D+00  THRORB  =  1.00D-06  THRMLTP =  0.00D+00
 THRCPQCI=  1.00D-10  KEXTA   =  0.00D+00  THRCOARS=  0.00D+00  SYMTOL  =  1.00D-06  GRADTOL =  1.00D-06  THROVL  =  1.00D-08
 THRORTH =  1.00D-08  GRID    =  1.00D-06  GRIDMAX =  1.00D-03  DTMAX   =  0.00D+00  THROCCDE=  1.00D-01  THROCCDE=  1.00D-01



 THRESHOLDS:

 ZERO    =  1.00D-22  ONEINT  =  1.00D-22  TWOINT  =  1.00D-22  PREFAC  =  1.00D-14  LOCALI  =  1.00D-09  EORDER  =  1.00D-04
 ENERGY  =  1.00D-12  ETEST   =  0.00D+00  EDENS   =  0.00D+00  THRDEDEF=  1.00D-06  GRADIENT=  1.00D-02  STEP    =  1.00D-03
 ORBITAL =  1.00D-05  CIVEC   =  1.00D-05  COEFF   =  1.00D-04  PRINTCI =  5.00D-02  PUNCHCI =  9.90D+01  OPTGRAD =  1.00D-08
 OPTENERG=  1.00D-06  OPTSTEP =  1.00D-08  THRGRAD =  1.00D-10  COMPRESS=  1.00D-11  VARMIN  =  1.00D-07  VARMAX  =  1.00D-03
 THRDOUB =  0.00D+00  THRDIV  =  1.00D-05  THRRED  =  1.00D-07  THRPSP  =  1.00D+00  THRDC   =  1.00D-10  THRCS   =  1.00D-10
 THRNRM  =  1.00D-08  THREQ   =  0.00D+00  THRDE   =  1.00D+00  THRREF  =  1.00D-05  SPARFAC =  1.00D+00  THRDLP  =  1.00D-07
 THRDIA  =  1.00D-10  THRDLS  =  1.00D-07  THRGPS  =  0.00D+00  THRKEX  =  0.00D+00  THRDIS  =  2.00D-01  THRVAR  =  1.00D-10
 THRLOC  =  1.00D-06  THRGAP  =  1.00D-06  THRLOCT = -1.00D+00  THRGAPT = -1.00D+00  THRORB  =  1.00D-06  THRMLTP =  0.00D+00
 THRCPQCI=  1.00D-10  KEXTA   =  0.00D+00  THRCOARS=  0.00D+00  SYMTOL  =  1.00D-06  GRADTOL =  1.00D-06  THROVL  =  1.00D-08
 THRORTH =  1.00D-08  GRID    =  1.00D-06  GRIDMAX =  1.00D-03  DTMAX   =  0.00D+00  THROCCDE=  1.00D-01  THROCCDE=  1.00D-01



 Input parameters for SORTINT:

 COMPRESS =    0.000000
 C_FINAL  =    1.000000
 DEBUG    =   -1.000000
 C_SORT1  =    0.000000
 C_SEWARD =    0.000000
 THRESH   =    0.000000
 IO       =  molpro                                                          
 SPRI     =    0.000000
 SETTING GEOMTYP        =    XYZ
 ZUNIT=BOHR
 

 Variable memory set to  995000000 words,  buffer space   230000 words

 SETTING BASIS          =    AVTZ


 Recomputing integrals since basis changed


 Using spherical harmonics

 Library entry N      S aug-cc-pVTZ          selected for orbital group  1
 Library entry N      P aug-cc-pVTZ          selected for orbital group  1
 Library entry N      D aug-cc-pVTZ          selected for orbital group  1
 Library entry N      F aug-cc-pVTZ          selected for orbital group  1
 Library entry H      S aug-cc-pVTZ          selected for orbital group  2
 Library entry H      P aug-cc-pVTZ          selected for orbital group  2
 Library entry H      D aug-cc-pVTZ          selected for orbital group  2
 Library entry O      S aug-cc-pVTZ          selected for orbital group  3
 Library entry O      P aug-cc-pVTZ          selected for orbital group  3
 Library entry O      D aug-cc-pVTZ          selected for orbital group  3
 Library entry O      F aug-cc-pVTZ          selected for orbital group  3


 PROGRAM * SEWARD (Integral evaluation for generally contracted gaussian basis sets)     Author: Roland Lindh, 1990

 Geometry written to block  1 of record 700


 Point group  Cs  



 ATOMIC COORDINATES

 NR  ATOM    CHARGE       X              Y              Z

   1  N       7.00    0.000000000   -0.165265809   -1.150992416
   2  H       1.00    0.000000000    1.666603808   -1.923405340
   3  O       8.00    0.000000000    0.040429791    1.123808165

 Bond lengths in Bohr (Angstrom)

 1-2  1.988056342  1-3  2.284081514
     ( 1.052034110)     ( 1.208683885)

 Bond angles

  2-1-3  107.69601831

 NUCLEAR CHARGE:                   16
 NUMBER OF PRIMITIVE AOS:         161
 NUMBER OF SYMMETRY AOS:          141
 NUMBER OF CONTRACTIONS:          115   (  76A'  +  39A"  )
 NUMBER OF CORE ORBITALS:           2   (   2A'  +   0A"  )
 NUMBER OF VALENCE ORBITALS:        9   (   7A'  +   2A"  )


 NUCLEAR REPULSION ENERGY   30.35471185

 Eigenvalues of metric

         1 0.232E-03 0.501E-03 0.180E-02 0.212E-02 0.254E-02 0.359E-02 0.431E-02 0.517E-02
         2 0.396E-02 0.101E-01 0.262E-01 0.372E-01 0.514E-01 0.622E-01 0.821E-01 0.119E+00


 Contracted 2-electron integrals neglected if value below      1.0D-22

       10790064. INTEGRALS WRITTEN OUT IN    2635 BLOCKS ON RECORD 1290 OF FILE 1


 NUMBER OF SORTED TWO-ELECTRON INTEGRALS:   11433631.     BUFFER LENGTH:  32768
 NUMBER OF SEGMENTS:   1  SEGMENT LENGTH:   11433631      RECORD LENGTH: 524288

 Memory used in sort:      11.99 MW

 SORT1 READ    10790064. AND WROTE    10943632. INTEGRALS IN     32 RECORDS. CPU TIME:     0.15 SEC, REAL TIME:     0.22 SEC
 SORT2 READ    10943632. AND WROTE    11433631. INTEGRALS IN      1 RECORDS. CPU TIME:     0.17 SEC, REAL TIME:     0.21 SEC

 FILE SIZES:   FILE 1:   193.0 MBYTE,  FILE 4:   134.3 MBYTE,   TOTAL:    327.2 MBYTE

 OPERATOR DM      FOR CENTER  0  COORDINATES:    0.000000    0.000000    0.000000


 **********************************************************************************************************************************
 DATASETS  * FILE   NREC   LENGTH (MB)   RECORD NAMES
              1      19      111.05       500      610      700      900      950      970     1000      129      960     1100   
                                          VAR    BASINP    GEOM    SYMINP    ZMAT    AOBASIS   BASIS     P2S    ABASIS      S 
                                         1400     1410     1200     1210     1080     1600     1650     1300     1700   
                                           T        V       H0       H01     AOSYM     SMH    MOLCAS    ERIS     OPER   

 PROGRAMS   *        TOTAL       INT
 CPU TIMES  *         1.26      1.17
 REAL TIME  *         2.23 SEC
 DISK USED  *       327.55 MB      
 **********************************************************************************************************************************


 PROGRAM * RHF-SCF (CLOSED SHELL)       Authors: W. Meyer, H.-J. Werner


 NUMBER OF ELECTRONS:       8+    8-
 CONVERGENCE THRESHOLDS:    1.00E-10 (Density)    1.00E-13 (Energy)
 MAX. NUMBER OF ITERATIONS:      500
 INTERPOLATION TYPE:            DIIS
 INTERPOLATION STEPS:              2 (START)      1 (STEP)
 LEVEL SHIFTS:                  0.00 (CLOSED)  0.00 (OPEN) 



 Orbital guess generated from atomic densities. Full valence occupancy:    9   2

 Molecular orbital dump at record        2100.2

 Initial occupancy:   7   1

 ITERATION    DDIFF          GRAD             ENERGY        2-EL.EN.            DIPOLE MOMENTS         DIIS   ORB.
    1      0.000D+00      0.000D+00      -129.78811466    153.872548    0.00000    0.58805   -1.02229    0    start
    2      0.000D+00      0.108D-01      -129.81556685    155.137578    0.00000    0.61162   -0.20752    1    diag
    3      0.119D-01      0.825D-02      -129.83834916    155.251242    0.00000    0.55571   -0.59178    2    diag
    4      0.594D-02      0.128D-02      -129.83914099    154.962519    0.00000    0.56338   -0.53189    3    diag
    5      0.107D-02      0.422D-03      -129.83926724    155.056404    0.00000    0.56891   -0.53464    4    diag
    6      0.450D-03      0.122D-03      -129.83928740    155.040818    0.00000    0.56928   -0.53054    5    diag
    7      0.172D-03      0.604D-04      -129.83929321    155.043321    0.00000    0.57052   -0.52796    6    diag
    8      0.119D-03      0.206D-04      -129.83929383    155.042661    0.00000    0.57054   -0.52696    7    diag
    9      0.447D-04      0.389D-05      -129.83929386    155.042553    0.00000    0.57051   -0.52675    8    diag
   10      0.859D-05      0.882D-06      -129.83929386    155.042534    0.00000    0.57047   -0.52672    9    orth
   11      0.173D-05      0.176D-06      -129.83929386    155.042531    0.00000    0.57047   -0.52672    9    diag
   12      0.333D-06      0.363D-07      -129.83929386    155.042531    0.00000    0.57046   -0.52672    9    diag
   13      0.722D-07      0.918D-08      -129.83929386    155.042531    0.00000    0.57046   -0.52672    9    diag
   14      0.190D-07      0.189D-08      -129.83929386    155.042531    0.00000    0.57046   -0.52672    9    diag
   15      0.373D-08      0.527D-09      -129.83929386    155.042531    0.00000    0.57046   -0.52672    9    diag
   16      0.102D-08      0.143D-09      -129.83929386    155.042531    0.00000    0.57046   -0.52672    9    diag
   17      0.180D-09      0.405D-10      -129.83929386    155.042531    0.00000    0.57046   -0.52672    9    diag
   18      0.500D-10      0.144D-10      -129.83929386    155.042531    0.00000    0.57046   -0.52672    0    orth

 Final occupancy:   7   1

 !RHF STATE 1.1 Energy               -129.839293861011
 Nuclear energy                        30.35471185
 One-electron energy                 -237.71527110
 Two-electron energy                   77.52126539
 Virial quotient                       -1.00216376
 !RHF STATE 1.1 Dipole moment           0.00000000     0.57046329    -0.52671647
 Dipole moment /Debye                   0.00000000     1.44987808    -1.33869205

 Orbital energies:

         1.1          2.1          3.1          4.1          5.1          6.1          7.1          8.1          9.1
    -20.656504   -15.714678    -1.530436    -0.994905    -0.747109    -0.665791    -0.431000     0.029213     0.092192

         1.2          2.2          3.2
     -0.595946     0.064749     0.130190

 HOMO      7.1    -0.431000 =     -11.7281eV
 LUMO      8.1     0.029213 =       0.7949eV
 LUMO-HOMO         0.460213 =      12.5230eV


 **********************************************************************************************************************************
 DATASETS  * FILE   NREC   LENGTH (MB)   RECORD NAMES
              1      19      111.05       500      610      700      900      950      970     1000      129      960     1100   
                                          VAR    BASINP    GEOM    SYMINP    ZMAT    AOBASIS   BASIS     P2S    ABASIS      S 
                                         1400     1410     1200     1210     1080     1600     1650     1300     1700   
                                           T        V       H0       H01     AOSYM     SMH    MOLCAS    ERIS     OPER   

              2       4        2.94       700     1000      520     2100   
                                         GEOM     BASIS   MCVARS     RHF  

 PROGRAMS   *        TOTAL        HF       INT
 CPU TIMES  *         2.19      0.93      1.17
 REAL TIME  *         3.40 SEC
 DISK USED  *       327.55 MB      
 **********************************************************************************************************************************


 PROGRAM * CCSD (Closed-shell coupled cluster)     Authors: C. Hampel, H.-J. Werner, 1991, M. Deegan, P.J. Knowles, 1992


 Convergence thresholds:  THRVAR = 1.00D-08  THRDEN = 1.00D-12

 CCSD(T)     terms to be evaluated (factor= 1.000)


 Number of core orbitals:           2 (   2   0 )
 Number of closed-shell orbitals:   6 (   5   1 )
 Number of external orbitals:     107 (  69  38 )

 Molecular orbitals read from record     2100.2  Type=RHF/CANONICAL (state 1.1)

 Number of N-1 electron functions:               6
 Number of N-2 electron functions:              21
 Number of singly external CSFs:               383
 Number of doubly external CSFs:            107206
 Total number of CSFs:                      107590

 Length of J-op  integral file:               0.00 MB
 Length of K-op  integral file:               0.54 MB
 Length of 3-ext integral record:             0.00 MB

 Memory could be reduced to 5.94 Mwords without degradation in triples

 Integral transformation finished. Total CPU:   0.14 sec, npass=  1  Memory used:   1.65 MW

 Reference energy:                   -129.83929386

 MP2 singlet pair energy:              -0.27951742
 MP2 triplet pair energy:              -0.16523339
 MP2 correlation energy:               -0.44475081
 MP2 total energy:                   -130.28404467

 SCS-MP2 correlation energy:           -0.43823279   (PS=  1.200000  PT=  0.333333)
 SCS-MP2 total energy:               -130.27752665

 ITER.      SQ.NORM     CORR.ENERGY   TOTAL ENERGY   ENERGY CHANGE        DEN1      VAR(S)    VAR(P)  DIIS     TIME  TIME/IT
   1      1.12101201    -0.44883309  -130.28812695    -0.00408228     0.01200405  0.31D-02  0.31D-02  1  1     0.29     0.16
   2      1.13214651    -0.44902643  -130.28832029    -0.00019333    -0.01245735  0.10D-03  0.51D-03  2  2     0.44     0.16
   3      1.13864700    -0.44942680  -130.28872067    -0.00040038    -0.00300673  0.53D-04  0.51D-04  3  3     0.59     0.17
   4      1.14153826    -0.44943859  -130.28873245    -0.00001179    -0.00097779  0.42D-05  0.92D-05  4  4     0.74     0.17
   5      1.14258800    -0.44946743  -130.28876129    -0.00002884    -0.00022230  0.11D-05  0.16D-05  5  5     0.88     0.17
   6      1.14292958    -0.44945038  -130.28874424     0.00001705    -0.00004185  0.99D-07  0.39D-06  6  6     1.04     0.17
   7      1.14300330    -0.44945158  -130.28874544    -0.00000120    -0.00000167  0.18D-07  0.92D-07  6  1     1.20     0.17
   8      1.14302461    -0.44945223  -130.28874609    -0.00000065     0.00000153  0.35D-08  0.17D-07  6  2     1.35     0.17
   9      1.14302990    -0.44945179  -130.28874565     0.00000044     0.00000043  0.27D-08  0.18D-08  6  4     1.50     0.17
  10      1.14303222    -0.44945227  -130.28874613    -0.00000048    -0.00000071  0.44D-09  0.22D-09  6  3     1.66     0.17
  11      1.14303173    -0.44945229  -130.28874615    -0.00000002    -0.00000007  0.15D-09  0.33D-10  6  5     1.82     0.17
  12      1.14303068    -0.44945244  -130.28874630    -0.00000015     0.00000034  0.18D-10  0.11D-10  6  6     1.97     0.17
  13      1.14302984    -0.44945248  -130.28874634    -0.00000003     0.00000021  0.62D-11  0.22D-11  6  1     2.12     0.17
  14      1.14302929    -0.44945251  -130.28874637    -0.00000003     0.00000014  0.96D-12  0.69D-12  6  2     2.27     0.17
  15      1.14302906    -0.44945251  -130.28874638    -0.00000001     0.00000003  0.27D-12  0.22D-12  6  4     2.42     0.17
  16      1.14302897    -0.44945252  -130.28874638    -0.00000000     0.00000001  0.50D-13  0.76D-13  6  3     2.58     0.17
  17      1.14302891    -0.44945252  -130.28874638    -0.00000000     0.00000001  0.38D-14  0.18D-13  6  5     2.74     0.17
  18      1.14302891    -0.44945252  -130.28874638     0.00000000    -0.00000000  0.13D-14  0.38D-14  6  6     2.91     0.17
  19      1.14302890    -0.44945252  -130.28874638    -0.00000000     0.00000000  0.11D-14  0.66D-15  6  1     3.06     0.17
  20      1.14302890    -0.44945252  -130.28874638     0.00000000    -0.00000000  0.22D-15  0.12D-15  6  2     3.22     0.17
  21      1.14302890    -0.44945252  -130.28874638     0.00000000    -0.00000000  0.54D-16  0.30D-16  6  3     3.37     0.17
  22      1.14302890    -0.44945252  -130.28874638     0.00000000     0.00000000  0.60D-17  0.26D-17  6  4     3.52     0.17
  23      1.14302890    -0.44945252  -130.28874638     0.00000000    -0.00000000  0.22D-17  0.55D-18  6  5     3.68     0.17
  24      1.14302890    -0.44945252  -130.28874638     0.00000000     0.00000000  0.15D-18  0.48D-19  6  2     3.84     0.17
  25      1.14302890    -0.44945252  -130.28874638    -0.00000000    -0.00000000  0.22D-19  0.12D-19  6  6     4.00     0.17
  26      1.14302890    -0.44945252  -130.28874638     0.00000000    -0.00000000  0.33D-20  0.22D-20  6  1     4.14     0.17
  27      1.14302890    -0.44945252  -130.28874638    -0.00000000    -0.00000000  0.47D-21  0.51D-21  6  4     4.29     0.17

 Norm of t1 vector:      0.07841905      S-energy:     0.00000000      T1 diagnostic:  0.01600722
                                                                       D1 diagnostic:  0.04214295

 Doubles amplitudes (print threshold =  0.500E-01):

         I         J         SYM. A    SYM. B    A         B      T(IJ, AB)

         6         6         2         2         1         1     -0.10925027


 Total CPU time for triples:      1.28 sec


 RESULTS
 =======

  Reference energy                   -129.839293861011
  CCSD singlet pair energy             -0.308180605780
  CCSD triplet pair energy             -0.141271913360
  CCSD correlation energy              -0.449452519139

  Triples (T) contribution             -0.020929912945
  Total correlation energy             -0.470382432083

  CCSD total energy                  -130.288746380149
  CCSD[T] energy                     -130.310743458350
  CCSD-T energy                      -130.309271756859
 !CCSD(T) total energy               -130.309676293094

 Timing summary (sec):

 STEP                 CPU(USER)    SYS     CPU(TOT)    WALL
 Transformation          0.14      0.03      0.17      0.17
 CCSD iterations         4.15      0.47      4.62      4.63
 Triples                 1.28      0.03      1.31      1.31

 Program statistics:

 Available memory in ccsd:               994999756
 Min. memory needed in ccsd:                389120
 Max. memory used in ccsd:                  473124
 Max. memory used in cckext:                599488 (27 integral passes)



 **********************************************************************************************************************************
 DATASETS  * FILE   NREC   LENGTH (MB)   RECORD NAMES
              1      20      128.20       500      610      700      900      950      970     1000      129      960     1100   
                                          VAR    BASINP    GEOM    SYMINP    ZMAT    AOBASIS   BASIS     P2S    ABASIS      S 
                                         1400     1410     1200     1210     1080     1600     1650     1300     1700     1380   
                                           T        V       H0       H01     AOSYM     SMH    MOLCAS    ERIS     OPER     JKOP   

              2       4        2.94       700     1000      520     2100   
                                         GEOM     BASIS   MCVARS     RHF  

 PROGRAMS   *        TOTAL   CCSD(T)        HF       INT
 CPU TIMES  *         7.79      5.60      0.93      1.17
 REAL TIME  *         9.57 SEC
 DISK USED  *       327.55 MB      
 **********************************************************************************************************************************

 CCSD(T)/aug-cc-pVTZ energy=   -130.309676293094

        CCSD(T)         HF-SCF  
   -130.30967629   -129.83929386
 **********************************************************************************************************************************
 Molpro calculation terminated
 Variable memory released
