
 Primary working directories    : /tmp/r2666/234970.maple
 Secondary working directories  : /tmp/r2666/234970.maple
 Wavefunction directory         : /ddn/home4/r2666/wfu/
 Main file repository           : /tmp/r2666/234970.maple/

 SHA1      : d5ffa45e93fdbca01ffc919aa182cfdae0147319
 NAME      : 2015.1.35
 ARCHNAME  : linux/x86_64
 FC        : /opt/intel/composer_xe_2015.1.133/bin/intel64/ifort
 BLASLIB   : -Wl,-_start-group /opt/intel/mkl/lib/intel64/libmkl_intel_ilp64.a /opt/intel/mkl/lib/intel64/libmkl_intel_thread.a /opt/intel/mkl/lib/intel64/libmkl_core.a -Wl,-_end-group
 id        : olemiss

 Nodes     nprocs
 cn035        1

 Using customized tuning parameters: mindgm=1; mindgv=20; mindgc=4; mindgr=1; noblas=0; minvec=7
 default implementation of scratch files=df  

 ***,hno CCSD(T)/TZ-F12 QFF
 memory, 995, m;
 gthresh,energy=1.d-12,zero=1.d-22,oneint=1.d-22,twoint=1.d-22;
 gthresh,optgrad=1.d-8,optstep=1.d-8;
 nocompress;
 geomtyp=xyz
 bohr
 geometry={
 3
         84        84
 N        0.0000000000       -0.1604614986       -1.1606212526
 H        0.0000000000        1.6697005899       -1.9370713470
 O        0.0000000000        0.0325286987        1.1471030087
 }
 
 basis=avtz
   {hf,maxit=500;accu,20;}
 {ccsd(t),nocheck,maxit=250;orbital,IGNORE_ERROR;}

 Variables initialized (889), CPU time= 0.01 sec
 Commands  initialized (702), CPU time= 0.00 sec, 572 directives.
 Default parameters read. Elapsed time= 0.05 sec

 Checking input...
 Passed
1


                                         ***  PROGRAM SYSTEM MOLPRO  ***
                                       Copyright, TTI GmbH Stuttgart, 2015
                                    Version 2015.1 linked Jul  9 2018 13:16:40


 **********************************************************************************************************************************
 LABEL *   hno CCSD(T)/TZ-F12 QFF                                                        
  64 bit serial version                                                                  DATE: 08-Feb-20          TIME: 17:56:39  
 **********************************************************************************************************************************

 SHA1:             d5ffa45e93fdbca01ffc919aa182cfdae0147319
 **********************************************************************************************************************************

 THRESHOLDS:

 ZERO    =  1.00D-22  ONEINT  =  1.00D-22  TWOINT  =  1.00D-22  PREFAC  =  1.00D-14  LOCALI  =  1.00D-09  EORDER  =  1.00D-04
 ENERGY  =  1.00D-12  ETEST   =  0.00D+00  EDENS   =  0.00D+00  THRDEDEF=  1.00D-06  GRADIENT=  1.00D-02  STEP    =  1.00D-03
 ORBITAL =  1.00D-05  CIVEC   =  1.00D-05  COEFF   =  1.00D-04  PRINTCI =  5.00D-02  PUNCHCI =  9.90D+01  OPTGRAD =  3.00D-04
 OPTENERG=  1.00D-06  OPTSTEP =  3.00D-04  THRGRAD =  1.00D-10  COMPRESS=  1.00D-11  VARMIN  =  1.00D-07  VARMAX  =  1.00D-03
 THRDOUB =  0.00D+00  THRDIV  =  1.00D-05  THRRED  =  1.00D-07  THRPSP  =  1.00D+00  THRDC   =  1.00D-10  THRCS   =  1.00D-10
 THRNRM  =  1.00D-08  THREQ   =  0.00D+00  THRDE   =  1.00D+00  THRREF  =  1.00D-05  SPARFAC =  1.00D+00  THRDLP  =  1.00D-07
 THRDIA  =  1.00D-10  THRDLS  =  1.00D-07  THRGPS  =  0.00D+00  THRKEX  =  0.00D+00  THRDIS  =  2.00D-01  THRVAR  =  1.00D-10
 THRLOC  =  1.00D-06  THRGAP  =  1.00D-06  THRLOCT = -1.00D+00  THRGAPT = -1.00D+00  THRORB  =  1.00D-06  THRMLTP =  0.00D+00
 THRCPQCI=  1.00D-10  KEXTA   =  0.00D+00  THRCOARS=  0.00D+00  SYMTOL  =  1.00D-06  GRADTOL =  1.00D-06  THROVL  =  1.00D-08
 THRORTH =  1.00D-08  GRID    =  1.00D-06  GRIDMAX =  1.00D-03  DTMAX   =  0.00D+00  THROCCDE=  1.00D-01  THROCCDE=  1.00D-01



 THRESHOLDS:

 ZERO    =  1.00D-22  ONEINT  =  1.00D-22  TWOINT  =  1.00D-22  PREFAC  =  1.00D-14  LOCALI  =  1.00D-09  EORDER  =  1.00D-04
 ENERGY  =  1.00D-12  ETEST   =  0.00D+00  EDENS   =  0.00D+00  THRDEDEF=  1.00D-06  GRADIENT=  1.00D-02  STEP    =  1.00D-03
 ORBITAL =  1.00D-05  CIVEC   =  1.00D-05  COEFF   =  1.00D-04  PRINTCI =  5.00D-02  PUNCHCI =  9.90D+01  OPTGRAD =  1.00D-08
 OPTENERG=  1.00D-06  OPTSTEP =  1.00D-08  THRGRAD =  1.00D-10  COMPRESS=  1.00D-11  VARMIN  =  1.00D-07  VARMAX  =  1.00D-03
 THRDOUB =  0.00D+00  THRDIV  =  1.00D-05  THRRED  =  1.00D-07  THRPSP  =  1.00D+00  THRDC   =  1.00D-10  THRCS   =  1.00D-10
 THRNRM  =  1.00D-08  THREQ   =  0.00D+00  THRDE   =  1.00D+00  THRREF  =  1.00D-05  SPARFAC =  1.00D+00  THRDLP  =  1.00D-07
 THRDIA  =  1.00D-10  THRDLS  =  1.00D-07  THRGPS  =  0.00D+00  THRKEX  =  0.00D+00  THRDIS  =  2.00D-01  THRVAR  =  1.00D-10
 THRLOC  =  1.00D-06  THRGAP  =  1.00D-06  THRLOCT = -1.00D+00  THRGAPT = -1.00D+00  THRORB  =  1.00D-06  THRMLTP =  0.00D+00
 THRCPQCI=  1.00D-10  KEXTA   =  0.00D+00  THRCOARS=  0.00D+00  SYMTOL  =  1.00D-06  GRADTOL =  1.00D-06  THROVL  =  1.00D-08
 THRORTH =  1.00D-08  GRID    =  1.00D-06  GRIDMAX =  1.00D-03  DTMAX   =  0.00D+00  THROCCDE=  1.00D-01  THROCCDE=  1.00D-01



 Input parameters for SORTINT:

 COMPRESS =    0.000000
 C_FINAL  =    1.000000
 DEBUG    =   -1.000000
 C_SORT1  =    0.000000
 C_SEWARD =    0.000000
 THRESH   =    0.000000
 IO       =  molpro                                                          
 SPRI     =    0.000000
 SETTING GEOMTYP        =    XYZ
 ZUNIT=BOHR
 

 Variable memory set to  995000000 words,  buffer space   230000 words

 SETTING BASIS          =    AVTZ


 Recomputing integrals since basis changed


 Using spherical harmonics

 Library entry N      S aug-cc-pVTZ          selected for orbital group  1
 Library entry N      P aug-cc-pVTZ          selected for orbital group  1
 Library entry N      D aug-cc-pVTZ          selected for orbital group  1
 Library entry N      F aug-cc-pVTZ          selected for orbital group  1
 Library entry H      S aug-cc-pVTZ          selected for orbital group  2
 Library entry H      P aug-cc-pVTZ          selected for orbital group  2
 Library entry H      D aug-cc-pVTZ          selected for orbital group  2
 Library entry O      S aug-cc-pVTZ          selected for orbital group  3
 Library entry O      P aug-cc-pVTZ          selected for orbital group  3
 Library entry O      D aug-cc-pVTZ          selected for orbital group  3
 Library entry O      F aug-cc-pVTZ          selected for orbital group  3


 PROGRAM * SEWARD (Integral evaluation for generally contracted gaussian basis sets)     Author: Roland Lindh, 1990

 Geometry written to block  1 of record 700


 Point group  Cs  



 ATOMIC COORDINATES

 NR  ATOM    CHARGE       X              Y              Z

   1  N       7.00    0.000000000   -0.160461499   -1.160621253
   2  H       1.00    0.000000000    1.669700590   -1.937071347
   3  O       8.00    0.000000000    0.032528699    1.147103009

 Bond lengths in Bohr (Angstrom)

 1-2  1.988056342  1-3  2.315779886
     ( 1.052034110)     ( 1.225457941)

 Bond angles

  2-1-3  108.20878234

 NUCLEAR CHARGE:                   16
 NUMBER OF PRIMITIVE AOS:         161
 NUMBER OF SYMMETRY AOS:          141
 NUMBER OF CONTRACTIONS:          115   (  76A'  +  39A"  )
 NUMBER OF CORE ORBITALS:           2   (   2A'  +   0A"  )
 NUMBER OF VALENCE ORBITALS:        9   (   7A'  +   2A"  )


 NUCLEAR REPULSION ENERGY   29.99404639

 Eigenvalues of metric

         1 0.237E-03 0.507E-03 0.184E-02 0.218E-02 0.268E-02 0.385E-02 0.437E-02 0.524E-02
         2 0.415E-02 0.102E-01 0.270E-01 0.375E-01 0.516E-01 0.626E-01 0.846E-01 0.121E+00


 Contracted 2-electron integrals neglected if value below      1.0D-22

       10790064. INTEGRALS WRITTEN OUT IN    2635 BLOCKS ON RECORD 1290 OF FILE 1


 NUMBER OF SORTED TWO-ELECTRON INTEGRALS:   11433631.     BUFFER LENGTH:  32768
 NUMBER OF SEGMENTS:   1  SEGMENT LENGTH:   11433631      RECORD LENGTH: 524288

 Memory used in sort:      11.99 MW

 SORT1 READ    10790064. AND WROTE    10943632. INTEGRALS IN     32 RECORDS. CPU TIME:     0.26 SEC, REAL TIME:     0.36 SEC
 SORT2 READ    10943632. AND WROTE    11433631. INTEGRALS IN      1 RECORDS. CPU TIME:     0.19 SEC, REAL TIME:     0.25 SEC

 FILE SIZES:   FILE 1:   193.0 MBYTE,  FILE 4:   134.3 MBYTE,   TOTAL:    327.2 MBYTE

 OPERATOR DM      FOR CENTER  0  COORDINATES:    0.000000    0.000000    0.000000


 **********************************************************************************************************************************
 DATASETS  * FILE   NREC   LENGTH (MB)   RECORD NAMES
              1      19      111.05       500      610      700      900      950      970     1000      129      960     1100   
                                          VAR    BASINP    GEOM    SYMINP    ZMAT    AOBASIS   BASIS     P2S    ABASIS      S 
                                         1400     1410     1200     1210     1080     1600     1650     1300     1700   
                                           T        V       H0       H01     AOSYM     SMH    MOLCAS    ERIS     OPER   

 PROGRAMS   *        TOTAL       INT
 CPU TIMES  *         1.68      1.59
 REAL TIME  *         2.52 SEC
 DISK USED  *       327.55 MB      
 **********************************************************************************************************************************


 PROGRAM * RHF-SCF (CLOSED SHELL)       Authors: W. Meyer, H.-J. Werner


 NUMBER OF ELECTRONS:       8+    8-
 CONVERGENCE THRESHOLDS:    1.00E-10 (Density)    1.00E-13 (Energy)
 MAX. NUMBER OF ITERATIONS:      500
 INTERPOLATION TYPE:            DIIS
 INTERPOLATION STEPS:              2 (START)      1 (STEP)
 LEVEL SHIFTS:                  0.00 (CLOSED)  0.00 (OPEN) 



 Orbital guess generated from atomic densities. Full valence occupancy:    9   2

 Molecular orbital dump at record        2100.2

 Initial occupancy:   7   1

 ITERATION    DDIFF          GRAD             ENERGY        2-EL.EN.            DIPOLE MOMENTS         DIIS   ORB.
    1      0.000D+00      0.000D+00      -129.78298050    153.225258    0.00000    0.59980   -1.07815    0    start
    2      0.000D+00      0.110D-01      -129.80975969    154.454740    0.00000    0.62152   -0.19982    1    diag
    3      0.123D-01      0.872D-02      -129.83547341    154.607345    0.00000    0.56524   -0.61842    2    diag
    4      0.622D-02      0.130D-02      -129.83630162    154.305500    0.00000    0.57222   -0.55574    3    diag
    5      0.110D-02      0.432D-03      -129.83643442    154.401100    0.00000    0.57781   -0.55826    4    diag
    6      0.463D-03      0.124D-03      -129.83645566    154.385281    0.00000    0.57810   -0.55385    5    diag
    7      0.177D-03      0.627D-04      -129.83646204    154.387624    0.00000    0.57930   -0.55105    6    diag
    8      0.124D-03      0.225D-04      -129.83646283    154.386906    0.00000    0.57932   -0.54991    7    diag
    9      0.507D-04      0.435D-05      -129.83646287    154.386782    0.00000    0.57928   -0.54967    8    diag
   10      0.101D-04      0.956D-06      -129.83646287    154.386762    0.00000    0.57924   -0.54964    9    orth
   11      0.189D-05      0.187D-06      -129.83646287    154.386759    0.00000    0.57924   -0.54964    9    diag
   12      0.349D-06      0.400D-07      -129.83646287    154.386759    0.00000    0.57923   -0.54964    9    diag
   13      0.751D-07      0.107D-07      -129.83646287    154.386759    0.00000    0.57923   -0.54964    9    diag
   14      0.209D-07      0.221D-08      -129.83646287    154.386759    0.00000    0.57923   -0.54964    9    diag
   15      0.395D-08      0.607D-09      -129.83646287    154.386759    0.00000    0.57923   -0.54964    9    diag
   16      0.111D-08      0.159D-09      -129.83646287    154.386759    0.00000    0.57923   -0.54964    9    diag
   17      0.179D-09      0.434D-10      -129.83646287    154.386759    0.00000    0.57923   -0.54964    9    diag
   18      0.519D-10      0.154D-10      -129.83646287    154.386759    0.00000    0.57923   -0.54964    9    diag
   19      0.263D-10      0.334D-11      -129.83646287    154.386759    0.00000    0.57923   -0.54964    0    orth

 Final occupancy:   7   1

 !RHF STATE 1.1 Energy               -129.836462867623
 Nuclear energy                        29.99404639
 One-electron energy                 -237.02388853
 Two-electron energy                   77.19337927
 Virial quotient                       -1.00266588
 !RHF STATE 1.1 Dipole moment           0.00000000     0.57923282    -0.54963763
 Dipole moment /Debye                   0.00000000     1.47216654    -1.39694801

 Orbital energies:

         1.1          2.1          3.1          4.1          5.1          6.1          7.1          8.1          9.1
    -20.658252   -15.717489    -1.516691    -0.999160    -0.742052    -0.661127    -0.435716     0.028935     0.092094

         1.2          2.2          3.2
     -0.588078     0.059959     0.129792

 HOMO      7.1    -0.435716 =     -11.8564eV
 LUMO      8.1     0.028935 =       0.7874eV
 LUMO-HOMO         0.464651 =      12.6438eV


 **********************************************************************************************************************************
 DATASETS  * FILE   NREC   LENGTH (MB)   RECORD NAMES
              1      19      111.05       500      610      700      900      950      970     1000      129      960     1100   
                                          VAR    BASINP    GEOM    SYMINP    ZMAT    AOBASIS   BASIS     P2S    ABASIS      S 
                                         1400     1410     1200     1210     1080     1600     1650     1300     1700   
                                           T        V       H0       H01     AOSYM     SMH    MOLCAS    ERIS     OPER   

              2       4        2.94       700     1000      520     2100   
                                         GEOM     BASIS   MCVARS     RHF  

 PROGRAMS   *        TOTAL        HF       INT
 CPU TIMES  *         2.78      1.10      1.59
 REAL TIME  *         3.96 SEC
 DISK USED  *       327.55 MB      
 **********************************************************************************************************************************


 PROGRAM * CCSD (Closed-shell coupled cluster)     Authors: C. Hampel, H.-J. Werner, 1991, M. Deegan, P.J. Knowles, 1992


 Convergence thresholds:  THRVAR = 1.00D-08  THRDEN = 1.00D-12

 CCSD(T)     terms to be evaluated (factor= 1.000)


 Number of core orbitals:           2 (   2   0 )
 Number of closed-shell orbitals:   6 (   5   1 )
 Number of external orbitals:     107 (  69  38 )

 Molecular orbitals read from record     2100.2  Type=RHF/CANONICAL (state 1.1)

 Number of N-1 electron functions:               6
 Number of N-2 electron functions:              21
 Number of singly external CSFs:               383
 Number of doubly external CSFs:            107206
 Total number of CSFs:                      107590

 Length of J-op  integral file:               0.00 MB
 Length of K-op  integral file:               0.54 MB
 Length of 3-ext integral record:             0.00 MB

 Memory could be reduced to 5.94 Mwords without degradation in triples

 Integral transformation finished. Total CPU:   0.18 sec, npass=  1  Memory used:   1.65 MW

 Reference energy:                   -129.83646287

 MP2 singlet pair energy:              -0.28130718
 MP2 triplet pair energy:              -0.16643703
 MP2 correlation energy:               -0.44774422
 MP2 total energy:                   -130.28420709

 SCS-MP2 correlation energy:           -0.44112944   (PS=  1.200000  PT=  0.333333)
 SCS-MP2 total energy:               -130.27759231

 ITER.      SQ.NORM     CORR.ENERGY   TOTAL ENERGY   ENERGY CHANGE        DEN1      VAR(S)    VAR(P)  DIIS     TIME  TIME/IT
   1      1.12288478    -0.45116186  -130.28762473    -0.00341764     0.01340937  0.34D-02  0.34D-02  1  1     0.39     0.21
   2      1.13445868    -0.45121480  -130.28767766    -0.00005294    -0.01288617  0.11D-03  0.54D-03  2  2     0.59     0.22
   3      1.14134391    -0.45164645  -130.28810931    -0.00043165    -0.00312362  0.59D-04  0.55D-04  3  3     0.80     0.22
   4      1.14446140    -0.45165898  -130.28812185    -0.00001253    -0.00103727  0.48D-05  0.10D-04  4  4     0.98     0.22
   5      1.14563448    -0.45169150  -130.28815436    -0.00003252    -0.00024709  0.12D-05  0.17D-05  5  5     1.18     0.22
   6      1.14600825    -0.45167205  -130.28813491     0.00001945    -0.00004616  0.11D-06  0.40D-06  6  6     1.36     0.22
   7      1.14608384    -0.45167356  -130.28813643    -0.00000151    -0.00000119  0.18D-07  0.98D-07  6  1     1.57     0.22
   8      1.14610575    -0.45167407  -130.28813693    -0.00000051     0.00000157  0.34D-08  0.19D-07  6  2     1.78     0.22
   9      1.14611486    -0.45167341  -130.28813628     0.00000066    -0.00000085  0.27D-08  0.21D-08  6  3     1.99     0.22
  10      1.14611511    -0.45167396  -130.28813683    -0.00000055    -0.00000005  0.56D-09  0.30D-09  6  4     2.19     0.22
  11      1.14611343    -0.45167409  -130.28813695    -0.00000012     0.00000055  0.17D-09  0.38D-10  6  5     2.40     0.22
  12      1.14611202    -0.45167429  -130.28813716    -0.00000021     0.00000044  0.17D-10  0.10D-10  6  6     2.61     0.22
  13      1.14611122    -0.45167432  -130.28813718    -0.00000002     0.00000019  0.61D-11  0.20D-11  6  1     2.80     0.22
  14      1.14611074    -0.45167434  -130.28813721    -0.00000003     0.00000010  0.91D-12  0.65D-12  6  2     2.98     0.22
  15      1.14611053    -0.45167435  -130.28813721    -0.00000001     0.00000002  0.27D-12  0.19D-12  6  3     3.18     0.22
  16      1.14611043    -0.45167435  -130.28813722    -0.00000000     0.00000002  0.45D-13  0.67D-13  6  4     3.37     0.22
  17      1.14611037    -0.45167435  -130.28813722    -0.00000000     0.00000001  0.30D-14  0.15D-13  6  5     3.59     0.22
  18      1.14611036    -0.45167435  -130.28813722     0.00000000     0.00000000  0.11D-14  0.37D-14  6  6     3.80     0.22
  19      1.14611036    -0.45167435  -130.28813722     0.00000000    -0.00000000  0.15D-15  0.25D-15  6  5     4.00     0.22
  20      1.14611036    -0.45167435  -130.28813722    -0.00000000    -0.00000000  0.61D-16  0.42D-16  6  1     4.21     0.22
  21      1.14611036    -0.45167435  -130.28813722     0.00000000     0.00000000  0.14D-16  0.90D-17  6  2     4.41     0.22
  22      1.14611036    -0.45167435  -130.28813722    -0.00000000     0.00000000  0.40D-17  0.10D-17  6  3     4.61     0.22
  23      1.14611036    -0.45167435  -130.28813722     0.00000000     0.00000000  0.10D-17  0.34D-18  6  4     4.81     0.22
  24      1.14611036    -0.45167435  -130.28813722    -0.00000000     0.00000000  0.29D-18  0.64D-19  6  6     5.02     0.22
  25      1.14611036    -0.45167435  -130.28813722     0.00000000    -0.00000000  0.48D-19  0.29D-19  6  5     5.22     0.22
  26      1.14611036    -0.45167435  -130.28813722     0.00000000    -0.00000000  0.73D-20  0.12D-19  6  1     5.41     0.22
  27      1.14611036    -0.45167435  -130.28813722    -0.00000000    -0.00000000  0.34D-21  0.15D-20  6  3     5.62     0.22
  28      1.14611036    -0.45167435  -130.28813722     0.00000000     0.00000000  0.82D-22  0.21D-21  6  2     5.81     0.22

 Norm of t1 vector:      0.08143322      S-energy:     0.00000000      T1 diagnostic:  0.01662249
                                                                       D1 diagnostic:  0.04451476

 Doubles amplitudes (print threshold =  0.500E-01):

         I         J         SYM. A    SYM. B    A         B      T(IJ, AB)

         6         6         2         2         1         1     -0.11653310


 Total CPU time for triples:      1.60 sec


 RESULTS
 =======

  Reference energy                   -129.836462867623
  CCSD singlet pair energy             -0.310097078972
  CCSD triplet pair energy             -0.141577272353
  CCSD correlation energy              -0.451674351323

  Triples (T) contribution             -0.021467633385
  Total correlation energy             -0.473141984708

  CCSD total energy                  -130.288137218946
  CCSD[T] energy                     -130.310751664655
  CCSD-T energy                      -130.309182220955
 !CCSD(T) total energy               -130.309604852332

 Timing summary (sec):

 STEP                 CPU(USER)    SYS     CPU(TOT)    WALL
 Transformation          0.19      0.04      0.23      0.38
 CCSD iterations         5.62      0.61      6.23      6.24
 Triples                 1.60      0.04      1.64      1.63

 Program statistics:

 Available memory in ccsd:               994999756
 Min. memory needed in ccsd:                389120
 Max. memory used in ccsd:                  473124
 Max. memory used in cckext:                599488 (28 integral passes)



 **********************************************************************************************************************************
 DATASETS  * FILE   NREC   LENGTH (MB)   RECORD NAMES
              1      20      128.20       500      610      700      900      950      970     1000      129      960     1100   
                                          VAR    BASINP    GEOM    SYMINP    ZMAT    AOBASIS   BASIS     P2S    ABASIS      S 
                                         1400     1410     1200     1210     1080     1600     1650     1300     1700     1380   
                                           T        V       H0       H01     AOSYM     SMH    MOLCAS    ERIS     OPER     JKOP   

              2       4        2.94       700     1000      520     2100   
                                         GEOM     BASIS   MCVARS     RHF  

 PROGRAMS   *        TOTAL   CCSD(T)        HF       INT
 CPU TIMES  *        10.21      7.43      1.10      1.59
 REAL TIME  *        12.29 SEC
 DISK USED  *       327.55 MB      
 **********************************************************************************************************************************

 CCSD(T)/aug-cc-pVTZ energy=   -130.309604852332

        CCSD(T)         HF-SCF  
   -130.30960485   -129.83646287
 **********************************************************************************************************************************
 Molpro calculation terminated
 Variable memory released
