
 Primary working directories    : /tmp/r2666/234991.maple
 Secondary working directories  : /tmp/r2666/234991.maple
 Wavefunction directory         : /ddn/home4/r2666/wfu/
 Main file repository           : /tmp/r2666/234991.maple/

 SHA1      : d5ffa45e93fdbca01ffc919aa182cfdae0147319
 NAME      : 2015.1.35
 ARCHNAME  : linux/x86_64
 FC        : /opt/intel/composer_xe_2015.1.133/bin/intel64/ifort
 BLASLIB   : -Wl,-_start-group /opt/intel/mkl/lib/intel64/libmkl_intel_ilp64.a /opt/intel/mkl/lib/intel64/libmkl_intel_thread.a /opt/intel/mkl/lib/intel64/libmkl_core.a -Wl,-_end-group
 id        : olemiss

 Nodes     nprocs
 cn041        1

 Using customized tuning parameters: mindgm=1; mindgv=20; mindgc=4; mindgr=1; noblas=0; minvec=7
 default implementation of scratch files=df  

 ***,hno CCSD(T)/TZ-F12 QFF
 memory, 995, m;
 gthresh,energy=1.d-12,zero=1.d-22,oneint=1.d-22,twoint=1.d-22;
 gthresh,optgrad=1.d-8,optstep=1.d-8;
 nocompress;
 geomtyp=xyz
 bohr
 geometry={
 3
        105       105
 N        0.0000000000       -0.1681775965       -1.1540031467
 H        0.0000000000        1.6722854812       -1.9303547247
 O        0.0000000000        0.0376599054        1.1337682804
 }
 
 basis=avtz
   {hf,maxit=500;accu,20;}
 {ccsd(t),nocheck,maxit=250;orbital,IGNORE_ERROR;}

 Variables initialized (889), CPU time= 0.00 sec
 Commands  initialized (702), CPU time= 0.01 sec, 572 directives.
 Default parameters read. Elapsed time= 0.07 sec

 Checking input...
 Passed
1


                                         ***  PROGRAM SYSTEM MOLPRO  ***
                                       Copyright, TTI GmbH Stuttgart, 2015
                                    Version 2015.1 linked Jul  9 2018 13:16:40


 **********************************************************************************************************************************
 LABEL *   hno CCSD(T)/TZ-F12 QFF                                                        
  64 bit serial version                                                                  DATE: 08-Feb-20          TIME: 17:56:45  
 **********************************************************************************************************************************

 SHA1:             d5ffa45e93fdbca01ffc919aa182cfdae0147319
 **********************************************************************************************************************************

 THRESHOLDS:

 ZERO    =  1.00D-22  ONEINT  =  1.00D-22  TWOINT  =  1.00D-22  PREFAC  =  1.00D-14  LOCALI  =  1.00D-09  EORDER  =  1.00D-04
 ENERGY  =  1.00D-12  ETEST   =  0.00D+00  EDENS   =  0.00D+00  THRDEDEF=  1.00D-06  GRADIENT=  1.00D-02  STEP    =  1.00D-03
 ORBITAL =  1.00D-05  CIVEC   =  1.00D-05  COEFF   =  1.00D-04  PRINTCI =  5.00D-02  PUNCHCI =  9.90D+01  OPTGRAD =  3.00D-04
 OPTENERG=  1.00D-06  OPTSTEP =  3.00D-04  THRGRAD =  1.00D-10  COMPRESS=  1.00D-11  VARMIN  =  1.00D-07  VARMAX  =  1.00D-03
 THRDOUB =  0.00D+00  THRDIV  =  1.00D-05  THRRED  =  1.00D-07  THRPSP  =  1.00D+00  THRDC   =  1.00D-10  THRCS   =  1.00D-10
 THRNRM  =  1.00D-08  THREQ   =  0.00D+00  THRDE   =  1.00D+00  THRREF  =  1.00D-05  SPARFAC =  1.00D+00  THRDLP  =  1.00D-07
 THRDIA  =  1.00D-10  THRDLS  =  1.00D-07  THRGPS  =  0.00D+00  THRKEX  =  0.00D+00  THRDIS  =  2.00D-01  THRVAR  =  1.00D-10
 THRLOC  =  1.00D-06  THRGAP  =  1.00D-06  THRLOCT = -1.00D+00  THRGAPT = -1.00D+00  THRORB  =  1.00D-06  THRMLTP =  0.00D+00
 THRCPQCI=  1.00D-10  KEXTA   =  0.00D+00  THRCOARS=  0.00D+00  SYMTOL  =  1.00D-06  GRADTOL =  1.00D-06  THROVL  =  1.00D-08
 THRORTH =  1.00D-08  GRID    =  1.00D-06  GRIDMAX =  1.00D-03  DTMAX   =  0.00D+00  THROCCDE=  1.00D-01  THROCCDE=  1.00D-01



 THRESHOLDS:

 ZERO    =  1.00D-22  ONEINT  =  1.00D-22  TWOINT  =  1.00D-22  PREFAC  =  1.00D-14  LOCALI  =  1.00D-09  EORDER  =  1.00D-04
 ENERGY  =  1.00D-12  ETEST   =  0.00D+00  EDENS   =  0.00D+00  THRDEDEF=  1.00D-06  GRADIENT=  1.00D-02  STEP    =  1.00D-03
 ORBITAL =  1.00D-05  CIVEC   =  1.00D-05  COEFF   =  1.00D-04  PRINTCI =  5.00D-02  PUNCHCI =  9.90D+01  OPTGRAD =  1.00D-08
 OPTENERG=  1.00D-06  OPTSTEP =  1.00D-08  THRGRAD =  1.00D-10  COMPRESS=  1.00D-11  VARMIN  =  1.00D-07  VARMAX  =  1.00D-03
 THRDOUB =  0.00D+00  THRDIV  =  1.00D-05  THRRED  =  1.00D-07  THRPSP  =  1.00D+00  THRDC   =  1.00D-10  THRCS   =  1.00D-10
 THRNRM  =  1.00D-08  THREQ   =  0.00D+00  THRDE   =  1.00D+00  THRREF  =  1.00D-05  SPARFAC =  1.00D+00  THRDLP  =  1.00D-07
 THRDIA  =  1.00D-10  THRDLS  =  1.00D-07  THRGPS  =  0.00D+00  THRKEX  =  0.00D+00  THRDIS  =  2.00D-01  THRVAR  =  1.00D-10
 THRLOC  =  1.00D-06  THRGAP  =  1.00D-06  THRLOCT = -1.00D+00  THRGAPT = -1.00D+00  THRORB  =  1.00D-06  THRMLTP =  0.00D+00
 THRCPQCI=  1.00D-10  KEXTA   =  0.00D+00  THRCOARS=  0.00D+00  SYMTOL  =  1.00D-06  GRADTOL =  1.00D-06  THROVL  =  1.00D-08
 THRORTH =  1.00D-08  GRID    =  1.00D-06  GRIDMAX =  1.00D-03  DTMAX   =  0.00D+00  THROCCDE=  1.00D-01  THROCCDE=  1.00D-01



 Input parameters for SORTINT:

 COMPRESS =    0.000000
 C_FINAL  =    1.000000
 DEBUG    =   -1.000000
 C_SORT1  =    0.000000
 C_SEWARD =    0.000000
 THRESH   =    0.000000
 IO       =  molpro                                                          
 SPRI     =    0.000000
 SETTING GEOMTYP        =    XYZ
 ZUNIT=BOHR
 

 Variable memory set to  995000000 words,  buffer space   230000 words

 SETTING BASIS          =    AVTZ


 Recomputing integrals since basis changed


 Using spherical harmonics

 Library entry N      S aug-cc-pVTZ          selected for orbital group  1
 Library entry N      P aug-cc-pVTZ          selected for orbital group  1
 Library entry N      D aug-cc-pVTZ          selected for orbital group  1
 Library entry N      F aug-cc-pVTZ          selected for orbital group  1
 Library entry H      S aug-cc-pVTZ          selected for orbital group  2
 Library entry H      P aug-cc-pVTZ          selected for orbital group  2
 Library entry H      D aug-cc-pVTZ          selected for orbital group  2
 Library entry O      S aug-cc-pVTZ          selected for orbital group  3
 Library entry O      P aug-cc-pVTZ          selected for orbital group  3
 Library entry O      D aug-cc-pVTZ          selected for orbital group  3
 Library entry O      F aug-cc-pVTZ          selected for orbital group  3


 PROGRAM * SEWARD (Integral evaluation for generally contracted gaussian basis sets)     Author: Roland Lindh, 1990

 Geometry written to block  1 of record 700


 Point group  Cs  



 ATOMIC COORDINATES

 NR  ATOM    CHARGE       X              Y              Z

   1  N       7.00    0.000000000   -0.168177596   -1.154003147
   2  H       1.00    0.000000000    1.672285481   -1.930354725
   3  O       8.00    0.000000000    0.037659905    1.133768280

 Bond lengths in Bohr (Angstrom)

 1-2  1.997504972  1-3  2.297012664
     ( 1.057034110)     ( 1.215526755)

 Bond angles

  2-1-3  107.72996058

 NUCLEAR CHARGE:                   16
 NUMBER OF PRIMITIVE AOS:         161
 NUMBER OF SYMMETRY AOS:          141
 NUMBER OF CONTRACTIONS:          115   (  76A'  +  39A"  )
 NUMBER OF CORE ORBITALS:           2   (   2A'  +   0A"  )
 NUMBER OF VALENCE ORBITALS:        9   (   7A'  +   2A"  )


 NUCLEAR REPULSION ENERGY   30.18743084

 Eigenvalues of metric

         1 0.235E-03 0.507E-03 0.182E-02 0.216E-02 0.260E-02 0.370E-02 0.435E-02 0.525E-02
         2 0.404E-02 0.103E-01 0.266E-01 0.375E-01 0.516E-01 0.626E-01 0.835E-01 0.120E+00


 Contracted 2-electron integrals neglected if value below      1.0D-22

       10790064. INTEGRALS WRITTEN OUT IN    2635 BLOCKS ON RECORD 1290 OF FILE 1


 NUMBER OF SORTED TWO-ELECTRON INTEGRALS:   11433631.     BUFFER LENGTH:  32768
 NUMBER OF SEGMENTS:   1  SEGMENT LENGTH:   11433631      RECORD LENGTH: 524288

 Memory used in sort:      11.99 MW

 SORT1 READ    10790064. AND WROTE    10943632. INTEGRALS IN     32 RECORDS. CPU TIME:     0.34 SEC, REAL TIME:     0.44 SEC
 SORT2 READ    10943632. AND WROTE    11433631. INTEGRALS IN      1 RECORDS. CPU TIME:     0.23 SEC, REAL TIME:     0.29 SEC

 FILE SIZES:   FILE 1:   193.0 MBYTE,  FILE 4:   134.3 MBYTE,   TOTAL:    327.2 MBYTE

 OPERATOR DM      FOR CENTER  0  COORDINATES:    0.000000    0.000000    0.000000


 **********************************************************************************************************************************
 DATASETS  * FILE   NREC   LENGTH (MB)   RECORD NAMES
              1      19      111.05       500      610      700      900      950      970     1000      129      960     1100   
                                          VAR    BASINP    GEOM    SYMINP    ZMAT    AOBASIS   BASIS     P2S    ABASIS      S 
                                         1400     1410     1200     1210     1080     1600     1650     1300     1700   
                                           T        V       H0       H01     AOSYM     SMH    MOLCAS    ERIS     OPER   

 PROGRAMS   *        TOTAL       INT
 CPU TIMES  *         1.97      1.85
 REAL TIME  *         2.98 SEC
 DISK USED  *       327.55 MB      
 **********************************************************************************************************************************


 PROGRAM * RHF-SCF (CLOSED SHELL)       Authors: W. Meyer, H.-J. Werner


 NUMBER OF ELECTRONS:       8+    8-
 CONVERGENCE THRESHOLDS:    1.00E-10 (Density)    1.00E-13 (Energy)
 MAX. NUMBER OF ITERATIONS:      500
 INTERPOLATION TYPE:            DIIS
 INTERPOLATION STEPS:              2 (START)      1 (STEP)
 LEVEL SHIFTS:                  0.00 (CLOSED)  0.00 (OPEN) 



 Orbital guess generated from atomic densities. Full valence occupancy:    9   2

 Molecular orbital dump at record        2100.2

 Initial occupancy:   7   1

 ITERATION    DDIFF          GRAD             ENERGY        2-EL.EN.            DIPOLE MOMENTS         DIIS   ORB.
    1      0.000D+00      0.000D+00      -129.78568203    153.569594    0.00000    0.58811   -1.04532    0    start
    2      0.000D+00      0.109D-01      -129.81288248    154.825858    0.00000    0.61559   -0.20202    1    diag
    3      0.121D-01      0.848D-02      -129.83707163    154.953931    0.00000    0.55732   -0.60155    2    diag
    4      0.608D-02      0.129D-02      -129.83787902    154.659162    0.00000    0.56476   -0.54056    3    diag
    5      0.108D-02      0.427D-03      -129.83800901    154.754098    0.00000    0.57038   -0.54323    4    diag
    6      0.457D-03      0.124D-03      -129.83802987    154.738342    0.00000    0.57071   -0.53899    5    diag
    7      0.175D-03      0.617D-04      -129.83803597    154.740803    0.00000    0.57195   -0.53631    6    diag
    8      0.122D-03      0.215D-04      -129.83803667    154.740114    0.00000    0.57197   -0.53526    7    diag
    9      0.473D-04      0.410D-05      -129.83803670    154.739999    0.00000    0.57193   -0.53503    8    diag
   10      0.924D-05      0.917D-06      -129.83803670    154.739979    0.00000    0.57190   -0.53500    9    orth
   11      0.180D-05      0.181D-06      -129.83803670    154.739976    0.00000    0.57189   -0.53500    9    diag
   12      0.342D-06      0.379D-07      -129.83803670    154.739976    0.00000    0.57189   -0.53500    9    diag
   13      0.741D-07      0.978D-08      -129.83803670    154.739976    0.00000    0.57189   -0.53500    9    diag
   14      0.199D-07      0.201D-08      -129.83803670    154.739976    0.00000    0.57189   -0.53500    9    diag
   15      0.384D-08      0.552D-09      -129.83803670    154.739976    0.00000    0.57189   -0.53500    9    diag
   16      0.105D-08      0.145D-09      -129.83803670    154.739976    0.00000    0.57189   -0.53500    9    diag
   17      0.176D-09      0.400D-10      -129.83803670    154.739976    0.00000    0.57189   -0.53500    9    diag
   18      0.478D-10      0.140D-10      -129.83803670    154.739976    0.00000    0.57189   -0.53500    0    orth

 Final occupancy:   7   1

 !RHF STATE 1.1 Energy               -129.838036703386
 Nuclear energy                        30.18743084
 One-electron energy                 -237.39545539
 Two-electron energy                   77.36998785
 Virial quotient                       -1.00242808
 !RHF STATE 1.1 Dipole moment           0.00000000     0.57188722    -0.53499584
 Dipole moment /Debye                   0.00000000     1.45349713    -1.35973474

 Orbital energies:

         1.1          2.1          3.1          4.1          5.1          6.1          7.1          8.1          9.1
    -20.657266   -15.716527    -1.524794    -0.995286    -0.744468    -0.663848    -0.432761     0.029109     0.092162

         1.2          2.2          3.2
     -0.592790     0.062837     0.130113

 HOMO      7.1    -0.432761 =     -11.7760eV
 LUMO      8.1     0.029109 =       0.7921eV
 LUMO-HOMO         0.461870 =      12.5681eV


 **********************************************************************************************************************************
 DATASETS  * FILE   NREC   LENGTH (MB)   RECORD NAMES
              1      19      111.05       500      610      700      900      950      970     1000      129      960     1100   
                                          VAR    BASINP    GEOM    SYMINP    ZMAT    AOBASIS   BASIS     P2S    ABASIS      S 
                                         1400     1410     1200     1210     1080     1600     1650     1300     1700   
                                           T        V       H0       H01     AOSYM     SMH    MOLCAS    ERIS     OPER   

              2       4        2.94       700     1000      520     2100   
                                         GEOM     BASIS   MCVARS     RHF  

 PROGRAMS   *        TOTAL        HF       INT
 CPU TIMES  *         3.23      1.26      1.85
 REAL TIME  *         4.57 SEC
 DISK USED  *       327.55 MB      
 **********************************************************************************************************************************


 PROGRAM * CCSD (Closed-shell coupled cluster)     Authors: C. Hampel, H.-J. Werner, 1991, M. Deegan, P.J. Knowles, 1992


 Convergence thresholds:  THRVAR = 1.00D-08  THRDEN = 1.00D-12

 CCSD(T)     terms to be evaluated (factor= 1.000)


 Number of core orbitals:           2 (   2   0 )
 Number of closed-shell orbitals:   6 (   5   1 )
 Number of external orbitals:     107 (  69  38 )

 Molecular orbitals read from record     2100.2  Type=RHF/CANONICAL (state 1.1)

 Number of N-1 electron functions:               6
 Number of N-2 electron functions:              21
 Number of singly external CSFs:               383
 Number of doubly external CSFs:            107206
 Total number of CSFs:                      107590

 Length of J-op  integral file:               0.00 MB
 Length of K-op  integral file:               0.54 MB
 Length of 3-ext integral record:             0.00 MB

 Memory could be reduced to 5.94 Mwords without degradation in triples

 Integral transformation finished. Total CPU:   0.21 sec, npass=  1  Memory used:   1.65 MW

 Reference energy:                   -129.83803670

 MP2 singlet pair energy:              -0.28036170
 MP2 triplet pair energy:              -0.16578933
 MP2 correlation energy:               -0.44615103
 MP2 total energy:                   -130.28418774

 SCS-MP2 correlation energy:           -0.43959185   (PS=  1.200000  PT=  0.333333)
 SCS-MP2 total energy:               -130.27762855

 ITER.      SQ.NORM     CORR.ENERGY   TOTAL ENERGY   ENERGY CHANGE        DEN1      VAR(S)    VAR(P)  DIIS     TIME  TIME/IT
   1      1.12193680    -0.44995345  -130.28799015    -0.00380242     0.01262025  0.32D-02  0.32D-02  1  1     0.45     0.25
   2      1.13327670    -0.45008901  -130.28812571    -0.00013556    -0.01265434  0.11D-03  0.53D-03  2  2     0.67     0.26
   3      1.13995793    -0.45050481  -130.28854151    -0.00041580    -0.00306465  0.56D-04  0.53D-04  3  3     0.91     0.26
   4      1.14294578    -0.45051626  -130.28855296    -0.00001145    -0.00100438  0.45D-05  0.95D-05  4  4     1.14     0.26
   5      1.14404912    -0.45054681  -130.28858352    -0.00003056    -0.00023336  0.12D-05  0.16D-05  5  5     1.37     0.26
   6      1.14440444    -0.45052876  -130.28856546     0.00001805    -0.00004368  0.11D-06  0.39D-06  6  6     1.62     0.26
   7      1.14447926    -0.45052998  -130.28856668    -0.00000122    -0.00000152  0.19D-07  0.93D-07  6  1     1.86     0.26
   8      1.14450107    -0.45053056  -130.28856726    -0.00000058     0.00000146  0.35D-08  0.17D-07  6  2     2.09     0.26
   9      1.14450659    -0.45053008  -130.28856678     0.00000048     0.00000050  0.28D-08  0.20D-08  6  4     2.33     0.26
  10      1.14450906    -0.45053057  -130.28856727    -0.00000049    -0.00000076  0.47D-09  0.24D-09  6  3     2.56     0.26
  11      1.14450859    -0.45053059  -130.28856729    -0.00000002    -0.00000009  0.17D-09  0.36D-10  6  5     2.81     0.26
  12      1.14450750    -0.45053075  -130.28856745    -0.00000016     0.00000035  0.19D-10  0.11D-10  6  6     3.04     0.26
  13      1.14450661    -0.45053079  -130.28856749    -0.00000004     0.00000022  0.66D-11  0.23D-11  6  1     3.27     0.26
  14      1.14450603    -0.45053082  -130.28856752    -0.00000003     0.00000015  0.10D-11  0.74D-12  6  2     3.49     0.26
  15      1.14450578    -0.45053083  -130.28856753    -0.00000001     0.00000004  0.29D-12  0.23D-12  6  4     3.70     0.26
  16      1.14450568    -0.45053083  -130.28856753    -0.00000000     0.00000001  0.55D-13  0.80D-13  6  3     3.94     0.26
  17      1.14450562    -0.45053083  -130.28856753    -0.00000000     0.00000001  0.40D-14  0.19D-13  6  5     4.17     0.26
  18      1.14450561    -0.45053083  -130.28856753     0.00000000    -0.00000000  0.13D-14  0.41D-14  6  6     4.40     0.26
  19      1.14450561    -0.45053083  -130.28856753    -0.00000000     0.00000000  0.11D-14  0.72D-15  6  1     4.64     0.26
  20      1.14450561    -0.45053083  -130.28856753     0.00000000    -0.00000000  0.23D-15  0.12D-15  6  2     4.90     0.26
  21      1.14450561    -0.45053083  -130.28856753     0.00000000    -0.00000000  0.58D-16  0.32D-16  6  3     5.15     0.26
  22      1.14450561    -0.45053083  -130.28856753     0.00000000    -0.00000000  0.65D-17  0.29D-17  6  4     5.39     0.26
  23      1.14450561    -0.45053083  -130.28856753     0.00000000    -0.00000000  0.24D-17  0.60D-18  6  5     5.64     0.26
  24      1.14450561    -0.45053083  -130.28856753     0.00000000     0.00000000  0.17D-18  0.54D-19  6  2     5.89     0.27
  25      1.14450561    -0.45053083  -130.28856753    -0.00000000    -0.00000000  0.25D-19  0.14D-19  6  6     6.14     0.27
  26      1.14450561    -0.45053083  -130.28856753     0.00000000    -0.00000000  0.38D-20  0.25D-20  6  1     6.40     0.27
  27      1.14450561    -0.45053083  -130.28856753    -0.00000000    -0.00000000  0.52D-21  0.59D-21  6  4     6.66     0.27

 Norm of t1 vector:      0.07979247      S-energy:     0.00000000      T1 diagnostic:  0.01628757
                                                                       D1 diagnostic:  0.04309077

 Doubles amplitudes (print threshold =  0.500E-01):

         I         J         SYM. A    SYM. B    A         B      T(IJ, AB)

         6         6         2         2         1         1     -0.11222061


 Total CPU time for triples:      1.97 sec


 RESULTS
 =======

  Reference energy                   -129.838036703386
  CCSD singlet pair energy             -0.309108344315
  CCSD triplet pair energy             -0.141422486228
  CCSD correlation energy              -0.450530830542

  Triples (T) contribution             -0.021178092180
  Total correlation energy             -0.471708922722

  CCSD total energy                  -130.288567533928
  CCSD[T] energy                     -130.310848751259
  CCSD-T energy                      -130.309331966684
 !CCSD(T) total energy               -130.309745626108

 Timing summary (sec):

 STEP                 CPU(USER)    SYS     CPU(TOT)    WALL
 Transformation          0.22      0.05      0.27      0.27
 CCSD iterations         6.44      0.77      7.21      7.22
 Triples                 1.97      0.04      2.01      2.01

 Program statistics:

 Available memory in ccsd:               994999756
 Min. memory needed in ccsd:                389120
 Max. memory used in ccsd:                  473124
 Max. memory used in cckext:                599488 (27 integral passes)



 **********************************************************************************************************************************
 DATASETS  * FILE   NREC   LENGTH (MB)   RECORD NAMES
              1      20      128.20       500      610      700      900      950      970     1000      129      960     1100   
                                          VAR    BASINP    GEOM    SYMINP    ZMAT    AOBASIS   BASIS     P2S    ABASIS      S 
                                         1400     1410     1200     1210     1080     1600     1650     1300     1700     1380   
                                           T        V       H0       H01     AOSYM     SMH    MOLCAS    ERIS     OPER     JKOP   

              2       4        2.94       700     1000      520     2100   
                                         GEOM     BASIS   MCVARS     RHF  

 PROGRAMS   *        TOTAL   CCSD(T)        HF       INT
 CPU TIMES  *        11.88      8.65      1.26      1.85
 REAL TIME  *        14.11 SEC
 DISK USED  *       327.55 MB      
 **********************************************************************************************************************************

 CCSD(T)/aug-cc-pVTZ energy=   -130.309745626108

        CCSD(T)         HF-SCF  
   -130.30974563   -129.83803670
 **********************************************************************************************************************************
 Molpro calculation terminated
 Variable memory released
