
 Primary working directories    : /tmp/r2666/234972.maple
 Secondary working directories  : /tmp/r2666/234972.maple
 Wavefunction directory         : /ddn/home4/r2666/wfu/
 Main file repository           : /tmp/r2666/234972.maple/

 SHA1      : d5ffa45e93fdbca01ffc919aa182cfdae0147319
 NAME      : 2015.1.35
 ARCHNAME  : linux/x86_64
 FC        : /opt/intel/composer_xe_2015.1.133/bin/intel64/ifort
 BLASLIB   : -Wl,-_start-group /opt/intel/mkl/lib/intel64/libmkl_intel_ilp64.a /opt/intel/mkl/lib/intel64/libmkl_intel_thread.a /opt/intel/mkl/lib/intel64/libmkl_core.a -Wl,-_end-group
 id        : olemiss

 Nodes     nprocs
 cn029        1

 Using customized tuning parameters: mindgm=1; mindgv=20; mindgc=4; mindgr=1; noblas=0; minvec=7
 default implementation of scratch files=df  

 ***,hno CCSD(T)/TZ-F12 QFF
 memory, 995, m;
 gthresh,energy=1.d-12,zero=1.d-22,oneint=1.d-22,twoint=1.d-22;
 gthresh,optgrad=1.d-8,optstep=1.d-8;
 nocompress;
 geomtyp=xyz
 bohr
 geometry={
 3
         86        86
 N        0.0000000000       -0.1701171816       -1.1387073889
 H        0.0000000000        1.6686685282       -1.9190234959
 O        0.0000000000        0.0432164434        1.1071412939
 }
 
 basis=avtz
   {hf,maxit=500;accu,20;}
 {ccsd(t),nocheck,maxit=250;orbital,IGNORE_ERROR;}

 Variables initialized (889), CPU time= 0.00 sec
 Commands  initialized (702), CPU time= 0.01 sec, 572 directives.
 Default parameters read. Elapsed time= 0.06 sec

 Checking input...
 Passed
1


                                         ***  PROGRAM SYSTEM MOLPRO  ***
                                       Copyright, TTI GmbH Stuttgart, 2015
                                    Version 2015.1 linked Jul  9 2018 13:16:40


 **********************************************************************************************************************************
 LABEL *   hno CCSD(T)/TZ-F12 QFF                                                        
  64 bit serial version                                                                  DATE: 08-Feb-20          TIME: 17:56:40  
 **********************************************************************************************************************************

 SHA1:             d5ffa45e93fdbca01ffc919aa182cfdae0147319
 **********************************************************************************************************************************

 THRESHOLDS:

 ZERO    =  1.00D-22  ONEINT  =  1.00D-22  TWOINT  =  1.00D-22  PREFAC  =  1.00D-14  LOCALI  =  1.00D-09  EORDER  =  1.00D-04
 ENERGY  =  1.00D-12  ETEST   =  0.00D+00  EDENS   =  0.00D+00  THRDEDEF=  1.00D-06  GRADIENT=  1.00D-02  STEP    =  1.00D-03
 ORBITAL =  1.00D-05  CIVEC   =  1.00D-05  COEFF   =  1.00D-04  PRINTCI =  5.00D-02  PUNCHCI =  9.90D+01  OPTGRAD =  3.00D-04
 OPTENERG=  1.00D-06  OPTSTEP =  3.00D-04  THRGRAD =  1.00D-10  COMPRESS=  1.00D-11  VARMIN  =  1.00D-07  VARMAX  =  1.00D-03
 THRDOUB =  0.00D+00  THRDIV  =  1.00D-05  THRRED  =  1.00D-07  THRPSP  =  1.00D+00  THRDC   =  1.00D-10  THRCS   =  1.00D-10
 THRNRM  =  1.00D-08  THREQ   =  0.00D+00  THRDE   =  1.00D+00  THRREF  =  1.00D-05  SPARFAC =  1.00D+00  THRDLP  =  1.00D-07
 THRDIA  =  1.00D-10  THRDLS  =  1.00D-07  THRGPS  =  0.00D+00  THRKEX  =  0.00D+00  THRDIS  =  2.00D-01  THRVAR  =  1.00D-10
 THRLOC  =  1.00D-06  THRGAP  =  1.00D-06  THRLOCT = -1.00D+00  THRGAPT = -1.00D+00  THRORB  =  1.00D-06  THRMLTP =  0.00D+00
 THRCPQCI=  1.00D-10  KEXTA   =  0.00D+00  THRCOARS=  0.00D+00  SYMTOL  =  1.00D-06  GRADTOL =  1.00D-06  THROVL  =  1.00D-08
 THRORTH =  1.00D-08  GRID    =  1.00D-06  GRIDMAX =  1.00D-03  DTMAX   =  0.00D+00  THROCCDE=  1.00D-01  THROCCDE=  1.00D-01



 THRESHOLDS:

 ZERO    =  1.00D-22  ONEINT  =  1.00D-22  TWOINT  =  1.00D-22  PREFAC  =  1.00D-14  LOCALI  =  1.00D-09  EORDER  =  1.00D-04
 ENERGY  =  1.00D-12  ETEST   =  0.00D+00  EDENS   =  0.00D+00  THRDEDEF=  1.00D-06  GRADIENT=  1.00D-02  STEP    =  1.00D-03
 ORBITAL =  1.00D-05  CIVEC   =  1.00D-05  COEFF   =  1.00D-04  PRINTCI =  5.00D-02  PUNCHCI =  9.90D+01  OPTGRAD =  1.00D-08
 OPTENERG=  1.00D-06  OPTSTEP =  1.00D-08  THRGRAD =  1.00D-10  COMPRESS=  1.00D-11  VARMIN  =  1.00D-07  VARMAX  =  1.00D-03
 THRDOUB =  0.00D+00  THRDIV  =  1.00D-05  THRRED  =  1.00D-07  THRPSP  =  1.00D+00  THRDC   =  1.00D-10  THRCS   =  1.00D-10
 THRNRM  =  1.00D-08  THREQ   =  0.00D+00  THRDE   =  1.00D+00  THRREF  =  1.00D-05  SPARFAC =  1.00D+00  THRDLP  =  1.00D-07
 THRDIA  =  1.00D-10  THRDLS  =  1.00D-07  THRGPS  =  0.00D+00  THRKEX  =  0.00D+00  THRDIS  =  2.00D-01  THRVAR  =  1.00D-10
 THRLOC  =  1.00D-06  THRGAP  =  1.00D-06  THRLOCT = -1.00D+00  THRGAPT = -1.00D+00  THRORB  =  1.00D-06  THRMLTP =  0.00D+00
 THRCPQCI=  1.00D-10  KEXTA   =  0.00D+00  THRCOARS=  0.00D+00  SYMTOL  =  1.00D-06  GRADTOL =  1.00D-06  THROVL  =  1.00D-08
 THRORTH =  1.00D-08  GRID    =  1.00D-06  GRIDMAX =  1.00D-03  DTMAX   =  0.00D+00  THROCCDE=  1.00D-01  THROCCDE=  1.00D-01



 Input parameters for SORTINT:

 COMPRESS =    0.000000
 C_FINAL  =    1.000000
 DEBUG    =   -1.000000
 C_SORT1  =    0.000000
 C_SEWARD =    0.000000
 THRESH   =    0.000000
 IO       =  molpro                                                          
 SPRI     =    0.000000
 SETTING GEOMTYP        =    XYZ
 ZUNIT=BOHR
 

 Variable memory set to  995000000 words,  buffer space   230000 words

 SETTING BASIS          =    AVTZ


 Recomputing integrals since basis changed


 Using spherical harmonics

 Library entry N      S aug-cc-pVTZ          selected for orbital group  1
 Library entry N      P aug-cc-pVTZ          selected for orbital group  1
 Library entry N      D aug-cc-pVTZ          selected for orbital group  1
 Library entry N      F aug-cc-pVTZ          selected for orbital group  1
 Library entry H      S aug-cc-pVTZ          selected for orbital group  2
 Library entry H      P aug-cc-pVTZ          selected for orbital group  2
 Library entry H      D aug-cc-pVTZ          selected for orbital group  2
 Library entry O      S aug-cc-pVTZ          selected for orbital group  3
 Library entry O      P aug-cc-pVTZ          selected for orbital group  3
 Library entry O      D aug-cc-pVTZ          selected for orbital group  3
 Library entry O      F aug-cc-pVTZ          selected for orbital group  3


 PROGRAM * SEWARD (Integral evaluation for generally contracted gaussian basis sets)     Author: Roland Lindh, 1990

 Geometry written to block  1 of record 700


 Point group  Cs  



 ATOMIC COORDINATES

 NR  ATOM    CHARGE       X              Y              Z

   1  N       7.00    0.000000000   -0.170117182   -1.138707389
   2  H       1.00    0.000000000    1.668668528   -1.919023496
   3  O       8.00    0.000000000    0.043216443    1.107141294

 Bond lengths in Bohr (Angstrom)

 1-2  1.997504972  1-3  2.255958231
     ( 1.057034110)     ( 1.193801685)

 Bond angles

  2-1-3  107.56840709

 NUCLEAR CHARGE:                   16
 NUMBER OF PRIMITIVE AOS:         161
 NUMBER OF SYMMETRY AOS:          141
 NUMBER OF CONTRACTIONS:          115   (  76A'  +  39A"  )
 NUMBER OF CORE ORBITALS:           2   (   2A'  +   0A"  )
 NUMBER OF VALENCE ORBITALS:        9   (   7A'  +   2A"  )


 NUCLEAR REPULSION ENERGY   30.65643933

 Eigenvalues of metric

         1 0.228E-03 0.498E-03 0.177E-02 0.209E-02 0.242E-02 0.338E-02 0.429E-02 0.514E-02
         2 0.380E-02 0.102E-01 0.256E-01 0.370E-01 0.510E-01 0.621E-01 0.799E-01 0.118E+00


 Contracted 2-electron integrals neglected if value below      1.0D-22

       10790060. INTEGRALS WRITTEN OUT IN    2635 BLOCKS ON RECORD 1290 OF FILE 1


 NUMBER OF SORTED TWO-ELECTRON INTEGRALS:   11433631.     BUFFER LENGTH:  32768
 NUMBER OF SEGMENTS:   1  SEGMENT LENGTH:   11433631      RECORD LENGTH: 524288

 Memory used in sort:      11.99 MW

 SORT1 READ    10790060. AND WROTE    10943631. INTEGRALS IN     32 RECORDS. CPU TIME:     0.25 SEC, REAL TIME:     0.31 SEC
 SORT2 READ    10943631. AND WROTE    11433631. INTEGRALS IN      1 RECORDS. CPU TIME:     0.22 SEC, REAL TIME:     0.27 SEC

 FILE SIZES:   FILE 1:   193.0 MBYTE,  FILE 4:   134.3 MBYTE,   TOTAL:    327.2 MBYTE

 OPERATOR DM      FOR CENTER  0  COORDINATES:    0.000000    0.000000    0.000000


 **********************************************************************************************************************************
 DATASETS  * FILE   NREC   LENGTH (MB)   RECORD NAMES
              1      19      111.05       500      610      700      900      950      970     1000      129      960     1100   
                                          VAR    BASINP    GEOM    SYMINP    ZMAT    AOBASIS   BASIS     P2S    ABASIS      S 
                                         1400     1410     1200     1210     1080     1600     1650     1300     1700   
                                           T        V       H0       H01     AOSYM     SMH    MOLCAS    ERIS     OPER   

 PROGRAMS   *        TOTAL       INT
 CPU TIMES  *         1.65      1.52
 REAL TIME  *         2.59 SEC
 DISK USED  *       327.55 MB      
 **********************************************************************************************************************************


 PROGRAM * RHF-SCF (CLOSED SHELL)       Authors: W. Meyer, H.-J. Werner


 NUMBER OF ELECTRONS:       8+    8-
 CONVERGENCE THRESHOLDS:    1.00E-10 (Density)    1.00E-13 (Energy)
 MAX. NUMBER OF ITERATIONS:      500
 INTERPOLATION TYPE:            DIIS
 INTERPOLATION STEPS:              2 (START)      1 (STEP)
 LEVEL SHIFTS:                  0.00 (CLOSED)  0.00 (OPEN) 



 Orbital guess generated from atomic densities. Full valence occupancy:    9   2

 Molecular orbital dump at record        2100.2

 Initial occupancy:   7   1

 ITERATION    DDIFF          GRAD             ENERGY        2-EL.EN.            DIPOLE MOMENTS         DIIS   ORB.
    1      0.000D+00      0.000D+00      -129.79149999    154.408078    0.00000    0.57677   -0.97425    0    start
    2      0.000D+00      0.106D-01      -129.81933649    155.707564    0.00000    0.60146   -0.21045    1    diag
    3      0.116D-01      0.788D-02      -129.83999472    155.786461    0.00000    0.54626   -0.56790    2    diag
    4      0.572D-02      0.125D-02      -129.84075454    155.508936    0.00000    0.55433   -0.51053    3    diag
    5      0.105D-02      0.414D-03      -129.84087565    155.601846    0.00000    0.55992   -0.51358    4    diag
    6      0.440D-03      0.120D-03      -129.84089496    155.586418    0.00000    0.56036   -0.50975    5    diag
    7      0.169D-03      0.584D-04      -129.84090031    155.589088    0.00000    0.56166   -0.50740    6    diag
    8      0.115D-03      0.190D-04      -129.84090082    155.588473    0.00000    0.56170   -0.50650    7    diag
    9      0.401D-04      0.354D-05      -129.84090084    155.588376    0.00000    0.56166   -0.50631    8    diag
   10      0.751D-05      0.829D-06      -129.84090084    155.588357    0.00000    0.56163   -0.50628    9    orth
   11      0.162D-05      0.170D-06      -129.84090084    155.588353    0.00000    0.56162   -0.50628    9    diag
   12      0.328D-06      0.346D-07      -129.84090084    155.588353    0.00000    0.56162   -0.50628    9    diag
   13      0.722D-07      0.858D-08      -129.84090084    155.588353    0.00000    0.56162   -0.50628    9    diag
   14      0.184D-07      0.182D-08      -129.84090084    155.588353    0.00000    0.56162   -0.50628    9    diag
   15      0.380D-08      0.527D-09      -129.84090084    155.588353    0.00000    0.56162   -0.50628    9    diag
   16      0.103D-08      0.152D-09      -129.84090084    155.588353    0.00000    0.56162   -0.50628    9    diag
   17      0.200D-09      0.452D-10      -129.84090084    155.588353    0.00000    0.56162   -0.50628    9    diag
   18      0.591D-10      0.158D-10      -129.84090084    155.588353    0.00000    0.56162   -0.50628    9    diag
   19      0.280D-10      0.354D-11      -129.84090084    155.588353    0.00000    0.56162   -0.50628    9    fixocc
   20      0.705D-11      0.543D-12      -129.84090084    155.588353    0.00000    0.56162   -0.50628    9    orth
   21      0.151D-11      0.181D-12      -129.84090084    155.588353    0.00000    0.56162   -0.50628    9    diag
   22      0.144D-11      0.737D-13      -129.84090084    155.588353    0.00000    0.56162   -0.50628    9    diag
   23      0.512D-12      0.528D-13      -129.84090084    155.588353    0.00000    0.56162   -0.50628    0    orth

 Final occupancy:   7   1

 !RHF STATE 1.1 Energy               -129.840900841139
 Nuclear energy                        30.65643933
 One-electron energy                 -238.29151664
 Two-electron energy                   77.79417647
 Virial quotient                       -1.00175150
 !RHF STATE 1.1 Dipole moment           0.00000000     0.56162133    -0.50627653
 Dipole moment /Debye                   0.00000000     1.42740554    -1.28674231

 Orbital energies:

         1.1          2.1          3.1          4.1          5.1          6.1          7.1          8.1          9.1
    -20.655138   -15.712829    -1.542833    -0.990106    -0.751217    -0.670064    -0.426152     0.029435     0.092248

         1.2          2.2          3.2
     -0.603241     0.068873     0.130720

 HOMO      7.1    -0.426152 =     -11.5962eV
 LUMO      8.1     0.029435 =       0.8010eV
 LUMO-HOMO         0.455587 =      12.3971eV


 **********************************************************************************************************************************
 DATASETS  * FILE   NREC   LENGTH (MB)   RECORD NAMES
              1      19      111.05       500      610      700      900      950      970     1000      129      960     1100   
                                          VAR    BASINP    GEOM    SYMINP    ZMAT    AOBASIS   BASIS     P2S    ABASIS      S 
                                         1400     1410     1200     1210     1080     1600     1650     1300     1700   
                                           T        V       H0       H01     AOSYM     SMH    MOLCAS    ERIS     OPER   

              2       4        2.94       700     1000      520     2100   
                                         GEOM     BASIS   MCVARS     RHF  

 PROGRAMS   *        TOTAL        HF       INT
 CPU TIMES  *         3.19      1.54      1.52
 REAL TIME  *         4.46 SEC
 DISK USED  *       327.55 MB      
 **********************************************************************************************************************************


 PROGRAM * CCSD (Closed-shell coupled cluster)     Authors: C. Hampel, H.-J. Werner, 1991, M. Deegan, P.J. Knowles, 1992


 Convergence thresholds:  THRVAR = 1.00D-08  THRDEN = 1.00D-12

 CCSD(T)     terms to be evaluated (factor= 1.000)


 Number of core orbitals:           2 (   2   0 )
 Number of closed-shell orbitals:   6 (   5   1 )
 Number of external orbitals:     107 (  69  38 )

 Molecular orbitals read from record     2100.2  Type=RHF/CANONICAL (state 1.1)

 Number of N-1 electron functions:               6
 Number of N-2 electron functions:              21
 Number of singly external CSFs:               383
 Number of doubly external CSFs:            107206
 Total number of CSFs:                      107590

 Length of J-op  integral file:               0.00 MB
 Length of K-op  integral file:               0.54 MB
 Length of 3-ext integral record:             0.00 MB

 Memory could be reduced to 5.94 Mwords without degradation in triples

 Integral transformation finished. Total CPU:   0.21 sec, npass=  1  Memory used:   1.65 MW

 Reference energy:                   -129.84090084

 MP2 singlet pair energy:              -0.27808430
 MP2 triplet pair energy:              -0.16426877
 MP2 correlation energy:               -0.44235307
 MP2 total energy:                   -130.28325391

 SCS-MP2 correlation energy:           -0.43591283   (PS=  1.200000  PT=  0.333333)
 SCS-MP2 total energy:               -130.27681367

 ITER.      SQ.NORM     CORR.ENERGY   TOTAL ENERGY   ENERGY CHANGE        DEN1      VAR(S)    VAR(P)  DIIS     TIME  TIME/IT
   1      1.11956875    -0.44698779  -130.28788864    -0.00463473     0.01088508  0.30D-02  0.30D-02  1  1     0.44     0.24
   2      1.13037341    -0.44728912  -130.28818996    -0.00030133    -0.01212801  0.93D-04  0.49D-03  2  2     0.68     0.25
   3      1.13659020    -0.44766803  -130.28856887    -0.00037891    -0.00291773  0.50D-04  0.48D-04  3  3     0.91     0.25
   4      1.13931093    -0.44767828  -130.28857912    -0.00001025    -0.00093235  0.38D-05  0.86D-05  4  4     1.16     0.25
   5      1.14027948    -0.44770474  -130.28860558    -0.00002646    -0.00020591  0.11D-05  0.16D-05  5  5     1.41     0.25
   6      1.14060137    -0.44768949  -130.28859033     0.00001525    -0.00003895  0.10D-06  0.38D-06  6  6     1.63     0.25
   7      1.14067557    -0.44769032  -130.28859117    -0.00000084    -0.00000220  0.20D-07  0.86D-07  6  1     1.86     0.25
   8      1.14069694    -0.44769108  -130.28859192    -0.00000075     0.00000138  0.36D-08  0.15D-07  6  2     2.10     0.25
   9      1.14070218    -0.44769066  -130.28859150     0.00000042     0.00000041  0.25D-08  0.16D-08  6  4     2.33     0.25
  10      1.14070427    -0.44769111  -130.28859196    -0.00000045    -0.00000064  0.39D-09  0.18D-09  6  3     2.57     0.25
  11      1.14070374    -0.44769114  -130.28859198    -0.00000003    -0.00000005  0.13D-09  0.28D-10  6  5     2.81     0.25
  12      1.14070274    -0.44769128  -130.28859212    -0.00000014     0.00000032  0.16D-10  0.92D-11  6  6     3.04     0.25
  13      1.14070196    -0.44769131  -130.28859215    -0.00000003     0.00000020  0.57D-11  0.18D-11  6  1     3.28     0.25
  14      1.14070148    -0.44769133  -130.28859218    -0.00000003     0.00000012  0.94D-12  0.57D-12  6  2     3.50     0.25
  15      1.14070127    -0.44769134  -130.28859218    -0.00000001     0.00000003  0.26D-12  0.18D-12  6  4     3.73     0.25
  16      1.14070116    -0.44769134  -130.28859218    -0.00000000     0.00000001  0.33D-13  0.22D-13  6  5     3.96     0.25
  17      1.14070113    -0.44769134  -130.28859219    -0.00000000     0.00000000  0.64D-15  0.16D-14  6  3     4.20     0.25
  18      1.14070113    -0.44769134  -130.28859219     0.00000000    -0.00000000  0.21D-15  0.21D-15  6  6     4.42     0.25
  19      1.14070113    -0.44769134  -130.28859219     0.00000000    -0.00000000  0.62D-16  0.31D-16  6  1     4.64     0.25
  20      1.14070113    -0.44769134  -130.28859219     0.00000000    -0.00000000  0.16D-16  0.54D-17  6  2     4.89     0.25
  21      1.14070113    -0.44769134  -130.28859219     0.00000000    -0.00000000  0.26D-17  0.14D-17  6  5     5.12     0.25
  22      1.14070113    -0.44769134  -130.28859219    -0.00000000     0.00000000  0.27D-18  0.16D-18  6  4     5.35     0.25
  23      1.14070113    -0.44769134  -130.28859219     0.00000000     0.00000000  0.98D-19  0.35D-19  6  3     5.58     0.25
  24      1.14070113    -0.44769134  -130.28859219     0.00000000    -0.00000000  0.10D-19  0.49D-20  6  2     5.81     0.25
  25      1.14070113    -0.44769134  -130.28859219     0.00000000    -0.00000000  0.17D-20  0.79D-21  6  6     6.05     0.25
  26      1.14070113    -0.44769134  -130.28859219     0.00000000    -0.00000000  0.41D-21  0.19D-21  6  1     6.29     0.25

 Norm of t1 vector:      0.07624592      S-energy:     0.00000000      T1 diagnostic:  0.01556363
                                                                       D1 diagnostic:  0.04018789

 Doubles amplitudes (print threshold =  0.500E-01):

         I         J         SYM. A    SYM. B    A         B      T(IJ, AB)

         6         6         2         2         1         1     -0.10248639


 Total CPU time for triples:      1.78 sec


 RESULTS
 =======

  Reference energy                   -129.840900841139
  CCSD singlet pair energy             -0.306662434360
  CCSD triplet pair energy             -0.141028910441
  CCSD correlation energy              -0.447691344801

  Triples (T) contribution             -0.020507030525
  Total correlation energy             -0.468198375326

  CCSD total energy                  -130.288592185940
  CCSD[T] energy                     -130.310108503491
  CCSD-T energy                      -130.308708070084
 !CCSD(T) total energy               -130.309099216465

 Timing summary (sec):

 STEP                 CPU(USER)    SYS     CPU(TOT)    WALL
 Transformation          0.22      0.03      0.25      0.25
 CCSD iterations         6.07      0.56      6.63      6.63
 Triples                 1.78      0.04      1.82      1.82

 Program statistics:

 Available memory in ccsd:               994999756
 Min. memory needed in ccsd:                389120
 Max. memory used in ccsd:                  473124
 Max. memory used in cckext:                599488 (26 integral passes)



 **********************************************************************************************************************************
 DATASETS  * FILE   NREC   LENGTH (MB)   RECORD NAMES
              1      20      128.20       500      610      700      900      950      970     1000      129      960     1100   
                                          VAR    BASINP    GEOM    SYMINP    ZMAT    AOBASIS   BASIS     P2S    ABASIS      S 
                                         1400     1410     1200     1210     1080     1600     1650     1300     1700     1380   
                                           T        V       H0       H01     AOSYM     SMH    MOLCAS    ERIS     OPER     JKOP   

              2       4        2.94       700     1000      520     2100   
                                         GEOM     BASIS   MCVARS     RHF  

 PROGRAMS   *        TOTAL   CCSD(T)        HF       INT
 CPU TIMES  *        11.29      8.09      1.54      1.52
 REAL TIME  *        13.23 SEC
 DISK USED  *       327.55 MB      
 **********************************************************************************************************************************

 CCSD(T)/aug-cc-pVTZ energy=   -130.309099216465

        CCSD(T)         HF-SCF  
   -130.30909922   -129.84090084
 **********************************************************************************************************************************
 Molpro calculation terminated
 Variable memory released
