
 Primary working directories    : /tmp/r2666/235002.maple
 Secondary working directories  : /tmp/r2666/235002.maple
 Wavefunction directory         : /ddn/home4/r2666/wfu/
 Main file repository           : /tmp/r2666/235002.maple/

 SHA1      : d5ffa45e93fdbca01ffc919aa182cfdae0147319
 NAME      : 2015.1.35
 ARCHNAME  : linux/x86_64
 FC        : /opt/intel/composer_xe_2015.1.133/bin/intel64/ifort
 BLASLIB   : -Wl,-_start-group /opt/intel/mkl/lib/intel64/libmkl_intel_ilp64.a /opt/intel/mkl/lib/intel64/libmkl_intel_thread.a /opt/intel/mkl/lib/intel64/libmkl_core.a -Wl,-_end-group
 id        : olemiss

 Nodes     nprocs
 cn076        1

 Using customized tuning parameters: mindgm=1; mindgv=20; mindgc=4; mindgr=1; noblas=0; minvec=7
 default implementation of scratch files=df  

 ***,hno CCSD(T)/TZ-F12 QFF
 memory, 995, m;
 gthresh,energy=1.d-12,zero=1.d-22,oneint=1.d-22,twoint=1.d-22;
 gthresh,optgrad=1.d-8,optstep=1.d-8;
 nocompress;
 geomtyp=xyz
 bohr
 geometry={
 3
        116       116
 N        0.0000000000       -0.1688718857       -1.1383406465
 H        0.0000000000        1.6745777324       -1.9317864643
 O        0.0000000000        0.0360619433        1.1195375197
 }
 
 basis=avtz
   {hf,maxit=500;accu,20;}
 {ccsd(t),nocheck,maxit=250;orbital,IGNORE_ERROR;}

 Variables initialized (889), CPU time= 0.01 sec
 Commands  initialized (702), CPU time= 0.01 sec, 572 directives.
 Default parameters read. Elapsed time= 0.05 sec

 Checking input...
 Passed
1


                                         ***  PROGRAM SYSTEM MOLPRO  ***
                                       Copyright, TTI GmbH Stuttgart, 2015
                                    Version 2015.1 linked Jul  9 2018 13:16:40


 **********************************************************************************************************************************
 LABEL *   hno CCSD(T)/TZ-F12 QFF                                                        
  64 bit serial version                                                                  DATE: 08-Feb-20          TIME: 17:56:49  
 **********************************************************************************************************************************

 SHA1:             d5ffa45e93fdbca01ffc919aa182cfdae0147319
 **********************************************************************************************************************************

 THRESHOLDS:

 ZERO    =  1.00D-22  ONEINT  =  1.00D-22  TWOINT  =  1.00D-22  PREFAC  =  1.00D-14  LOCALI  =  1.00D-09  EORDER  =  1.00D-04
 ENERGY  =  1.00D-12  ETEST   =  0.00D+00  EDENS   =  0.00D+00  THRDEDEF=  1.00D-06  GRADIENT=  1.00D-02  STEP    =  1.00D-03
 ORBITAL =  1.00D-05  CIVEC   =  1.00D-05  COEFF   =  1.00D-04  PRINTCI =  5.00D-02  PUNCHCI =  9.90D+01  OPTGRAD =  3.00D-04
 OPTENERG=  1.00D-06  OPTSTEP =  3.00D-04  THRGRAD =  1.00D-10  COMPRESS=  1.00D-11  VARMIN  =  1.00D-07  VARMAX  =  1.00D-03
 THRDOUB =  0.00D+00  THRDIV  =  1.00D-05  THRRED  =  1.00D-07  THRPSP  =  1.00D+00  THRDC   =  1.00D-10  THRCS   =  1.00D-10
 THRNRM  =  1.00D-08  THREQ   =  0.00D+00  THRDE   =  1.00D+00  THRREF  =  1.00D-05  SPARFAC =  1.00D+00  THRDLP  =  1.00D-07
 THRDIA  =  1.00D-10  THRDLS  =  1.00D-07  THRGPS  =  0.00D+00  THRKEX  =  0.00D+00  THRDIS  =  2.00D-01  THRVAR  =  1.00D-10
 THRLOC  =  1.00D-06  THRGAP  =  1.00D-06  THRLOCT = -1.00D+00  THRGAPT = -1.00D+00  THRORB  =  1.00D-06  THRMLTP =  0.00D+00
 THRCPQCI=  1.00D-10  KEXTA   =  0.00D+00  THRCOARS=  0.00D+00  SYMTOL  =  1.00D-06  GRADTOL =  1.00D-06  THROVL  =  1.00D-08
 THRORTH =  1.00D-08  GRID    =  1.00D-06  GRIDMAX =  1.00D-03  DTMAX   =  0.00D+00  THROCCDE=  1.00D-01  THROCCDE=  1.00D-01



 THRESHOLDS:

 ZERO    =  1.00D-22  ONEINT  =  1.00D-22  TWOINT  =  1.00D-22  PREFAC  =  1.00D-14  LOCALI  =  1.00D-09  EORDER  =  1.00D-04
 ENERGY  =  1.00D-12  ETEST   =  0.00D+00  EDENS   =  0.00D+00  THRDEDEF=  1.00D-06  GRADIENT=  1.00D-02  STEP    =  1.00D-03
 ORBITAL =  1.00D-05  CIVEC   =  1.00D-05  COEFF   =  1.00D-04  PRINTCI =  5.00D-02  PUNCHCI =  9.90D+01  OPTGRAD =  1.00D-08
 OPTENERG=  1.00D-06  OPTSTEP =  1.00D-08  THRGRAD =  1.00D-10  COMPRESS=  1.00D-11  VARMIN  =  1.00D-07  VARMAX  =  1.00D-03
 THRDOUB =  0.00D+00  THRDIV  =  1.00D-05  THRRED  =  1.00D-07  THRPSP  =  1.00D+00  THRDC   =  1.00D-10  THRCS   =  1.00D-10
 THRNRM  =  1.00D-08  THREQ   =  0.00D+00  THRDE   =  1.00D+00  THRREF  =  1.00D-05  SPARFAC =  1.00D+00  THRDLP  =  1.00D-07
 THRDIA  =  1.00D-10  THRDLS  =  1.00D-07  THRGPS  =  0.00D+00  THRKEX  =  0.00D+00  THRDIS  =  2.00D-01  THRVAR  =  1.00D-10
 THRLOC  =  1.00D-06  THRGAP  =  1.00D-06  THRLOCT = -1.00D+00  THRGAPT = -1.00D+00  THRORB  =  1.00D-06  THRMLTP =  0.00D+00
 THRCPQCI=  1.00D-10  KEXTA   =  0.00D+00  THRCOARS=  0.00D+00  SYMTOL  =  1.00D-06  GRADTOL =  1.00D-06  THROVL  =  1.00D-08
 THRORTH =  1.00D-08  GRID    =  1.00D-06  GRIDMAX =  1.00D-03  DTMAX   =  0.00D+00  THROCCDE=  1.00D-01  THROCCDE=  1.00D-01



 Input parameters for SORTINT:

 COMPRESS =    0.000000
 C_FINAL  =    1.000000
 DEBUG    =   -1.000000
 C_SORT1  =    0.000000
 C_SEWARD =    0.000000
 THRESH   =    0.000000
 IO       =  molpro                                                          
 SPRI     =    0.000000
 SETTING GEOMTYP        =    XYZ
 ZUNIT=BOHR
 

 Variable memory set to  995000000 words,  buffer space   230000 words

 SETTING BASIS          =    AVTZ


 Recomputing integrals since basis changed


 Using spherical harmonics

 Library entry N      S aug-cc-pVTZ          selected for orbital group  1
 Library entry N      P aug-cc-pVTZ          selected for orbital group  1
 Library entry N      D aug-cc-pVTZ          selected for orbital group  1
 Library entry N      F aug-cc-pVTZ          selected for orbital group  1
 Library entry H      S aug-cc-pVTZ          selected for orbital group  2
 Library entry H      P aug-cc-pVTZ          selected for orbital group  2
 Library entry H      D aug-cc-pVTZ          selected for orbital group  2
 Library entry O      S aug-cc-pVTZ          selected for orbital group  3
 Library entry O      P aug-cc-pVTZ          selected for orbital group  3
 Library entry O      D aug-cc-pVTZ          selected for orbital group  3
 Library entry O      F aug-cc-pVTZ          selected for orbital group  3


 PROGRAM * SEWARD (Integral evaluation for generally contracted gaussian basis sets)     Author: Roland Lindh, 1990

 Geometry written to block  1 of record 700


 Point group  Cs  



 ATOMIC COORDINATES

 NR  ATOM    CHARGE       X              Y              Z

   1  N       7.00    0.000000000   -0.168871886   -1.138340647
   2  H       1.00    0.000000000    1.674577732   -1.931786464
   3  O       8.00    0.000000000    0.036061943    1.119537520

 Bond lengths in Bohr (Angstrom)

 1-2  2.006953602  1-3  2.267159387
     ( 1.062034110)     ( 1.199729081)

 Bond angles

  2-1-3  108.10152405

 NUCLEAR CHARGE:                   16
 NUMBER OF PRIMITIVE AOS:         161
 NUMBER OF SYMMETRY AOS:          141
 NUMBER OF CONTRACTIONS:          115   (  76A'  +  39A"  )
 NUMBER OF CORE ORBITALS:           2   (   2A'  +   0A"  )
 NUMBER OF VALENCE ORBITALS:        9   (   7A'  +   2A"  )


 NUCLEAR REPULSION ENERGY   30.49823870

 Eigenvalues of metric

         1 0.231E-03 0.501E-03 0.180E-02 0.213E-02 0.247E-02 0.346E-02 0.433E-02 0.521E-02
         2 0.386E-02 0.103E-01 0.259E-01 0.372E-01 0.511E-01 0.625E-01 0.809E-01 0.119E+00


 Contracted 2-electron integrals neglected if value below      1.0D-22

       10790064. INTEGRALS WRITTEN OUT IN    2635 BLOCKS ON RECORD 1290 OF FILE 1


 NUMBER OF SORTED TWO-ELECTRON INTEGRALS:   11433631.     BUFFER LENGTH:  32768
 NUMBER OF SEGMENTS:   1  SEGMENT LENGTH:   11433631      RECORD LENGTH: 524288

 Memory used in sort:      11.99 MW

 SORT1 READ    10790064. AND WROTE    10943632. INTEGRALS IN     32 RECORDS. CPU TIME:     0.16 SEC, REAL TIME:     0.22 SEC
 SORT2 READ    10943632. AND WROTE    11433631. INTEGRALS IN      1 RECORDS. CPU TIME:     0.17 SEC, REAL TIME:     0.23 SEC

 FILE SIZES:   FILE 1:   193.0 MBYTE,  FILE 4:   134.3 MBYTE,   TOTAL:    327.2 MBYTE

 OPERATOR DM      FOR CENTER  0  COORDINATES:    0.000000    0.000000    0.000000


 **********************************************************************************************************************************
 DATASETS  * FILE   NREC   LENGTH (MB)   RECORD NAMES
              1      19      111.05       500      610      700      900      950      970     1000      129      960     1100   
                                          VAR    BASINP    GEOM    SYMINP    ZMAT    AOBASIS   BASIS     P2S    ABASIS      S 
                                         1400     1410     1200     1210     1080     1600     1650     1300     1700   
                                           T        V       H0       H01     AOSYM     SMH    MOLCAS    ERIS     OPER   

 PROGRAMS   *        TOTAL       INT
 CPU TIMES  *         1.26      1.17
 REAL TIME  *         2.07 SEC
 DISK USED  *       327.55 MB      
 **********************************************************************************************************************************


 PROGRAM * RHF-SCF (CLOSED SHELL)       Authors: W. Meyer, H.-J. Werner


 NUMBER OF ELECTRONS:       8+    8-
 CONVERGENCE THRESHOLDS:    1.00E-10 (Density)    1.00E-13 (Energy)
 MAX. NUMBER OF ITERATIONS:      500
 INTERPOLATION TYPE:            DIIS
 INTERPOLATION STEPS:              2 (START)      1 (STEP)
 LEVEL SHIFTS:                  0.00 (CLOSED)  0.00 (OPEN) 



 Orbital guess generated from atomic densities. Full valence occupancy:    9   2

 Molecular orbital dump at record        2100.2

 Initial occupancy:   7   1

 ITERATION    DDIFF          GRAD             ENERGY        2-EL.EN.            DIPOLE MOMENTS         DIIS   ORB.
    1      0.000D+00      0.000D+00      -129.78971963    154.117904    0.00000    0.58069   -0.99485    0    start
    2      0.000D+00      0.107D-01      -129.81740951    155.415779    0.00000    0.60451   -0.20863    1    diag
    3      0.118D-01      0.807D-02      -129.83914215    155.505520    0.00000    0.54936   -0.57843    2    diag
    4      0.583D-02      0.126D-02      -129.83991750    155.222222    0.00000    0.55699   -0.51991    3    diag
    5      0.106D-02      0.418D-03      -129.84004189    155.316248    0.00000    0.56271   -0.52294    4    diag
    6      0.446D-03      0.121D-03      -129.84006181    155.300680    0.00000    0.56314   -0.51898    5    diag
    7      0.171D-03      0.594D-04      -129.84006739    155.303317    0.00000    0.56444   -0.51655    6    diag
    8      0.117D-03      0.197D-04      -129.84006795    155.302683    0.00000    0.56447   -0.51561    7    diag
    9      0.421D-04      0.372D-05      -129.84006798    155.302579    0.00000    0.56444   -0.51541    8    diag
   10      0.800D-05      0.863D-06      -129.84006798    155.302559    0.00000    0.56440   -0.51538    9    orth
   11      0.169D-05      0.175D-06      -129.84006798    155.302555    0.00000    0.56440   -0.51538    9    diag
   12      0.337D-06      0.357D-07      -129.84006798    155.302555    0.00000    0.56439   -0.51537    9    diag
   13      0.734D-07      0.892D-08      -129.84006798    155.302555    0.00000    0.56439   -0.51537    9    diag
   14      0.190D-07      0.188D-08      -129.84006798    155.302555    0.00000    0.56439   -0.51537    9    diag
   15      0.388D-08      0.537D-09      -129.84006798    155.302555    0.00000    0.56439   -0.51537    9    diag
   16      0.105D-08      0.152D-09      -129.84006798    155.302555    0.00000    0.56439   -0.51537    9    diag
   17      0.198D-09      0.452D-10      -129.84006798    155.302555    0.00000    0.56439   -0.51537    9    diag
   18      0.583D-10      0.161D-10      -129.84006798    155.302555    0.00000    0.56439   -0.51537    0    orth

 Final occupancy:   7   1

 !RHF STATE 1.1 Energy               -129.840067976827
 Nuclear energy                        30.49823870
 One-electron energy                 -237.98958404
 Two-electron energy                   77.65127736
 Virial quotient                       -1.00201712
 !RHF STATE 1.1 Dipole moment           0.00000000     0.56439432    -0.51537414
 Dipole moment /Debye                   0.00000000     1.43445332    -1.30986462

 Orbital energies:

         1.1          2.1          3.1          4.1          5.1          6.1          7.1          8.1          9.1
    -20.655966   -15.714436    -1.537544    -0.990594    -0.748768    -0.668474    -0.427372     0.029302     0.092198

         1.2          2.2          3.2
     -0.600360     0.067169     0.130609

 HOMO      7.1    -0.427372 =     -11.6294eV
 LUMO      8.1     0.029302 =       0.7974eV
 LUMO-HOMO         0.456675 =      12.4267eV


 **********************************************************************************************************************************
 DATASETS  * FILE   NREC   LENGTH (MB)   RECORD NAMES
              1      19      111.05       500      610      700      900      950      970     1000      129      960     1100   
                                          VAR    BASINP    GEOM    SYMINP    ZMAT    AOBASIS   BASIS     P2S    ABASIS      S 
                                         1400     1410     1200     1210     1080     1600     1650     1300     1700   
                                           T        V       H0       H01     AOSYM     SMH    MOLCAS    ERIS     OPER   

              2       4        2.94       700     1000      520     2100   
                                         GEOM     BASIS   MCVARS     RHF  

 PROGRAMS   *        TOTAL        HF       INT
 CPU TIMES  *         2.16      0.90      1.17
 REAL TIME  *         3.25 SEC
 DISK USED  *       327.55 MB      
 **********************************************************************************************************************************


 PROGRAM * CCSD (Closed-shell coupled cluster)     Authors: C. Hampel, H.-J. Werner, 1991, M. Deegan, P.J. Knowles, 1992


 Convergence thresholds:  THRVAR = 1.00D-08  THRDEN = 1.00D-12

 CCSD(T)     terms to be evaluated (factor= 1.000)


 Number of core orbitals:           2 (   2   0 )
 Number of closed-shell orbitals:   6 (   5   1 )
 Number of external orbitals:     107 (  69  38 )

 Molecular orbitals read from record     2100.2  Type=RHF/CANONICAL (state 1.1)

 Number of N-1 electron functions:               6
 Number of N-2 electron functions:              21
 Number of singly external CSFs:               383
 Number of doubly external CSFs:            107206
 Total number of CSFs:                      107590

 Length of J-op  integral file:               0.00 MB
 Length of K-op  integral file:               0.54 MB
 Length of 3-ext integral record:             0.00 MB

 Memory could be reduced to 5.94 Mwords without degradation in triples

 Integral transformation finished. Total CPU:   0.14 sec, npass=  1  Memory used:   1.65 MW

 Reference energy:                   -129.84006798

 MP2 singlet pair energy:              -0.27881968
 MP2 triplet pair energy:              -0.16475038
 MP2 correlation energy:               -0.44357007
 MP2 total energy:                   -130.28363804

 SCS-MP2 correlation energy:           -0.43709497   (PS=  1.200000  PT=  0.333333)
 SCS-MP2 total energy:               -130.27716295

 ITER.      SQ.NORM     CORR.ENERGY   TOTAL ENERGY   ENERGY CHANGE        DEN1      VAR(S)    VAR(P)  DIIS     TIME  TIME/IT
   1      1.12039758    -0.44796992  -130.28803790    -0.00439985     0.01141336  0.31D-02  0.31D-02  1  1     0.31     0.16
   2      1.13138543    -0.44822364  -130.28829162    -0.00025372    -0.01230022  0.97D-04  0.50D-03  2  2     0.45     0.16
   3      1.13776588    -0.44861695  -130.28868493    -0.00039331    -0.00296973  0.53D-04  0.50D-04  3  3     0.59     0.16
   4      1.14057237    -0.44862640  -130.28869438    -0.00000945    -0.00095623  0.41D-05  0.90D-05  4  4     0.73     0.16
   5      1.14159017    -0.44865430  -130.28872228    -0.00002790    -0.00021612  0.11D-05  0.16D-05  5  5     0.86     0.16
   6      1.14192542    -0.44863822  -130.28870620     0.00001608    -0.00004060  0.11D-06  0.39D-06  6  6     1.01     0.17
   7      1.14200157    -0.44863903  -130.28870701    -0.00000081    -0.00000215  0.21D-07  0.89D-07  6  1     1.16     0.17
   8      1.14202372    -0.44863975  -130.28870773    -0.00000072     0.00000128  0.37D-08  0.16D-07  6  2     1.31     0.17
   9      1.14202927    -0.44863930  -130.28870727     0.00000046     0.00000048  0.26D-08  0.17D-08  6  4     1.47     0.17
  10      1.14203151    -0.44863977  -130.28870774    -0.00000047    -0.00000069  0.42D-09  0.20D-09  6  3     1.64     0.17
  11      1.14203099    -0.44863979  -130.28870777    -0.00000003    -0.00000005  0.15D-09  0.31D-10  6  5     1.80     0.17
  12      1.14202994    -0.44863994  -130.28870791    -0.00000014     0.00000033  0.18D-10  0.10D-10  6  6     1.94     0.17
  13      1.14202911    -0.44863997  -130.28870795    -0.00000004     0.00000021  0.62D-11  0.20D-11  6  1     2.07     0.17
  14      1.14202859    -0.44864000  -130.28870798    -0.00000003     0.00000013  0.10D-11  0.63D-12  6  2     2.23     0.17
  15      1.14202837    -0.44864001  -130.28870798    -0.00000001     0.00000003  0.29D-12  0.20D-12  6  4     2.38     0.17
  16      1.14202825    -0.44864001  -130.28870799    -0.00000000     0.00000002  0.37D-13  0.24D-13  6  5     2.52     0.17
  17      1.14202821    -0.44864001  -130.28870799    -0.00000000     0.00000000  0.66D-15  0.17D-14  6  3     2.66     0.17
  18      1.14202822    -0.44864001  -130.28870799     0.00000000    -0.00000000  0.21D-15  0.23D-15  6  6     2.80     0.17
  19      1.14202822    -0.44864001  -130.28870799     0.00000000    -0.00000000  0.60D-16  0.32D-16  6  1     2.94     0.17
  20      1.14202822    -0.44864001  -130.28870799     0.00000000    -0.00000000  0.16D-16  0.53D-17  6  2     3.09     0.17
  21      1.14202822    -0.44864001  -130.28870799     0.00000000    -0.00000000  0.26D-17  0.14D-17  6  5     3.23     0.17
  22      1.14202822    -0.44864001  -130.28870799    -0.00000000     0.00000000  0.26D-18  0.16D-18  6  4     3.39     0.17
  23      1.14202822    -0.44864001  -130.28870799     0.00000000     0.00000000  0.88D-19  0.35D-19  6  3     3.55     0.17
  24      1.14202822    -0.44864001  -130.28870799     0.00000000     0.00000000  0.98D-20  0.50D-20  6  2     3.69     0.17
  25      1.14202822    -0.44864001  -130.28870799     0.00000000    -0.00000000  0.15D-20  0.85D-21  6  6     3.83     0.17
  26      1.14202822    -0.44864001  -130.28870799     0.00000000    -0.00000000  0.40D-21  0.21D-21  6  1     3.99     0.17

 Norm of t1 vector:      0.07755479      S-energy:     0.00000000      T1 diagnostic:  0.01583081
                                                                       D1 diagnostic:  0.04101347

 Doubles amplitudes (print threshold =  0.500E-01):

         I         J         SYM. A    SYM. B    A         B      T(IJ, AB)

         6         6         2         2         1         1     -0.10517554


 Total CPU time for triples:      1.13 sec


 RESULTS
 =======

  Reference energy                   -129.840067976827
  CCSD singlet pair energy             -0.307476926630
  CCSD triplet pair energy             -0.141163084550
  CCSD correlation energy              -0.448640011178

  Triples (T) contribution             -0.020726634732
  Total correlation energy             -0.469366645910

  CCSD total energy                  -130.288707988005
  CCSD[T] energy                     -130.310476542064
  CCSD-T energy                      -130.309034622027
 !CCSD(T) total energy               -130.309434622737

 Timing summary (sec):

 STEP                 CPU(USER)    SYS     CPU(TOT)    WALL
 Transformation          0.15      0.03      0.18      0.22
 CCSD iterations         3.84      0.54      4.38      4.36
 Triples                 1.13      0.04      1.17      1.17

 Program statistics:

 Available memory in ccsd:               994999756
 Min. memory needed in ccsd:                389120
 Max. memory used in ccsd:                  473124
 Max. memory used in cckext:                599488 (26 integral passes)



 **********************************************************************************************************************************
 DATASETS  * FILE   NREC   LENGTH (MB)   RECORD NAMES
              1      20      128.20       500      610      700      900      950      970     1000      129      960     1100   
                                          VAR    BASINP    GEOM    SYMINP    ZMAT    AOBASIS   BASIS     P2S    ABASIS      S 
                                         1400     1410     1200     1210     1080     1600     1650     1300     1700     1380   
                                           T        V       H0       H01     AOSYM     SMH    MOLCAS    ERIS     OPER     JKOP   

              2       4        2.94       700     1000      520     2100   
                                         GEOM     BASIS   MCVARS     RHF  

 PROGRAMS   *        TOTAL   CCSD(T)        HF       INT
 CPU TIMES  *         7.32      5.15      0.90      1.17
 REAL TIME  *         9.08 SEC
 DISK USED  *       327.55 MB      
 **********************************************************************************************************************************

 CCSD(T)/aug-cc-pVTZ energy=   -130.309434622737

        CCSD(T)         HF-SCF  
   -130.30943462   -129.84006798
 **********************************************************************************************************************************
 Molpro calculation terminated
 Variable memory released
