
 Primary working directories    : /tmp/r2666/234890.maple
 Secondary working directories  : /tmp/r2666/234890.maple
 Wavefunction directory         : /ddn/home4/r2666/wfu/
 Main file repository           : /tmp/r2666/234890.maple/

 SHA1      : d5ffa45e93fdbca01ffc919aa182cfdae0147319
 NAME      : 2015.1.35
 ARCHNAME  : linux/x86_64
 FC        : /opt/intel/composer_xe_2015.1.133/bin/intel64/ifort
 BLASLIB   : -Wl,-_start-group /opt/intel/mkl/lib/intel64/libmkl_intel_ilp64.a /opt/intel/mkl/lib/intel64/libmkl_intel_thread.a /opt/intel/mkl/lib/intel64/libmkl_core.a -Wl,-_end-group
 id        : olemiss

 Nodes     nprocs
 cn033        1

 Using customized tuning parameters: mindgm=1; mindgv=20; mindgc=4; mindgr=1; noblas=0; minvec=7
 default implementation of scratch files=df  

 ***,hno CCSD(T)/TZ-F12 QFF
 memory, 995, m;
 gthresh,energy=1.d-12,zero=1.d-22,oneint=1.d-22,twoint=1.d-22;
 gthresh,optgrad=1.d-8,optstep=1.d-8;
 nocompress;
 geomtyp=xyz
 bohr
 geometry={
 3
          4         4
 N        0.0000000000       -0.1423683973       -1.1476074604
 H        0.0000000000        1.6538988958       -1.9311180657
 O        0.0000000000        0.0302372915        1.1281359351
 }
 
 basis=avtz
   {hf,maxit=500;accu,20;}
 {ccsd(t),nocheck,maxit=250;orbital,IGNORE_ERROR;}

 Variables initialized (889), CPU time= 0.00 sec
 Commands  initialized (702), CPU time= 0.01 sec, 572 directives.
 Default parameters read. Elapsed time= 0.05 sec

 Checking input...
 Passed
1


                                         ***  PROGRAM SYSTEM MOLPRO  ***
                                       Copyright, TTI GmbH Stuttgart, 2015
                                    Version 2015.1 linked Jul  9 2018 13:16:40


 **********************************************************************************************************************************
 LABEL *   hno CCSD(T)/TZ-F12 QFF                                                        
  64 bit serial version                                                                  DATE: 08-Feb-20          TIME: 17:55:41  
 **********************************************************************************************************************************

 SHA1:             d5ffa45e93fdbca01ffc919aa182cfdae0147319
 **********************************************************************************************************************************

 THRESHOLDS:

 ZERO    =  1.00D-22  ONEINT  =  1.00D-22  TWOINT  =  1.00D-22  PREFAC  =  1.00D-14  LOCALI  =  1.00D-09  EORDER  =  1.00D-04
 ENERGY  =  1.00D-12  ETEST   =  0.00D+00  EDENS   =  0.00D+00  THRDEDEF=  1.00D-06  GRADIENT=  1.00D-02  STEP    =  1.00D-03
 ORBITAL =  1.00D-05  CIVEC   =  1.00D-05  COEFF   =  1.00D-04  PRINTCI =  5.00D-02  PUNCHCI =  9.90D+01  OPTGRAD =  3.00D-04
 OPTENERG=  1.00D-06  OPTSTEP =  3.00D-04  THRGRAD =  1.00D-10  COMPRESS=  1.00D-11  VARMIN  =  1.00D-07  VARMAX  =  1.00D-03
 THRDOUB =  0.00D+00  THRDIV  =  1.00D-05  THRRED  =  1.00D-07  THRPSP  =  1.00D+00  THRDC   =  1.00D-10  THRCS   =  1.00D-10
 THRNRM  =  1.00D-08  THREQ   =  0.00D+00  THRDE   =  1.00D+00  THRREF  =  1.00D-05  SPARFAC =  1.00D+00  THRDLP  =  1.00D-07
 THRDIA  =  1.00D-10  THRDLS  =  1.00D-07  THRGPS  =  0.00D+00  THRKEX  =  0.00D+00  THRDIS  =  2.00D-01  THRVAR  =  1.00D-10
 THRLOC  =  1.00D-06  THRGAP  =  1.00D-06  THRLOCT = -1.00D+00  THRGAPT = -1.00D+00  THRORB  =  1.00D-06  THRMLTP =  0.00D+00
 THRCPQCI=  1.00D-10  KEXTA   =  0.00D+00  THRCOARS=  0.00D+00  SYMTOL  =  1.00D-06  GRADTOL =  1.00D-06  THROVL  =  1.00D-08
 THRORTH =  1.00D-08  GRID    =  1.00D-06  GRIDMAX =  1.00D-03  DTMAX   =  0.00D+00  THROCCDE=  1.00D-01  THROCCDE=  1.00D-01



 THRESHOLDS:

 ZERO    =  1.00D-22  ONEINT  =  1.00D-22  TWOINT  =  1.00D-22  PREFAC  =  1.00D-14  LOCALI  =  1.00D-09  EORDER  =  1.00D-04
 ENERGY  =  1.00D-12  ETEST   =  0.00D+00  EDENS   =  0.00D+00  THRDEDEF=  1.00D-06  GRADIENT=  1.00D-02  STEP    =  1.00D-03
 ORBITAL =  1.00D-05  CIVEC   =  1.00D-05  COEFF   =  1.00D-04  PRINTCI =  5.00D-02  PUNCHCI =  9.90D+01  OPTGRAD =  1.00D-08
 OPTENERG=  1.00D-06  OPTSTEP =  1.00D-08  THRGRAD =  1.00D-10  COMPRESS=  1.00D-11  VARMIN  =  1.00D-07  VARMAX  =  1.00D-03
 THRDOUB =  0.00D+00  THRDIV  =  1.00D-05  THRRED  =  1.00D-07  THRPSP  =  1.00D+00  THRDC   =  1.00D-10  THRCS   =  1.00D-10
 THRNRM  =  1.00D-08  THREQ   =  0.00D+00  THRDE   =  1.00D+00  THRREF  =  1.00D-05  SPARFAC =  1.00D+00  THRDLP  =  1.00D-07
 THRDIA  =  1.00D-10  THRDLS  =  1.00D-07  THRGPS  =  0.00D+00  THRKEX  =  0.00D+00  THRDIS  =  2.00D-01  THRVAR  =  1.00D-10
 THRLOC  =  1.00D-06  THRGAP  =  1.00D-06  THRLOCT = -1.00D+00  THRGAPT = -1.00D+00  THRORB  =  1.00D-06  THRMLTP =  0.00D+00
 THRCPQCI=  1.00D-10  KEXTA   =  0.00D+00  THRCOARS=  0.00D+00  SYMTOL  =  1.00D-06  GRADTOL =  1.00D-06  THROVL  =  1.00D-08
 THRORTH =  1.00D-08  GRID    =  1.00D-06  GRIDMAX =  1.00D-03  DTMAX   =  0.00D+00  THROCCDE=  1.00D-01  THROCCDE=  1.00D-01



 Input parameters for SORTINT:

 COMPRESS =    0.000000
 C_FINAL  =    1.000000
 DEBUG    =   -1.000000
 C_SORT1  =    0.000000
 C_SEWARD =    0.000000
 THRESH   =    0.000000
 IO       =  molpro                                                          
 SPRI     =    0.000000
 SETTING GEOMTYP        =    XYZ
 ZUNIT=BOHR
 

 Variable memory set to  995000000 words,  buffer space   230000 words

 SETTING BASIS          =    AVTZ


 Recomputing integrals since basis changed


 Using spherical harmonics

 Library entry N      S aug-cc-pVTZ          selected for orbital group  1
 Library entry N      P aug-cc-pVTZ          selected for orbital group  1
 Library entry N      D aug-cc-pVTZ          selected for orbital group  1
 Library entry N      F aug-cc-pVTZ          selected for orbital group  1
 Library entry H      S aug-cc-pVTZ          selected for orbital group  2
 Library entry H      P aug-cc-pVTZ          selected for orbital group  2
 Library entry H      D aug-cc-pVTZ          selected for orbital group  2
 Library entry O      S aug-cc-pVTZ          selected for orbital group  3
 Library entry O      P aug-cc-pVTZ          selected for orbital group  3
 Library entry O      D aug-cc-pVTZ          selected for orbital group  3
 Library entry O      F aug-cc-pVTZ          selected for orbital group  3


 PROGRAM * SEWARD (Integral evaluation for generally contracted gaussian basis sets)     Author: Roland Lindh, 1990

 Geometry written to block  1 of record 700


 Point group  Cs  



 ATOMIC COORDINATES

 NR  ATOM    CHARGE       X              Y              Z

   1  N       7.00    0.000000000   -0.142368397   -1.147607460
   2  H       1.00    0.000000000    1.653898896   -1.931118066
   3  O       8.00    0.000000000    0.030237291    1.128135935

 Bond lengths in Bohr (Angstrom)

 1-2  1.959710452  1-3  2.282279721
     ( 1.037034111)     ( 1.207730417)

 Bond angles

  2-1-3  109.22891920

 NUCLEAR CHARGE:                   16
 NUMBER OF PRIMITIVE AOS:         161
 NUMBER OF SYMMETRY AOS:          141
 NUMBER OF CONTRACTIONS:          115   (  76A'  +  39A"  )
 NUMBER OF CORE ORBITALS:           2   (   2A'  +   0A"  )
 NUMBER OF VALENCE ORBITALS:        9   (   7A'  +   2A"  )


 NUCLEAR REPULSION ENERGY   30.41867820

 Eigenvalues of metric

         1 0.230E-03 0.488E-03 0.180E-02 0.208E-02 0.252E-02 0.356E-02 0.426E-02 0.497E-02
         2 0.393E-02 0.972E-02 0.260E-01 0.364E-01 0.508E-01 0.614E-01 0.802E-01 0.119E+00


 Contracted 2-electron integrals neglected if value below      1.0D-22

       10790064. INTEGRALS WRITTEN OUT IN    2635 BLOCKS ON RECORD 1290 OF FILE 1


 NUMBER OF SORTED TWO-ELECTRON INTEGRALS:   11433631.     BUFFER LENGTH:  32768
 NUMBER OF SEGMENTS:   1  SEGMENT LENGTH:   11433631      RECORD LENGTH: 524288

 Memory used in sort:      11.99 MW

 SORT1 READ    10790064. AND WROTE    10943632. INTEGRALS IN     32 RECORDS. CPU TIME:     0.28 SEC, REAL TIME:     0.36 SEC
 SORT2 READ    10943632. AND WROTE    11433631. INTEGRALS IN      1 RECORDS. CPU TIME:     0.20 SEC, REAL TIME:     0.26 SEC

 FILE SIZES:   FILE 1:   193.0 MBYTE,  FILE 4:   134.3 MBYTE,   TOTAL:    327.2 MBYTE

 OPERATOR DM      FOR CENTER  0  COORDINATES:    0.000000    0.000000    0.000000


 **********************************************************************************************************************************
 DATASETS  * FILE   NREC   LENGTH (MB)   RECORD NAMES
              1      19      111.05       500      610      700      900      950      970     1000      129      960     1100   
                                          VAR    BASINP    GEOM    SYMINP    ZMAT    AOBASIS   BASIS     P2S    ABASIS      S 
                                         1400     1410     1200     1210     1080     1600     1650     1300     1700   
                                           T        V       H0       H01     AOSYM     SMH    MOLCAS    ERIS     OPER   

 PROGRAMS   *        TOTAL       INT
 CPU TIMES  *         1.57      1.49
 REAL TIME  *         2.39 SEC
 DISK USED  *       327.55 MB      
 **********************************************************************************************************************************


 PROGRAM * RHF-SCF (CLOSED SHELL)       Authors: W. Meyer, H.-J. Werner


 NUMBER OF ELECTRONS:       8+    8-
 CONVERGENCE THRESHOLDS:    1.00E-10 (Density)    1.00E-13 (Energy)
 MAX. NUMBER OF ITERATIONS:      500
 INTERPOLATION TYPE:            DIIS
 INTERPOLATION STEPS:              2 (START)      1 (STEP)
 LEVEL SHIFTS:                  0.00 (CLOSED)  0.00 (OPEN) 



 Orbital guess generated from atomic densities. Full valence occupancy:    9   2

 Molecular orbital dump at record        2100.2

 Initial occupancy:   7   1

 ITERATION    DDIFF          GRAD             ENERGY        2-EL.EN.            DIPOLE MOMENTS         DIIS   ORB.
    1      0.000D+00      0.000D+00      -129.78957087    153.990423    0.00000    0.61020   -1.02026    0    start
    2      0.000D+00      0.107D-01      -129.81703236    155.247544    0.00000    0.61130   -0.22048    1    diag
    3      0.118D-01      0.808D-02      -129.83884083    155.361077    0.00000    0.56617   -0.59782    2    diag
    4      0.584D-02      0.128D-02      -129.83963166    155.074549    0.00000    0.57323   -0.53763    3    diag
    5      0.108D-02      0.417D-03      -129.83975419    155.167585    0.00000    0.57869   -0.54045    4    diag
    6      0.445D-03      0.119D-03      -129.83977347    155.152241    0.00000    0.57909   -0.53642    5    diag
    7      0.168D-03      0.592D-04      -129.83977902    155.154676    0.00000    0.58030   -0.53388    6    diag
    8      0.116D-03      0.201D-04      -129.83977962    155.154041    0.00000    0.58032   -0.53289    7    diag
    9      0.436D-04      0.380D-05      -129.83977965    155.153938    0.00000    0.58028   -0.53268    8    diag
   10      0.837D-05      0.871D-06      -129.83977965    155.153920    0.00000    0.58025   -0.53266    9    orth
   11      0.171D-05      0.172D-06      -129.83977965    155.153918    0.00000    0.58024   -0.53265    9    diag
   12      0.327D-06      0.351D-07      -129.83977965    155.153917    0.00000    0.58024   -0.53265    9    diag
   13      0.690D-07      0.877D-08      -129.83977965    155.153917    0.00000    0.58024   -0.53265    9    diag
   14      0.179D-07      0.180D-08      -129.83977965    155.153917    0.00000    0.58024   -0.53265    9    diag
   15      0.352D-08      0.502D-09      -129.83977965    155.153917    0.00000    0.58024   -0.53265    9    diag
   16      0.961D-09      0.136D-09      -129.83977965    155.153917    0.00000    0.58024   -0.53265    9    diag
   17      0.167D-09      0.364D-10      -129.83977965    155.153917    0.00000    0.58024   -0.53265    9    diag
   18      0.439D-10      0.127D-10      -129.83977965    155.153917    0.00000    0.58024   -0.53265    9    diag
   19      0.226D-10      0.273D-11      -129.83977965    155.153917    0.00000    0.58024   -0.53265    9    fixocc
   20      0.532D-11      0.476D-12      -129.83977965    155.153917    0.00000    0.58024   -0.53265    0    orth

 Final occupancy:   7   1

 !RHF STATE 1.1 Energy               -129.839779646751
 Nuclear energy                        30.41867820
 One-electron energy                 -237.83541654
 Two-electron energy                   77.57695869
 Virial quotient                       -1.00199427
 !RHF STATE 1.1 Dipole moment           0.00000000     0.58024070    -0.53265254
 Dipole moment /Debye                   0.00000000     1.47472815    -1.35377905

 Orbital energies:

         1.1          2.1          3.1          4.1          5.1          6.1          7.1          8.1          9.1
    -20.656527   -15.712199    -1.530621    -0.999532    -0.748978    -0.666376    -0.430524     0.029108     0.092116

         1.2          2.2          3.2
     -0.595993     0.064757     0.129884

 HOMO      7.1    -0.430524 =     -11.7151eV
 LUMO      8.1     0.029108 =       0.7921eV
 LUMO-HOMO         0.459632 =      12.5072eV


 **********************************************************************************************************************************
 DATASETS  * FILE   NREC   LENGTH (MB)   RECORD NAMES
              1      19      111.05       500      610      700      900      950      970     1000      129      960     1100   
                                          VAR    BASINP    GEOM    SYMINP    ZMAT    AOBASIS   BASIS     P2S    ABASIS      S 
                                         1400     1410     1200     1210     1080     1600     1650     1300     1700   
                                           T        V       H0       H01     AOSYM     SMH    MOLCAS    ERIS     OPER   

              2       4        2.94       700     1000      520     2100   
                                         GEOM     BASIS   MCVARS     RHF  

 PROGRAMS   *        TOTAL        HF       INT
 CPU TIMES  *         2.76      1.18      1.49
 REAL TIME  *         3.91 SEC
 DISK USED  *       327.55 MB      
 **********************************************************************************************************************************


 PROGRAM * CCSD (Closed-shell coupled cluster)     Authors: C. Hampel, H.-J. Werner, 1991, M. Deegan, P.J. Knowles, 1992


 Convergence thresholds:  THRVAR = 1.00D-08  THRDEN = 1.00D-12

 CCSD(T)     terms to be evaluated (factor= 1.000)


 Number of core orbitals:           2 (   2   0 )
 Number of closed-shell orbitals:   6 (   5   1 )
 Number of external orbitals:     107 (  69  38 )

 Molecular orbitals read from record     2100.2  Type=RHF/CANONICAL (state 1.1)

 Number of N-1 electron functions:               6
 Number of N-2 electron functions:              21
 Number of singly external CSFs:               383
 Number of doubly external CSFs:            107206
 Total number of CSFs:                      107590

 Length of J-op  integral file:               0.00 MB
 Length of K-op  integral file:               0.54 MB
 Length of 3-ext integral record:             0.00 MB

 Memory could be reduced to 5.94 Mwords without degradation in triples

 Integral transformation finished. Total CPU:   0.18 sec, npass=  1  Memory used:   1.65 MW

 Reference energy:                   -129.83977965

 MP2 singlet pair energy:              -0.27906727
 MP2 triplet pair energy:              -0.16496627
 MP2 correlation energy:               -0.44403354
 MP2 total energy:                   -130.28381319

 SCS-MP2 correlation energy:           -0.43752640   (PS=  1.200000  PT=  0.333333)
 SCS-MP2 total energy:               -130.27730605

 ITER.      SQ.NORM     CORR.ENERGY   TOTAL ENERGY   ENERGY CHANGE        DEN1      VAR(S)    VAR(P)  DIIS     TIME  TIME/IT
   1      1.12045093    -0.44818838  -130.28796802    -0.00415484     0.01179561  0.31D-02  0.31D-02  1  1     0.37     0.21
   2      1.13149319    -0.44839221  -130.28817186    -0.00020384    -0.01237113  0.10D-03  0.51D-03  2  2     0.56     0.21
   3      1.13791686    -0.44878532  -130.28856496    -0.00039310    -0.00297201  0.52D-04  0.51D-04  3  3     0.77     0.21
   4      1.14079197    -0.44879834  -130.28857799    -0.00001302    -0.00096990  0.40D-05  0.92D-05  4  4     0.96     0.22
   5      1.14183422    -0.44882642  -130.28860606    -0.00002807    -0.00021988  0.10D-05  0.17D-05  5  5     1.15     0.22
   6      1.14217646    -0.44880964  -130.28858929     0.00001678    -0.00004169  0.89D-07  0.42D-06  6  6     1.34     0.22
   7      1.14225119    -0.44881110  -130.28859074    -0.00000146    -0.00000171  0.17D-07  0.97D-07  6  1     1.53     0.22
   8      1.14227235    -0.44881187  -130.28859151    -0.00000077     0.00000172  0.39D-08  0.17D-07  6  2     1.73     0.22
   9      1.14228082    -0.44881132  -130.28859096     0.00000055    -0.00000090  0.26D-08  0.17D-08  6  3     1.91     0.22
  10      1.14228090    -0.44881183  -130.28859148    -0.00000052    -0.00000000  0.52D-09  0.25D-09  6  4     2.09     0.22
  11      1.14227925    -0.44881195  -130.28859160    -0.00000012     0.00000054  0.15D-09  0.32D-10  6  5     2.28     0.22
  12      1.14227795    -0.44881214  -130.28859178    -0.00000018     0.00000041  0.15D-10  0.90D-11  6  6     2.49     0.22
  13      1.14227723    -0.44881216  -130.28859180    -0.00000002     0.00000017  0.54D-11  0.17D-11  6  1     2.69     0.22
  14      1.14227681    -0.44881218  -130.28859183    -0.00000002     0.00000009  0.83D-12  0.56D-12  6  2     2.91     0.22
  15      1.14227663    -0.44881218  -130.28859183    -0.00000000     0.00000002  0.23D-12  0.18D-12  6  3     3.09     0.22
  16      1.14227655    -0.44881219  -130.28859183    -0.00000000     0.00000001  0.38D-13  0.64D-13  6  4     3.29     0.22
  17      1.14227649    -0.44881219  -130.28859184    -0.00000000     0.00000001  0.27D-14  0.14D-13  6  5     3.48     0.22
  18      1.14227649    -0.44881219  -130.28859184     0.00000000     0.00000000  0.13D-14  0.32D-14  6  6     3.68     0.22
  19      1.14227649    -0.44881219  -130.28859184     0.00000000    -0.00000000  0.88D-15  0.52D-15  6  1     3.87     0.22
  20      1.14227649    -0.44881219  -130.28859183     0.00000000    -0.00000000  0.15D-15  0.88D-16  6  2     4.08     0.22
  21      1.14227649    -0.44881219  -130.28859183     0.00000000     0.00000000  0.67D-16  0.20D-16  6  3     4.28     0.22
  22      1.14227649    -0.44881219  -130.28859183     0.00000000    -0.00000000  0.35D-17  0.40D-17  6  5     4.48     0.22
  23      1.14227649    -0.44881219  -130.28859183     0.00000000     0.00000000  0.11D-17  0.34D-18  6  4     4.68     0.22
  24      1.14227649    -0.44881219  -130.28859183     0.00000000    -0.00000000  0.29D-18  0.82D-19  6  6     4.88     0.22
  25      1.14227649    -0.44881219  -130.28859183     0.00000000    -0.00000000  0.35D-19  0.18D-19  6  1     5.08     0.22

 Norm of t1 vector:      0.07804355      S-energy:     0.00000000      T1 diagnostic:  0.01593057
                                                                       D1 diagnostic:  0.04212066

 Doubles amplitudes (print threshold =  0.500E-01):

         I         J         SYM. A    SYM. B    A         B      T(IJ, AB)

         6         6         2         2         1         1     -0.10895048


 Total CPU time for triples:      1.58 sec


 RESULTS
 =======

  Reference energy                   -129.839779646751
  CCSD singlet pair energy             -0.307634974561
  CCSD triplet pair energy             -0.141177213566
  CCSD correlation energy              -0.448812188122

  Triples (T) contribution             -0.020820283623
  Total correlation energy             -0.469632471745

  CCSD total energy                  -130.288591834873
  CCSD[T] energy                     -130.310467910559
  CCSD-T energy                      -130.309012430169
 !CCSD(T) total energy               -130.309412118496

 Timing summary (sec):

 STEP                 CPU(USER)    SYS     CPU(TOT)    WALL
 Transformation          0.18      0.05      0.23      0.23
 CCSD iterations         4.90      0.66      5.56      5.57
 Triples                 1.58      0.05      1.63      1.63

 Program statistics:

 Available memory in ccsd:               994999756
 Min. memory needed in ccsd:                389120
 Max. memory used in ccsd:                  473124
 Max. memory used in cckext:                599488 (25 integral passes)



 **********************************************************************************************************************************
 DATASETS  * FILE   NREC   LENGTH (MB)   RECORD NAMES
              1      20      128.20       500      610      700      900      950      970     1000      129      960     1100   
                                          VAR    BASINP    GEOM    SYMINP    ZMAT    AOBASIS   BASIS     P2S    ABASIS      S 
                                         1400     1410     1200     1210     1080     1600     1650     1300     1700     1380   
                                           T        V       H0       H01     AOSYM     SMH    MOLCAS    ERIS     OPER     JKOP   

              2       4        2.94       700     1000      520     2100   
                                         GEOM     BASIS   MCVARS     RHF  

 PROGRAMS   *        TOTAL   CCSD(T)        HF       INT
 CPU TIMES  *         9.44      6.68      1.18      1.49
 REAL TIME  *        11.41 SEC
 DISK USED  *       327.55 MB      
 **********************************************************************************************************************************

 CCSD(T)/aug-cc-pVTZ energy=   -130.309412118496

        CCSD(T)         HF-SCF  
   -130.30941212   -129.83977965
 **********************************************************************************************************************************
 Molpro calculation terminated
 Variable memory released
