
 Primary working directories    : /tmp/r2666/234943.maple
 Secondary working directories  : /tmp/r2666/234943.maple
 Wavefunction directory         : /ddn/home4/r2666/wfu/
 Main file repository           : /tmp/r2666/234943.maple/

 SHA1      : d5ffa45e93fdbca01ffc919aa182cfdae0147319
 NAME      : 2015.1.35
 ARCHNAME  : linux/x86_64
 FC        : /opt/intel/composer_xe_2015.1.133/bin/intel64/ifort
 BLASLIB   : -Wl,-_start-group /opt/intel/mkl/lib/intel64/libmkl_intel_ilp64.a /opt/intel/mkl/lib/intel64/libmkl_intel_thread.a /opt/intel/mkl/lib/intel64/libmkl_core.a -Wl,-_end-group
 id        : olemiss

 Nodes     nprocs
 cn022        1

 Using customized tuning parameters: mindgm=1; mindgv=20; mindgc=4; mindgr=1; noblas=0; minvec=7
 default implementation of scratch files=df  

 ***,hno CCSD(T)/TZ-F12 QFF
 memory, 995, m;
 gthresh,energy=1.d-12,zero=1.d-22,oneint=1.d-22,twoint=1.d-22;
 gthresh,optgrad=1.d-8,optstep=1.d-8;
 nocompress;
 geomtyp=xyz
 bohr
 geometry={
 3
         57        57
 N        0.0000000000       -0.1594673210       -1.1396160791
 H        0.0000000000        1.6655362758       -1.9281145832
 O        0.0000000000        0.0356988353        1.1171410712
 }
 
 basis=avtz
   {hf,maxit=500;accu,20;}
 {ccsd(t),nocheck,maxit=250;orbital,IGNORE_ERROR;}

 Variables initialized (889), CPU time= 0.00 sec
 Commands  initialized (702), CPU time= 0.01 sec, 572 directives.
 Default parameters read. Elapsed time= 0.07 sec

 Checking input...
 Passed
1


                                         ***  PROGRAM SYSTEM MOLPRO  ***
                                       Copyright, TTI GmbH Stuttgart, 2015
                                    Version 2015.1 linked Jul  9 2018 13:16:40


 **********************************************************************************************************************************
 LABEL *   hno CCSD(T)/TZ-F12 QFF                                                        
  64 bit serial version                                                                  DATE: 08-Feb-20          TIME: 17:56:26  
 **********************************************************************************************************************************

 SHA1:             d5ffa45e93fdbca01ffc919aa182cfdae0147319
 **********************************************************************************************************************************

 THRESHOLDS:

 ZERO    =  1.00D-22  ONEINT  =  1.00D-22  TWOINT  =  1.00D-22  PREFAC  =  1.00D-14  LOCALI  =  1.00D-09  EORDER  =  1.00D-04
 ENERGY  =  1.00D-12  ETEST   =  0.00D+00  EDENS   =  0.00D+00  THRDEDEF=  1.00D-06  GRADIENT=  1.00D-02  STEP    =  1.00D-03
 ORBITAL =  1.00D-05  CIVEC   =  1.00D-05  COEFF   =  1.00D-04  PRINTCI =  5.00D-02  PUNCHCI =  9.90D+01  OPTGRAD =  3.00D-04
 OPTENERG=  1.00D-06  OPTSTEP =  3.00D-04  THRGRAD =  1.00D-10  COMPRESS=  1.00D-11  VARMIN  =  1.00D-07  VARMAX  =  1.00D-03
 THRDOUB =  0.00D+00  THRDIV  =  1.00D-05  THRRED  =  1.00D-07  THRPSP  =  1.00D+00  THRDC   =  1.00D-10  THRCS   =  1.00D-10
 THRNRM  =  1.00D-08  THREQ   =  0.00D+00  THRDE   =  1.00D+00  THRREF  =  1.00D-05  SPARFAC =  1.00D+00  THRDLP  =  1.00D-07
 THRDIA  =  1.00D-10  THRDLS  =  1.00D-07  THRGPS  =  0.00D+00  THRKEX  =  0.00D+00  THRDIS  =  2.00D-01  THRVAR  =  1.00D-10
 THRLOC  =  1.00D-06  THRGAP  =  1.00D-06  THRLOCT = -1.00D+00  THRGAPT = -1.00D+00  THRORB  =  1.00D-06  THRMLTP =  0.00D+00
 THRCPQCI=  1.00D-10  KEXTA   =  0.00D+00  THRCOARS=  0.00D+00  SYMTOL  =  1.00D-06  GRADTOL =  1.00D-06  THROVL  =  1.00D-08
 THRORTH =  1.00D-08  GRID    =  1.00D-06  GRIDMAX =  1.00D-03  DTMAX   =  0.00D+00  THROCCDE=  1.00D-01  THROCCDE=  1.00D-01



 THRESHOLDS:

 ZERO    =  1.00D-22  ONEINT  =  1.00D-22  TWOINT  =  1.00D-22  PREFAC  =  1.00D-14  LOCALI  =  1.00D-09  EORDER  =  1.00D-04
 ENERGY  =  1.00D-12  ETEST   =  0.00D+00  EDENS   =  0.00D+00  THRDEDEF=  1.00D-06  GRADIENT=  1.00D-02  STEP    =  1.00D-03
 ORBITAL =  1.00D-05  CIVEC   =  1.00D-05  COEFF   =  1.00D-04  PRINTCI =  5.00D-02  PUNCHCI =  9.90D+01  OPTGRAD =  1.00D-08
 OPTENERG=  1.00D-06  OPTSTEP =  1.00D-08  THRGRAD =  1.00D-10  COMPRESS=  1.00D-11  VARMIN  =  1.00D-07  VARMAX  =  1.00D-03
 THRDOUB =  0.00D+00  THRDIV  =  1.00D-05  THRRED  =  1.00D-07  THRPSP  =  1.00D+00  THRDC   =  1.00D-10  THRCS   =  1.00D-10
 THRNRM  =  1.00D-08  THREQ   =  0.00D+00  THRDE   =  1.00D+00  THRREF  =  1.00D-05  SPARFAC =  1.00D+00  THRDLP  =  1.00D-07
 THRDIA  =  1.00D-10  THRDLS  =  1.00D-07  THRGPS  =  0.00D+00  THRKEX  =  0.00D+00  THRDIS  =  2.00D-01  THRVAR  =  1.00D-10
 THRLOC  =  1.00D-06  THRGAP  =  1.00D-06  THRLOCT = -1.00D+00  THRGAPT = -1.00D+00  THRORB  =  1.00D-06  THRMLTP =  0.00D+00
 THRCPQCI=  1.00D-10  KEXTA   =  0.00D+00  THRCOARS=  0.00D+00  SYMTOL  =  1.00D-06  GRADTOL =  1.00D-06  THROVL  =  1.00D-08
 THRORTH =  1.00D-08  GRID    =  1.00D-06  GRIDMAX =  1.00D-03  DTMAX   =  0.00D+00  THROCCDE=  1.00D-01  THROCCDE=  1.00D-01



 Input parameters for SORTINT:

 COMPRESS =    0.000000
 C_FINAL  =    1.000000
 DEBUG    =   -1.000000
 C_SORT1  =    0.000000
 C_SEWARD =    0.000000
 THRESH   =    0.000000
 IO       =  molpro                                                          
 SPRI     =    0.000000
 SETTING GEOMTYP        =    XYZ
 ZUNIT=BOHR
 

 Variable memory set to  995000000 words,  buffer space   230000 words

 SETTING BASIS          =    AVTZ


 Recomputing integrals since basis changed


 Using spherical harmonics

 Library entry N      S aug-cc-pVTZ          selected for orbital group  1
 Library entry N      P aug-cc-pVTZ          selected for orbital group  1
 Library entry N      D aug-cc-pVTZ          selected for orbital group  1
 Library entry N      F aug-cc-pVTZ          selected for orbital group  1
 Library entry H      S aug-cc-pVTZ          selected for orbital group  2
 Library entry H      P aug-cc-pVTZ          selected for orbital group  2
 Library entry H      D aug-cc-pVTZ          selected for orbital group  2
 Library entry O      S aug-cc-pVTZ          selected for orbital group  3
 Library entry O      P aug-cc-pVTZ          selected for orbital group  3
 Library entry O      D aug-cc-pVTZ          selected for orbital group  3
 Library entry O      F aug-cc-pVTZ          selected for orbital group  3


 PROGRAM * SEWARD (Integral evaluation for generally contracted gaussian basis sets)     Author: Roland Lindh, 1990

 Geometry written to block  1 of record 700


 Point group  Cs  



 ATOMIC COORDINATES

 NR  ATOM    CHARGE       X              Y              Z

   1  N       7.00    0.000000000   -0.159467321   -1.139616079
   2  H       1.00    0.000000000    1.665536276   -1.928114583
   3  O       8.00    0.000000000    0.035698835    1.117141071

 Bond lengths in Bohr (Angstrom)

 1-2  1.988056342  1-3  2.265180493
     ( 1.052034110)     ( 1.198681895)

 Bond angles

  2-1-3  108.42422233

 NUCLEAR CHARGE:                   16
 NUMBER OF PRIMITIVE AOS:         161
 NUMBER OF SYMMETRY AOS:          141
 NUMBER OF CONTRACTIONS:          115   (  76A'  +  39A"  )
 NUMBER OF CORE ORBITALS:           2   (   2A'  +   0A"  )
 NUMBER OF VALENCE ORBITALS:        9   (   7A'  +   2A"  )


 NUCLEAR REPULSION ENERGY   30.55928983

 Eigenvalues of metric

         1 0.229E-03 0.494E-03 0.179E-02 0.210E-02 0.246E-02 0.344E-02 0.429E-02 0.509E-02
         2 0.384E-02 0.101E-01 0.258E-01 0.368E-01 0.509E-01 0.619E-01 0.800E-01 0.119E+00


 Contracted 2-electron integrals neglected if value below      1.0D-22

       10790060. INTEGRALS WRITTEN OUT IN    2635 BLOCKS ON RECORD 1290 OF FILE 1


 NUMBER OF SORTED TWO-ELECTRON INTEGRALS:   11433631.     BUFFER LENGTH:  32768
 NUMBER OF SEGMENTS:   1  SEGMENT LENGTH:   11433631      RECORD LENGTH: 524288

 Memory used in sort:      11.99 MW

 SORT1 READ    10790060. AND WROTE    10943631. INTEGRALS IN     32 RECORDS. CPU TIME:     0.25 SEC, REAL TIME:     0.31 SEC
 SORT2 READ    10943631. AND WROTE    11433631. INTEGRALS IN      1 RECORDS. CPU TIME:     0.18 SEC, REAL TIME:     0.26 SEC

 FILE SIZES:   FILE 1:   193.0 MBYTE,  FILE 4:   134.3 MBYTE,   TOTAL:    327.2 MBYTE

 OPERATOR DM      FOR CENTER  0  COORDINATES:    0.000000    0.000000    0.000000


 **********************************************************************************************************************************
 DATASETS  * FILE   NREC   LENGTH (MB)   RECORD NAMES
              1      19      111.05       500      610      700      900      950      970     1000      129      960     1100   
                                          VAR    BASINP    GEOM    SYMINP    ZMAT    AOBASIS   BASIS     P2S    ABASIS      S 
                                         1400     1410     1200     1210     1080     1600     1650     1300     1700   
                                           T        V       H0       H01     AOSYM     SMH    MOLCAS    ERIS     OPER   

 PROGRAMS   *        TOTAL       INT
 CPU TIMES  *         1.71      1.59
 REAL TIME  *         2.59 SEC
 DISK USED  *       327.55 MB      
 **********************************************************************************************************************************


 PROGRAM * RHF-SCF (CLOSED SHELL)       Authors: W. Meyer, H.-J. Werner


 NUMBER OF ELECTRONS:       8+    8-
 CONVERGENCE THRESHOLDS:    1.00E-10 (Density)    1.00E-13 (Energy)
 MAX. NUMBER OF ITERATIONS:      500
 INTERPOLATION TYPE:            DIIS
 INTERPOLATION STEPS:              2 (START)      1 (STEP)
 LEVEL SHIFTS:                  0.00 (CLOSED)  0.00 (OPEN) 



 Orbital guess generated from atomic densities. Full valence occupancy:    9   2

 Molecular orbital dump at record        2100.2

 Initial occupancy:   7   1

 ITERATION    DDIFF          GRAD             ENERGY        2-EL.EN.            DIPOLE MOMENTS         DIIS   ORB.
    1      0.000D+00      0.000D+00      -129.79085489    154.234869    0.00000    0.58971   -0.99154    0    start
    2      0.000D+00      0.106D-01      -129.81856594    155.523179    0.00000    0.60479   -0.21460    1    diag
    3      0.117D-01      0.796D-02      -129.83968668    155.613414    0.00000    0.55375   -0.57948    2    diag
    4      0.577D-02      0.126D-02      -129.84045829    155.332278    0.00000    0.56133   -0.52106    3    diag
    5      0.106D-02      0.415D-03      -129.84058027    155.425478    0.00000    0.56693   -0.52406    4    diag
    6      0.442D-03      0.120D-03      -129.84059965    155.410057    0.00000    0.56736   -0.52015    5    diag
    7      0.169D-03      0.588D-04      -129.84060508    155.412653    0.00000    0.56864   -0.51773    6    diag
    8      0.116D-03      0.194D-04      -129.84060562    155.412031    0.00000    0.56867   -0.51681    7    diag
    9      0.413D-04      0.364D-05      -129.84060565    155.411931    0.00000    0.56863   -0.51661    8    diag
   10      0.782D-05      0.849D-06      -129.84060565    155.411912    0.00000    0.56860   -0.51658    9    orth
   11      0.167D-05      0.171D-06      -129.84060565    155.411909    0.00000    0.56859   -0.51658    9    diag
   12      0.330D-06      0.348D-07      -129.84060565    155.411908    0.00000    0.56859   -0.51658    9    diag
   13      0.712D-07      0.861D-08      -129.84060565    155.411908    0.00000    0.56859   -0.51658    9    diag
   14      0.182D-07      0.181D-08      -129.84060565    155.411908    0.00000    0.56859   -0.51658    9    diag
   15      0.372D-08      0.516D-09      -129.84060565    155.411908    0.00000    0.56859   -0.51658    9    diag
   16      0.101D-08      0.146D-09      -129.84060565    155.411908    0.00000    0.56859   -0.51658    9    diag
   17      0.190D-09      0.426D-10      -129.84060565    155.411908    0.00000    0.56859   -0.51658    9    diag
   18      0.549D-10      0.151D-10      -129.84060565    155.411908    0.00000    0.56859   -0.51658    0    orth

 Final occupancy:   7   1

 !RHF STATE 1.1 Energy               -129.840605647851
 Nuclear energy                        30.55928983
 One-electron energy                 -238.10584962
 Two-electron energy                   77.70595414
 Virial quotient                       -1.00187514
 !RHF STATE 1.1 Dipole moment           0.00000000     0.56859040    -0.51657701
 Dipole moment /Debye                   0.00000000     1.44511798    -1.31292181

 Orbital energies:

         1.1          2.1          3.1          4.1          5.1          6.1          7.1          8.1          9.1
    -20.655722   -15.712828    -1.538338    -0.993021    -0.750155    -0.668829    -0.427419     0.029294     0.092189

         1.2          2.2          3.2
     -0.600659     0.067405     0.130452

 HOMO      7.1    -0.427419 =     -11.6307eV
 LUMO      8.1     0.029294 =       0.7971eV
 LUMO-HOMO         0.456713 =      12.4278eV


 **********************************************************************************************************************************
 DATASETS  * FILE   NREC   LENGTH (MB)   RECORD NAMES
              1      19      111.05       500      610      700      900      950      970     1000      129      960     1100   
                                          VAR    BASINP    GEOM    SYMINP    ZMAT    AOBASIS   BASIS     P2S    ABASIS      S 
                                         1400     1410     1200     1210     1080     1600     1650     1300     1700   
                                           T        V       H0       H01     AOSYM     SMH    MOLCAS    ERIS     OPER   

              2       4        2.94       700     1000      520     2100   
                                         GEOM     BASIS   MCVARS     RHF  

 PROGRAMS   *        TOTAL        HF       INT
 CPU TIMES  *         2.87      1.16      1.59
 REAL TIME  *         3.98 SEC
 DISK USED  *       327.55 MB      
 **********************************************************************************************************************************


 PROGRAM * CCSD (Closed-shell coupled cluster)     Authors: C. Hampel, H.-J. Werner, 1991, M. Deegan, P.J. Knowles, 1992


 Convergence thresholds:  THRVAR = 1.00D-08  THRDEN = 1.00D-12

 CCSD(T)     terms to be evaluated (factor= 1.000)


 Number of core orbitals:           2 (   2   0 )
 Number of closed-shell orbitals:   6 (   5   1 )
 Number of external orbitals:     107 (  69  38 )

 Molecular orbitals read from record     2100.2  Type=RHF/CANONICAL (state 1.1)

 Number of N-1 electron functions:               6
 Number of N-2 electron functions:              21
 Number of singly external CSFs:               383
 Number of doubly external CSFs:            107206
 Total number of CSFs:                      107590

 Length of J-op  integral file:               0.00 MB
 Length of K-op  integral file:               0.54 MB
 Length of 3-ext integral record:             0.00 MB

 Memory could be reduced to 5.94 Mwords without degradation in triples

 Integral transformation finished. Total CPU:   0.21 sec, npass=  1  Memory used:   1.65 MW

 Reference energy:                   -129.84060565

 MP2 singlet pair energy:              -0.27847060
 MP2 triplet pair energy:              -0.16453896
 MP2 correlation energy:               -0.44300955
 MP2 total energy:                   -130.28361520

 SCS-MP2 correlation energy:           -0.43654451   (PS=  1.200000  PT=  0.333333)
 SCS-MP2 total energy:               -130.27715016

 ITER.      SQ.NORM     CORR.ENERGY   TOTAL ENERGY   ENERGY CHANGE        DEN1      VAR(S)    VAR(P)  DIIS     TIME  TIME/IT
   1      1.11994604    -0.44747232  -130.28807797    -0.00446277     0.01122707  0.30D-02  0.30D-02  1  1     0.42     0.24
   2      1.13084757    -0.44773772  -130.28834337    -0.00026540    -0.01222446  0.96D-04  0.50D-03  2  2     0.64     0.25
   3      1.13715055    -0.44812330  -130.28872895    -0.00038558    -0.00294108  0.51D-04  0.49D-04  3  3     0.87     0.25
   4      1.13992980    -0.44813398  -130.28873963    -0.00001068    -0.00094704  0.39D-05  0.89D-05  4  4     1.10     0.25
   5      1.14092960    -0.44816115  -130.28876680    -0.00002717    -0.00021201  0.11D-05  0.16D-05  5  5     1.34     0.25
   6      1.14126047    -0.44814533  -130.28875098     0.00001582    -0.00004006  0.98D-07  0.40D-06  6  6     1.57     0.25
   7      1.14133560    -0.44814633  -130.28875197    -0.00000099    -0.00000209  0.19D-07  0.90D-07  6  1     1.81     0.25
   8      1.14135713    -0.44814710  -130.28875275    -0.00000077     0.00000144  0.37D-08  0.16D-07  6  2     2.05     0.25
   9      1.14136242    -0.44814667  -130.28875232     0.00000042     0.00000043  0.26D-08  0.17D-08  6  4     2.27     0.25
  10      1.14136460    -0.44814714  -130.28875279    -0.00000047    -0.00000067  0.42D-09  0.20D-09  6  3     2.49     0.25
  11      1.14136407    -0.44814717  -130.28875281    -0.00000003    -0.00000005  0.15D-09  0.31D-10  6  5     2.72     0.25
  12      1.14136303    -0.44814731  -130.28875296    -0.00000014     0.00000033  0.17D-10  0.99D-11  6  6     2.96     0.25
  13      1.14136222    -0.44814734  -130.28875299    -0.00000003     0.00000021  0.60D-11  0.20D-11  6  1     3.21     0.25
  14      1.14136171    -0.44814737  -130.28875302    -0.00000003     0.00000013  0.97D-12  0.63D-12  6  2     3.44     0.25
  15      1.14136149    -0.44814738  -130.28875302    -0.00000001     0.00000003  0.26D-12  0.20D-12  6  4     3.67     0.25
  16      1.14136137    -0.44814738  -130.28875303    -0.00000000     0.00000002  0.35D-13  0.24D-13  6  5     3.90     0.25
  17      1.14136134    -0.44814738  -130.28875303    -0.00000000     0.00000000  0.65D-15  0.18D-14  6  3     4.14     0.25
  18      1.14136134    -0.44814738  -130.28875303     0.00000000    -0.00000000  0.22D-15  0.24D-15  6  6     4.38     0.25
  19      1.14136134    -0.44814738  -130.28875303     0.00000000    -0.00000000  0.66D-16  0.34D-16  6  1     4.62     0.25
  20      1.14136134    -0.44814738  -130.28875303     0.00000000    -0.00000000  0.18D-16  0.60D-17  6  2     4.86     0.25
  21      1.14136134    -0.44814738  -130.28875303     0.00000000    -0.00000000  0.30D-17  0.16D-17  6  5     5.10     0.25
  22      1.14136134    -0.44814738  -130.28875303    -0.00000000     0.00000000  0.31D-18  0.18D-18  6  4     5.32     0.25
  23      1.14136134    -0.44814738  -130.28875303     0.00000000     0.00000000  0.11D-18  0.38D-19  6  3     5.55     0.25
  24      1.14136134    -0.44814738  -130.28875303     0.00000000     0.00000000  0.11D-19  0.53D-20  6  2     5.77     0.25
  25      1.14136134    -0.44814738  -130.28875303     0.00000000    -0.00000000  0.19D-20  0.84D-21  6  6     6.01     0.25
  26      1.14136134    -0.44814738  -130.28875303     0.00000000    -0.00000000  0.43D-21  0.21D-21  6  1     6.25     0.25

 Norm of t1 vector:      0.07701735      S-energy:     0.00000000      T1 diagnostic:  0.01572110
                                                                       D1 diagnostic:  0.04088284

 Doubles amplitudes (print threshold =  0.500E-01):

         I         J         SYM. A    SYM. B    A         B      T(IJ, AB)

         6         6         2         2         1         1     -0.10475599


 Total CPU time for triples:      1.80 sec


 RESULTS
 =======

  Reference energy                   -129.840605647851
  CCSD singlet pair energy             -0.307056321160
  CCSD triplet pair energy             -0.141091059057
  CCSD correlation energy              -0.448147380215

  Triples (T) contribution             -0.020630825180
  Total correlation energy             -0.468778205395

  CCSD total energy                  -130.288753028067
  CCSD[T] energy                     -130.310412504785
  CCSD-T energy                      -130.308988565113
 !CCSD(T) total energy               -130.309383853246

 Timing summary (sec):

 STEP                 CPU(USER)    SYS     CPU(TOT)    WALL
 Transformation          0.22      0.04      0.26      0.25
 CCSD iterations         6.04      0.52      6.56      6.55
 Triples                 1.80      0.02      1.82      1.83

 Program statistics:

 Available memory in ccsd:               994999756
 Min. memory needed in ccsd:                389120
 Max. memory used in ccsd:                  473124
 Max. memory used in cckext:                599488 (26 integral passes)



 **********************************************************************************************************************************
 DATASETS  * FILE   NREC   LENGTH (MB)   RECORD NAMES
              1      20      128.20       500      610      700      900      950      970     1000      129      960     1100   
                                          VAR    BASINP    GEOM    SYMINP    ZMAT    AOBASIS   BASIS     P2S    ABASIS      S 
                                         1400     1410     1200     1210     1080     1600     1650     1300     1700     1380   
                                           T        V       H0       H01     AOSYM     SMH    MOLCAS    ERIS     OPER     JKOP   

              2       4        2.94       700     1000      520     2100   
                                         GEOM     BASIS   MCVARS     RHF  

 PROGRAMS   *        TOTAL   CCSD(T)        HF       INT
 CPU TIMES  *        10.95      8.08      1.16      1.59
 REAL TIME  *        12.68 SEC
 DISK USED  *       327.55 MB      
 **********************************************************************************************************************************

 CCSD(T)/aug-cc-pVTZ energy=   -130.309383853246

        CCSD(T)         HF-SCF  
   -130.30938385   -129.84060565
 **********************************************************************************************************************************
 Molpro calculation terminated
 Variable memory released
