
 Primary working directories    : /tmp/r2666/235000.maple
 Secondary working directories  : /tmp/r2666/235000.maple
 Wavefunction directory         : /ddn/home4/r2666/wfu/
 Main file repository           : /tmp/r2666/235000.maple/

 SHA1      : d5ffa45e93fdbca01ffc919aa182cfdae0147319
 NAME      : 2015.1.35
 ARCHNAME  : linux/x86_64
 FC        : /opt/intel/composer_xe_2015.1.133/bin/intel64/ifort
 BLASLIB   : -Wl,-_start-group /opt/intel/mkl/lib/intel64/libmkl_intel_ilp64.a /opt/intel/mkl/lib/intel64/libmkl_intel_thread.a /opt/intel/mkl/lib/intel64/libmkl_core.a -Wl,-_end-group
 id        : olemiss

 Nodes     nprocs
 cn091        1

 Using customized tuning parameters: mindgm=1; mindgv=20; mindgc=4; mindgr=1; noblas=0; minvec=7
 default implementation of scratch files=df  

 ***,hno CCSD(T)/TZ-F12 QFF
 memory, 995, m;
 gthresh,energy=1.d-12,zero=1.d-22,oneint=1.d-22,twoint=1.d-22;
 gthresh,optgrad=1.d-8,optstep=1.d-8;
 nocompress;
 geomtyp=xyz
 bohr
 geometry={
 3
        114       114
 N        0.0000000000       -0.1759152138       -1.1474309027
 H        0.0000000000        1.6748695410       -1.9236129378
 O        0.0000000000        0.0428134628        1.1204542494
 }
 
 basis=avtz
   {hf,maxit=500;accu,20;}
 {ccsd(t),nocheck,maxit=250;orbital,IGNORE_ERROR;}

 Variables initialized (889), CPU time= 0.00 sec
 Commands  initialized (702), CPU time= 0.01 sec, 572 directives.
 Default parameters read. Elapsed time= 0.04 sec

 Checking input...
 Passed
1


                                         ***  PROGRAM SYSTEM MOLPRO  ***
                                       Copyright, TTI GmbH Stuttgart, 2015
                                    Version 2015.1 linked Jul  9 2018 13:16:40


 **********************************************************************************************************************************
 LABEL *   hno CCSD(T)/TZ-F12 QFF                                                        
  64 bit serial version                                                                  DATE: 08-Feb-20          TIME: 17:56:48  
 **********************************************************************************************************************************

 SHA1:             d5ffa45e93fdbca01ffc919aa182cfdae0147319
 **********************************************************************************************************************************

 THRESHOLDS:

 ZERO    =  1.00D-22  ONEINT  =  1.00D-22  TWOINT  =  1.00D-22  PREFAC  =  1.00D-14  LOCALI  =  1.00D-09  EORDER  =  1.00D-04
 ENERGY  =  1.00D-12  ETEST   =  0.00D+00  EDENS   =  0.00D+00  THRDEDEF=  1.00D-06  GRADIENT=  1.00D-02  STEP    =  1.00D-03
 ORBITAL =  1.00D-05  CIVEC   =  1.00D-05  COEFF   =  1.00D-04  PRINTCI =  5.00D-02  PUNCHCI =  9.90D+01  OPTGRAD =  3.00D-04
 OPTENERG=  1.00D-06  OPTSTEP =  3.00D-04  THRGRAD =  1.00D-10  COMPRESS=  1.00D-11  VARMIN  =  1.00D-07  VARMAX  =  1.00D-03
 THRDOUB =  0.00D+00  THRDIV  =  1.00D-05  THRRED  =  1.00D-07  THRPSP  =  1.00D+00  THRDC   =  1.00D-10  THRCS   =  1.00D-10
 THRNRM  =  1.00D-08  THREQ   =  0.00D+00  THRDE   =  1.00D+00  THRREF  =  1.00D-05  SPARFAC =  1.00D+00  THRDLP  =  1.00D-07
 THRDIA  =  1.00D-10  THRDLS  =  1.00D-07  THRGPS  =  0.00D+00  THRKEX  =  0.00D+00  THRDIS  =  2.00D-01  THRVAR  =  1.00D-10
 THRLOC  =  1.00D-06  THRGAP  =  1.00D-06  THRLOCT = -1.00D+00  THRGAPT = -1.00D+00  THRORB  =  1.00D-06  THRMLTP =  0.00D+00
 THRCPQCI=  1.00D-10  KEXTA   =  0.00D+00  THRCOARS=  0.00D+00  SYMTOL  =  1.00D-06  GRADTOL =  1.00D-06  THROVL  =  1.00D-08
 THRORTH =  1.00D-08  GRID    =  1.00D-06  GRIDMAX =  1.00D-03  DTMAX   =  0.00D+00  THROCCDE=  1.00D-01  THROCCDE=  1.00D-01



 THRESHOLDS:

 ZERO    =  1.00D-22  ONEINT  =  1.00D-22  TWOINT  =  1.00D-22  PREFAC  =  1.00D-14  LOCALI  =  1.00D-09  EORDER  =  1.00D-04
 ENERGY  =  1.00D-12  ETEST   =  0.00D+00  EDENS   =  0.00D+00  THRDEDEF=  1.00D-06  GRADIENT=  1.00D-02  STEP    =  1.00D-03
 ORBITAL =  1.00D-05  CIVEC   =  1.00D-05  COEFF   =  1.00D-04  PRINTCI =  5.00D-02  PUNCHCI =  9.90D+01  OPTGRAD =  1.00D-08
 OPTENERG=  1.00D-06  OPTSTEP =  1.00D-08  THRGRAD =  1.00D-10  COMPRESS=  1.00D-11  VARMIN  =  1.00D-07  VARMAX  =  1.00D-03
 THRDOUB =  0.00D+00  THRDIV  =  1.00D-05  THRRED  =  1.00D-07  THRPSP  =  1.00D+00  THRDC   =  1.00D-10  THRCS   =  1.00D-10
 THRNRM  =  1.00D-08  THREQ   =  0.00D+00  THRDE   =  1.00D+00  THRREF  =  1.00D-05  SPARFAC =  1.00D+00  THRDLP  =  1.00D-07
 THRDIA  =  1.00D-10  THRDLS  =  1.00D-07  THRGPS  =  0.00D+00  THRKEX  =  0.00D+00  THRDIS  =  2.00D-01  THRVAR  =  1.00D-10
 THRLOC  =  1.00D-06  THRGAP  =  1.00D-06  THRLOCT = -1.00D+00  THRGAPT = -1.00D+00  THRORB  =  1.00D-06  THRMLTP =  0.00D+00
 THRCPQCI=  1.00D-10  KEXTA   =  0.00D+00  THRCOARS=  0.00D+00  SYMTOL  =  1.00D-06  GRADTOL =  1.00D-06  THROVL  =  1.00D-08
 THRORTH =  1.00D-08  GRID    =  1.00D-06  GRIDMAX =  1.00D-03  DTMAX   =  0.00D+00  THROCCDE=  1.00D-01  THROCCDE=  1.00D-01



 Input parameters for SORTINT:

 COMPRESS =    0.000000
 C_FINAL  =    1.000000
 DEBUG    =   -1.000000
 C_SORT1  =    0.000000
 C_SEWARD =    0.000000
 THRESH   =    0.000000
 IO       =  molpro                                                          
 SPRI     =    0.000000
 SETTING GEOMTYP        =    XYZ
 ZUNIT=BOHR
 

 Variable memory set to  995000000 words,  buffer space   230000 words

 SETTING BASIS          =    AVTZ


 Recomputing integrals since basis changed


 Using spherical harmonics

 Library entry N      S aug-cc-pVTZ          selected for orbital group  1
 Library entry N      P aug-cc-pVTZ          selected for orbital group  1
 Library entry N      D aug-cc-pVTZ          selected for orbital group  1
 Library entry N      F aug-cc-pVTZ          selected for orbital group  1
 Library entry H      S aug-cc-pVTZ          selected for orbital group  2
 Library entry H      P aug-cc-pVTZ          selected for orbital group  2
 Library entry H      D aug-cc-pVTZ          selected for orbital group  2
 Library entry O      S aug-cc-pVTZ          selected for orbital group  3
 Library entry O      P aug-cc-pVTZ          selected for orbital group  3
 Library entry O      D aug-cc-pVTZ          selected for orbital group  3
 Library entry O      F aug-cc-pVTZ          selected for orbital group  3


 PROGRAM * SEWARD (Integral evaluation for generally contracted gaussian basis sets)     Author: Roland Lindh, 1990

 Geometry written to block  1 of record 700


 Point group  Cs  



 ATOMIC COORDINATES

 NR  ATOM    CHARGE       X              Y              Z

   1  N       7.00    0.000000000   -0.175915214   -1.147430903
   2  H       1.00    0.000000000    1.674869541   -1.923612938
   3  O       8.00    0.000000000    0.042813463    1.120454249

 Bond lengths in Bohr (Angstrom)

 1-2  2.006953602  1-3  2.278408501
     ( 1.062034110)     ( 1.205681856)

 Bond angles

  2-1-3  107.24328481

 NUCLEAR CHARGE:                   16
 NUMBER OF PRIMITIVE AOS:         161
 NUMBER OF SYMMETRY AOS:          141
 NUMBER OF CONTRACTIONS:          115   (  76A'  +  39A"  )
 NUMBER OF CORE ORBITALS:           2   (   2A'  +   0A"  )
 NUMBER OF VALENCE ORBITALS:        9   (   7A'  +   2A"  )


 NUCLEAR REPULSION ENERGY   30.38260443

 Eigenvalues of metric

         1 0.232E-03 0.507E-03 0.180E-02 0.215E-02 0.252E-02 0.355E-02 0.434E-02 0.527E-02
         2 0.393E-02 0.104E-01 0.262E-01 0.375E-01 0.515E-01 0.627E-01 0.824E-01 0.119E+00


 Contracted 2-electron integrals neglected if value below      1.0D-22

       10790064. INTEGRALS WRITTEN OUT IN    2635 BLOCKS ON RECORD 1290 OF FILE 1


 NUMBER OF SORTED TWO-ELECTRON INTEGRALS:   11433631.     BUFFER LENGTH:  32768
 NUMBER OF SEGMENTS:   1  SEGMENT LENGTH:   11433631      RECORD LENGTH: 524288

 Memory used in sort:      11.99 MW

 SORT1 READ    10790064. AND WROTE    10943632. INTEGRALS IN     32 RECORDS. CPU TIME:     0.15 SEC, REAL TIME:     0.24 SEC
 SORT2 READ    10943632. AND WROTE    11433631. INTEGRALS IN      1 RECORDS. CPU TIME:     0.20 SEC, REAL TIME:     0.24 SEC

 FILE SIZES:   FILE 1:   193.0 MBYTE,  FILE 4:   134.3 MBYTE,   TOTAL:    327.2 MBYTE

 OPERATOR DM      FOR CENTER  0  COORDINATES:    0.000000    0.000000    0.000000


 **********************************************************************************************************************************
 DATASETS  * FILE   NREC   LENGTH (MB)   RECORD NAMES
              1      19      111.05       500      610      700      900      950      970     1000      129      960     1100   
                                          VAR    BASINP    GEOM    SYMINP    ZMAT    AOBASIS   BASIS     P2S    ABASIS      S 
                                         1400     1410     1200     1210     1080     1600     1650     1300     1700   
                                           T        V       H0       H01     AOSYM     SMH    MOLCAS    ERIS     OPER   

 PROGRAMS   *        TOTAL       INT
 CPU TIMES  *         1.33      1.25
 REAL TIME  *         2.06 SEC
 DISK USED  *       327.55 MB      
 **********************************************************************************************************************************


 PROGRAM * RHF-SCF (CLOSED SHELL)       Authors: W. Meyer, H.-J. Werner


 NUMBER OF ELECTRONS:       8+    8-
 CONVERGENCE THRESHOLDS:    1.00E-10 (Density)    1.00E-13 (Energy)
 MAX. NUMBER OF ITERATIONS:      500
 INTERPOLATION TYPE:            DIIS
 INTERPOLATION STEPS:              2 (START)      1 (STEP)
 LEVEL SHIFTS:                  0.00 (CLOSED)  0.00 (OPEN) 



 Orbital guess generated from atomic densities. Full valence occupancy:    9   2

 Molecular orbital dump at record        2100.2

 Initial occupancy:   7   1

 ITERATION    DDIFF          GRAD             ENERGY        2-EL.EN.            DIPOLE MOMENTS         DIIS   ORB.
    1      0.000D+00      0.000D+00      -129.78800064    153.916142    0.00000    0.57613   -1.01248    0    start
    2      0.000D+00      0.108D-01      -129.81554229    155.197647    0.00000    0.60917   -0.20276    1    diag
    3      0.119D-01      0.825D-02      -129.83831635    155.301835    0.00000    0.54906   -0.58421    2    diag
    4      0.594D-02      0.127D-02      -129.83910261    155.014263    0.00000    0.55696   -0.52494    3    diag
    5      0.107D-02      0.422D-03      -129.83922969    155.108557    0.00000    0.56260   -0.52777    4    diag
    6      0.451D-03      0.123D-03      -129.83925011    155.092872    0.00000    0.56297   -0.52370    5    diag
    7      0.173D-03      0.605D-04      -129.83925593    155.095452    0.00000    0.56425   -0.52116    6    diag
    8      0.119D-03      0.204D-04      -129.83925655    155.094792    0.00000    0.56428   -0.52018    7    diag
    9      0.441D-04      0.386D-05      -129.83925657    155.094684    0.00000    0.56424   -0.51997    8    diag
   10      0.845D-05      0.880D-06      -129.83925657    155.094664    0.00000    0.56420   -0.51994    9    orth
   11      0.172D-05      0.177D-06      -129.83925657    155.094661    0.00000    0.56420   -0.51994    9    diag
   12      0.338D-06      0.366D-07      -129.83925657    155.094661    0.00000    0.56420   -0.51994    9    diag
   13      0.741D-07      0.926D-08      -129.83925657    155.094660    0.00000    0.56419   -0.51994    9    diag
   14      0.195D-07      0.193D-08      -129.83925657    155.094660    0.00000    0.56419   -0.51993    9    diag
   15      0.388D-08      0.543D-09      -129.83925657    155.094660    0.00000    0.56419   -0.51993    9    diag
   16      0.106D-08      0.150D-09      -129.83925657    155.094660    0.00000    0.56419   -0.51993    9    diag
   17      0.193D-09      0.445D-10      -129.83925657    155.094660    0.00000    0.56419   -0.51993    9    diag
   18      0.565D-10      0.160D-10      -129.83925657    155.094660    0.00000    0.56419   -0.51993    9    diag
   19      0.286D-10      0.354D-11      -129.83925657    155.094660    0.00000    0.56419   -0.51993    0    orth

 Final occupancy:   7   1

 !RHF STATE 1.1 Energy               -129.839256574592
 Nuclear energy                        30.38260443
 One-electron energy                 -237.76919117
 Two-electron energy                   77.54733016
 Virial quotient                       -1.00217645
 !RHF STATE 1.1 Dipole moment           0.00000000     0.56419487    -0.51993489
 Dipole moment /Debye                   0.00000000     1.43394640    -1.32145612

 Orbital energies:

         1.1          2.1          3.1          4.1          5.1          6.1          7.1          8.1          9.1
    -20.656301   -15.715597    -1.533025    -0.991461    -0.746965    -0.666567    -0.429759     0.029287     0.092224

         1.2          2.2          3.2
     -0.597590     0.065659     0.130464

 HOMO      7.1    -0.429759 =     -11.6943eV
 LUMO      8.1     0.029287 =       0.7969eV
 LUMO-HOMO         0.459046 =      12.4913eV


 **********************************************************************************************************************************
 DATASETS  * FILE   NREC   LENGTH (MB)   RECORD NAMES
              1      19      111.05       500      610      700      900      950      970     1000      129      960     1100   
                                          VAR    BASINP    GEOM    SYMINP    ZMAT    AOBASIS   BASIS     P2S    ABASIS      S 
                                         1400     1410     1200     1210     1080     1600     1650     1300     1700   
                                           T        V       H0       H01     AOSYM     SMH    MOLCAS    ERIS     OPER   

              2       4        2.94       700     1000      520     2100   
                                         GEOM     BASIS   MCVARS     RHF  

 PROGRAMS   *        TOTAL        HF       INT
 CPU TIMES  *         2.34      1.01      1.25
 REAL TIME  *         3.33 SEC
 DISK USED  *       327.55 MB      
 **********************************************************************************************************************************


 PROGRAM * CCSD (Closed-shell coupled cluster)     Authors: C. Hampel, H.-J. Werner, 1991, M. Deegan, P.J. Knowles, 1992


 Convergence thresholds:  THRVAR = 1.00D-08  THRDEN = 1.00D-12

 CCSD(T)     terms to be evaluated (factor= 1.000)


 Number of core orbitals:           2 (   2   0 )
 Number of closed-shell orbitals:   6 (   5   1 )
 Number of external orbitals:     107 (  69  38 )

 Molecular orbitals read from record     2100.2  Type=RHF/CANONICAL (state 1.1)

 Number of N-1 electron functions:               6
 Number of N-2 electron functions:              21
 Number of singly external CSFs:               383
 Number of doubly external CSFs:            107206
 Total number of CSFs:                      107590

 Length of J-op  integral file:               0.00 MB
 Length of K-op  integral file:               0.54 MB
 Length of 3-ext integral record:             0.00 MB

 Memory could be reduced to 5.94 Mwords without degradation in triples

 Integral transformation finished. Total CPU:   0.15 sec, npass=  1  Memory used:   1.65 MW

 Reference energy:                   -129.83925657

 MP2 singlet pair energy:              -0.27944179
 MP2 triplet pair energy:              -0.16516114
 MP2 correlation energy:               -0.44460293
 MP2 total energy:                   -130.28385951

 SCS-MP2 correlation energy:           -0.43809708   (PS=  1.200000  PT=  0.333333)
 SCS-MP2 total energy:               -130.27735366

 ITER.      SQ.NORM     CORR.ENERGY   TOTAL ENERGY   ENERGY CHANGE        DEN1      VAR(S)    VAR(P)  DIIS     TIME  TIME/IT
   1      1.12101725    -0.44877735  -130.28803392    -0.00417441     0.01186444  0.31D-02  0.31D-02  1  1     0.29     0.16
   2      1.13213594    -0.44899021  -130.28824679    -0.00021287    -0.01243361  0.10D-03  0.51D-03  2  2     0.44     0.17
   3      1.13862497    -0.44939125  -130.28864783    -0.00040104    -0.00300773  0.54D-04  0.51D-04  3  3     0.59     0.17
   4      1.14149222    -0.44940170  -130.28865828    -0.00001045    -0.00097324  0.42D-05  0.91D-05  4  4     0.76     0.17
   5      1.14253328    -0.44943052  -130.28868710    -0.00002882    -0.00022099  0.12D-05  0.16D-05  5  5     0.92     0.18
   6      1.14287248    -0.44941375  -130.28867032     0.00001677    -0.00004147  0.11D-06  0.38D-06  6  6     1.07     0.18
   7      1.14294689    -0.44941470  -130.28867127    -0.00000095    -0.00000184  0.20D-07  0.89D-07  6  1     1.22     0.18
   8      1.14296867    -0.44941533  -130.28867191    -0.00000063     0.00000135  0.35D-08  0.16D-07  6  2     1.38     0.18
   9      1.14297416    -0.44941487  -130.28867144     0.00000046     0.00000047  0.26D-08  0.18D-08  6  4     1.54     0.18
  10      1.14297646    -0.44941534  -130.28867192    -0.00000047    -0.00000070  0.42D-09  0.21D-09  6  3     1.67     0.18
  11      1.14297597    -0.44941537  -130.28867194    -0.00000002    -0.00000007  0.15D-09  0.32D-10  6  5     1.83     0.18
  12      1.14297493    -0.44941551  -130.28867209    -0.00000015     0.00000033  0.17D-10  0.10D-10  6  6     1.99     0.18
  13      1.14297409    -0.44941555  -130.28867212    -0.00000003     0.00000021  0.62D-11  0.21D-11  6  1     2.15     0.18
  14      1.14297355    -0.44941558  -130.28867215    -0.00000003     0.00000014  0.10D-11  0.64D-12  6  2     2.30     0.18
  15      1.14297333    -0.44941559  -130.28867216    -0.00000001     0.00000003  0.28D-12  0.20D-12  6  4     2.46     0.18
  16      1.14297324    -0.44941559  -130.28867216    -0.00000000     0.00000001  0.54D-13  0.70D-13  6  3     2.61     0.18
  17      1.14297318    -0.44941559  -130.28867216    -0.00000000     0.00000001  0.37D-14  0.17D-13  6  5     2.76     0.17
  18      1.14297318    -0.44941559  -130.28867216     0.00000000    -0.00000000  0.12D-14  0.35D-14  6  6     2.91     0.17
  19      1.14297317    -0.44941559  -130.28867216    -0.00000000     0.00000000  0.97D-15  0.63D-15  6  1     3.07     0.17
  20      1.14297317    -0.44941559  -130.28867216     0.00000000    -0.00000000  0.20D-15  0.11D-15  6  2     3.24     0.17
  21      1.14297317    -0.44941559  -130.28867216     0.00000000    -0.00000000  0.49D-16  0.29D-16  6  3     3.39     0.17
  22      1.14297317    -0.44941559  -130.28867216     0.00000000     0.00000000  0.57D-17  0.26D-17  6  4     3.53     0.17
  23      1.14297317    -0.44941559  -130.28867216     0.00000000    -0.00000000  0.21D-17  0.54D-18  6  5     3.69     0.17
  24      1.14297317    -0.44941559  -130.28867216     0.00000000     0.00000000  0.14D-18  0.47D-19  6  2     3.84     0.17
  25      1.14297317    -0.44941559  -130.28867216    -0.00000000    -0.00000000  0.20D-19  0.12D-19  6  6     4.00     0.17
  26      1.14297317    -0.44941559  -130.28867216     0.00000000    -0.00000000  0.32D-20  0.20D-20  6  1     4.14     0.17
  27      1.14297317    -0.44941559  -130.28867216    -0.00000000    -0.00000000  0.46D-21  0.46D-21  6  4     4.29     0.17

 Norm of t1 vector:      0.07825271      S-energy:     0.00000000      T1 diagnostic:  0.01597327
                                                                       D1 diagnostic:  0.04172518

 Doubles amplitudes (print threshold =  0.500E-01):

         I         J         SYM. A    SYM. B    A         B      T(IJ, AB)

         6         6         2         2         1         1     -0.10784803


 Total CPU time for triples:      1.34 sec


 RESULTS
 =======

  Reference energy                   -129.839256574592
  CCSD singlet pair energy             -0.308145315013
  CCSD triplet pair energy             -0.141270274307
  CCSD correlation energy              -0.449415589320

  Triples (T) contribution             -0.020898973934
  Total correlation energy             -0.470314563254

  CCSD total energy                  -130.288672163912
  CCSD[T] energy                     -130.310633369144
  CCSD-T energy                      -130.309166301078
 !CCSD(T) total energy               -130.309571137846

 Timing summary (sec):

 STEP                 CPU(USER)    SYS     CPU(TOT)    WALL
 Transformation          0.15      0.03      0.18      0.17
 CCSD iterations         4.14      0.57      4.71      4.72
 Triples                 1.34      0.05      1.39      1.39

 Program statistics:

 Available memory in ccsd:               994999756
 Min. memory needed in ccsd:                389120
 Max. memory used in ccsd:                  473124
 Max. memory used in cckext:                599488 (27 integral passes)



 **********************************************************************************************************************************
 DATASETS  * FILE   NREC   LENGTH (MB)   RECORD NAMES
              1      20      128.20       500      610      700      900      950      970     1000      129      960     1100   
                                          VAR    BASINP    GEOM    SYMINP    ZMAT    AOBASIS   BASIS     P2S    ABASIS      S 
                                         1400     1410     1200     1210     1080     1600     1650     1300     1700     1380   
                                           T        V       H0       H01     AOSYM     SMH    MOLCAS    ERIS     OPER     JKOP   

              2       4        2.94       700     1000      520     2100   
                                         GEOM     BASIS   MCVARS     RHF  

 PROGRAMS   *        TOTAL   CCSD(T)        HF       INT
 CPU TIMES  *         8.01      5.66      1.01      1.25
 REAL TIME  *        10.12 SEC
 DISK USED  *       327.55 MB      
 **********************************************************************************************************************************

 CCSD(T)/aug-cc-pVTZ energy=   -130.309571137846

        CCSD(T)         HF-SCF  
   -130.30957114   -129.83925657
 **********************************************************************************************************************************
 Molpro calculation terminated
 Variable memory released
