
 Primary working directories    : /tmp/r2666/234976.maple
 Secondary working directories  : /tmp/r2666/234976.maple
 Wavefunction directory         : /ddn/home4/r2666/wfu/
 Main file repository           : /tmp/r2666/234976.maple/

 SHA1      : d5ffa45e93fdbca01ffc919aa182cfdae0147319
 NAME      : 2015.1.35
 ARCHNAME  : linux/x86_64
 FC        : /opt/intel/composer_xe_2015.1.133/bin/intel64/ifort
 BLASLIB   : -Wl,-_start-group /opt/intel/mkl/lib/intel64/libmkl_intel_ilp64.a /opt/intel/mkl/lib/intel64/libmkl_intel_thread.a /opt/intel/mkl/lib/intel64/libmkl_core.a -Wl,-_end-group
 id        : olemiss

 Nodes     nprocs
 cn092        1

 Using customized tuning parameters: mindgm=1; mindgv=20; mindgc=4; mindgr=1; noblas=0; minvec=7
 default implementation of scratch files=df  

 ***,hno CCSD(T)/TZ-F12 QFF
 memory, 995, m;
 gthresh,energy=1.d-12,zero=1.d-22,oneint=1.d-22,twoint=1.d-22;
 gthresh,optgrad=1.d-8,optstep=1.d-8;
 nocompress;
 geomtyp=xyz
 bohr
 geometry={
 3
         90        90
 N        0.0000000000       -0.1618367992       -1.1320753088
 H        0.0000000000        1.6691142545       -1.9306016718
 O        0.0000000000        0.0344903347        1.1120873895
 }
 
 basis=avtz
   {hf,maxit=500;accu,20;}
 {ccsd(t),nocheck,maxit=250;orbital,IGNORE_ERROR;}

 Variables initialized (889), CPU time= 0.01 sec
 Commands  initialized (702), CPU time= 0.02 sec, 572 directives.
 Default parameters read. Elapsed time= 0.04 sec

 Checking input...
 Passed
1


                                         ***  PROGRAM SYSTEM MOLPRO  ***
                                       Copyright, TTI GmbH Stuttgart, 2015
                                    Version 2015.1 linked Jul  9 2018 13:16:40


 **********************************************************************************************************************************
 LABEL *   hno CCSD(T)/TZ-F12 QFF                                                        
  64 bit serial version                                                                  DATE: 08-Feb-20          TIME: 17:56:42  
 **********************************************************************************************************************************

 SHA1:             d5ffa45e93fdbca01ffc919aa182cfdae0147319
 **********************************************************************************************************************************

 THRESHOLDS:

 ZERO    =  1.00D-22  ONEINT  =  1.00D-22  TWOINT  =  1.00D-22  PREFAC  =  1.00D-14  LOCALI  =  1.00D-09  EORDER  =  1.00D-04
 ENERGY  =  1.00D-12  ETEST   =  0.00D+00  EDENS   =  0.00D+00  THRDEDEF=  1.00D-06  GRADIENT=  1.00D-02  STEP    =  1.00D-03
 ORBITAL =  1.00D-05  CIVEC   =  1.00D-05  COEFF   =  1.00D-04  PRINTCI =  5.00D-02  PUNCHCI =  9.90D+01  OPTGRAD =  3.00D-04
 OPTENERG=  1.00D-06  OPTSTEP =  3.00D-04  THRGRAD =  1.00D-10  COMPRESS=  1.00D-11  VARMIN  =  1.00D-07  VARMAX  =  1.00D-03
 THRDOUB =  0.00D+00  THRDIV  =  1.00D-05  THRRED  =  1.00D-07  THRPSP  =  1.00D+00  THRDC   =  1.00D-10  THRCS   =  1.00D-10
 THRNRM  =  1.00D-08  THREQ   =  0.00D+00  THRDE   =  1.00D+00  THRREF  =  1.00D-05  SPARFAC =  1.00D+00  THRDLP  =  1.00D-07
 THRDIA  =  1.00D-10  THRDLS  =  1.00D-07  THRGPS  =  0.00D+00  THRKEX  =  0.00D+00  THRDIS  =  2.00D-01  THRVAR  =  1.00D-10
 THRLOC  =  1.00D-06  THRGAP  =  1.00D-06  THRLOCT = -1.00D+00  THRGAPT = -1.00D+00  THRORB  =  1.00D-06  THRMLTP =  0.00D+00
 THRCPQCI=  1.00D-10  KEXTA   =  0.00D+00  THRCOARS=  0.00D+00  SYMTOL  =  1.00D-06  GRADTOL =  1.00D-06  THROVL  =  1.00D-08
 THRORTH =  1.00D-08  GRID    =  1.00D-06  GRIDMAX =  1.00D-03  DTMAX   =  0.00D+00  THROCCDE=  1.00D-01  THROCCDE=  1.00D-01



 THRESHOLDS:

 ZERO    =  1.00D-22  ONEINT  =  1.00D-22  TWOINT  =  1.00D-22  PREFAC  =  1.00D-14  LOCALI  =  1.00D-09  EORDER  =  1.00D-04
 ENERGY  =  1.00D-12  ETEST   =  0.00D+00  EDENS   =  0.00D+00  THRDEDEF=  1.00D-06  GRADIENT=  1.00D-02  STEP    =  1.00D-03
 ORBITAL =  1.00D-05  CIVEC   =  1.00D-05  COEFF   =  1.00D-04  PRINTCI =  5.00D-02  PUNCHCI =  9.90D+01  OPTGRAD =  1.00D-08
 OPTENERG=  1.00D-06  OPTSTEP =  1.00D-08  THRGRAD =  1.00D-10  COMPRESS=  1.00D-11  VARMIN  =  1.00D-07  VARMAX  =  1.00D-03
 THRDOUB =  0.00D+00  THRDIV  =  1.00D-05  THRRED  =  1.00D-07  THRPSP  =  1.00D+00  THRDC   =  1.00D-10  THRCS   =  1.00D-10
 THRNRM  =  1.00D-08  THREQ   =  0.00D+00  THRDE   =  1.00D+00  THRREF  =  1.00D-05  SPARFAC =  1.00D+00  THRDLP  =  1.00D-07
 THRDIA  =  1.00D-10  THRDLS  =  1.00D-07  THRGPS  =  0.00D+00  THRKEX  =  0.00D+00  THRDIS  =  2.00D-01  THRVAR  =  1.00D-10
 THRLOC  =  1.00D-06  THRGAP  =  1.00D-06  THRLOCT = -1.00D+00  THRGAPT = -1.00D+00  THRORB  =  1.00D-06  THRMLTP =  0.00D+00
 THRCPQCI=  1.00D-10  KEXTA   =  0.00D+00  THRCOARS=  0.00D+00  SYMTOL  =  1.00D-06  GRADTOL =  1.00D-06  THROVL  =  1.00D-08
 THRORTH =  1.00D-08  GRID    =  1.00D-06  GRIDMAX =  1.00D-03  DTMAX   =  0.00D+00  THROCCDE=  1.00D-01  THROCCDE=  1.00D-01



 Input parameters for SORTINT:

 COMPRESS =    0.000000
 C_FINAL  =    1.000000
 DEBUG    =   -1.000000
 C_SORT1  =    0.000000
 C_SEWARD =    0.000000
 THRESH   =    0.000000
 IO       =  molpro                                                          
 SPRI     =    0.000000
 SETTING GEOMTYP        =    XYZ
 ZUNIT=BOHR
 

 Variable memory set to  995000000 words,  buffer space   230000 words

 SETTING BASIS          =    AVTZ


 Recomputing integrals since basis changed


 Using spherical harmonics

 Library entry N      S aug-cc-pVTZ          selected for orbital group  1
 Library entry N      P aug-cc-pVTZ          selected for orbital group  1
 Library entry N      D aug-cc-pVTZ          selected for orbital group  1
 Library entry N      F aug-cc-pVTZ          selected for orbital group  1
 Library entry H      S aug-cc-pVTZ          selected for orbital group  2
 Library entry H      P aug-cc-pVTZ          selected for orbital group  2
 Library entry H      D aug-cc-pVTZ          selected for orbital group  2
 Library entry O      S aug-cc-pVTZ          selected for orbital group  3
 Library entry O      P aug-cc-pVTZ          selected for orbital group  3
 Library entry O      D aug-cc-pVTZ          selected for orbital group  3
 Library entry O      F aug-cc-pVTZ          selected for orbital group  3


 PROGRAM * SEWARD (Integral evaluation for generally contracted gaussian basis sets)     Author: Roland Lindh, 1990

 Geometry written to block  1 of record 700


 Point group  Cs  



 ATOMIC COORDINATES

 NR  ATOM    CHARGE       X              Y              Z

   1  N       7.00    0.000000000   -0.161836799   -1.132075309
   2  H       1.00    0.000000000    1.669114254   -1.930601672
   3  O       8.00    0.000000000    0.034490335    1.112087390

 Bond lengths in Bohr (Angstrom)

 1-2  1.997504972  1-3  2.252734019
     ( 1.057034110)     ( 1.192095505)

 Bond angles

  2-1-3  108.56358938

 NUCLEAR CHARGE:                   16
 NUMBER OF PRIMITIVE AOS:         161
 NUMBER OF SYMMETRY AOS:          141
 NUMBER OF CONTRACTIONS:          115   (  76A'  +  39A"  )
 NUMBER OF CORE ORBITALS:           2   (   2A'  +   0A"  )
 NUMBER OF VALENCE ORBITALS:        9   (   7A'  +   2A"  )


 NUCLEAR REPULSION ENERGY   30.67922547

 Eigenvalues of metric

         1 0.228E-03 0.494E-03 0.178E-02 0.209E-02 0.241E-02 0.335E-02 0.430E-02 0.511E-02
         2 0.377E-02 0.101E-01 0.255E-01 0.368E-01 0.507E-01 0.620E-01 0.791E-01 0.119E+00


 Contracted 2-electron integrals neglected if value below      1.0D-22

       10790064. INTEGRALS WRITTEN OUT IN    2635 BLOCKS ON RECORD 1290 OF FILE 1


 NUMBER OF SORTED TWO-ELECTRON INTEGRALS:   11433631.     BUFFER LENGTH:  32768
 NUMBER OF SEGMENTS:   1  SEGMENT LENGTH:   11433631      RECORD LENGTH: 524288

 Memory used in sort:      11.99 MW

 SORT1 READ    10790064. AND WROTE    10943632. INTEGRALS IN     32 RECORDS. CPU TIME:     0.17 SEC, REAL TIME:     0.23 SEC
 SORT2 READ    10943632. AND WROTE    11433631. INTEGRALS IN      1 RECORDS. CPU TIME:     0.17 SEC, REAL TIME:     0.22 SEC

 FILE SIZES:   FILE 1:   193.0 MBYTE,  FILE 4:   134.3 MBYTE,   TOTAL:    327.2 MBYTE

 OPERATOR DM      FOR CENTER  0  COORDINATES:    0.000000    0.000000    0.000000


 **********************************************************************************************************************************
 DATASETS  * FILE   NREC   LENGTH (MB)   RECORD NAMES
              1      19      111.05       500      610      700      900      950      970     1000      129      960     1100   
                                          VAR    BASINP    GEOM    SYMINP    ZMAT    AOBASIS   BASIS     P2S    ABASIS      S 
                                         1400     1410     1200     1210     1080     1600     1650     1300     1700   
                                           T        V       H0       H01     AOSYM     SMH    MOLCAS    ERIS     OPER   

 PROGRAMS   *        TOTAL       INT
 CPU TIMES  *         1.33      1.23
 REAL TIME  *         2.08 SEC
 DISK USED  *       327.55 MB      
 **********************************************************************************************************************************


 PROGRAM * RHF-SCF (CLOSED SHELL)       Authors: W. Meyer, H.-J. Werner


 NUMBER OF ELECTRONS:       8+    8-
 CONVERGENCE THRESHOLDS:    1.00E-10 (Density)    1.00E-13 (Energy)
 MAX. NUMBER OF ITERATIONS:      500
 INTERPOLATION TYPE:            DIIS
 INTERPOLATION STEPS:              2 (START)      1 (STEP)
 LEVEL SHIFTS:                  0.00 (CLOSED)  0.00 (OPEN) 



 Orbital guess generated from atomic densities. Full valence occupancy:    9   2

 Molecular orbital dump at record        2100.2

 Initial occupancy:   7   1

 ITERATION    DDIFF          GRAD             ENERGY        2-EL.EN.            DIPOLE MOMENTS         DIIS   ORB.
    1      0.000D+00      0.000D+00      -129.79204475    154.443730    0.00000    0.58426   -0.97084    0    start
    2      0.000D+00      0.106D-01      -129.81989057    155.751205    0.00000    0.59972   -0.21496    1    diag
    3      0.115D-01      0.782D-02      -129.84021348    155.825192    0.00000    0.54911   -0.56908    2    diag
    4      0.568D-02      0.125D-02      -129.84097175    155.548576    0.00000    0.55674   -0.51173    3    diag
    5      0.105D-02      0.412D-03      -129.84109191    155.641636    0.00000    0.56244   -0.51491    4    diag
    6      0.438D-03      0.119D-03      -129.84111103    155.626257    0.00000    0.56291   -0.51112    5    diag
    7      0.168D-03      0.580D-04      -129.84111629    155.628940    0.00000    0.56422   -0.50880    6    diag
    8      0.114D-03      0.188D-04      -129.84111678    155.628338    0.00000    0.56426   -0.50792    7    diag
    9      0.395D-04      0.351D-05      -129.84111680    155.628240    0.00000    0.56422   -0.50773    8    diag
   10      0.740D-05      0.829D-06      -129.84111681    155.628221    0.00000    0.56419   -0.50770    9    orth
   11      0.163D-05      0.170D-06      -129.84111681    155.628217    0.00000    0.56418   -0.50770    9    diag
   12      0.330D-06      0.343D-07      -129.84111681    155.628217    0.00000    0.56418   -0.50770    9    diag
   13      0.717D-07      0.845D-08      -129.84111681    155.628217    0.00000    0.56418   -0.50770    9    diag
   14      0.182D-07      0.180D-08      -129.84111681    155.628217    0.00000    0.56418   -0.50770    9    diag
   15      0.379D-08      0.522D-09      -129.84111681    155.628217    0.00000    0.56418   -0.50770    9    diag
   16      0.103D-08      0.151D-09      -129.84111681    155.628217    0.00000    0.56418   -0.50770    9    diag
   17      0.198D-09      0.445D-10      -129.84111681    155.628217    0.00000    0.56418   -0.50770    9    diag
   18      0.581D-10      0.155D-10      -129.84111681    155.628217    0.00000    0.56418   -0.50770    9    diag
   19      0.276D-10      0.352D-11      -129.84111681    155.628217    0.00000    0.56418   -0.50770    9    fixocc
   20      0.699D-11      0.544D-12      -129.84111681    155.628217    0.00000    0.56418   -0.50770    0    orth

 Final occupancy:   7   1

 !RHF STATE 1.1 Energy               -129.841116805547
 Nuclear energy                        30.67922547
 One-electron energy                 -238.33445068
 Two-electron energy                   77.81410841
 Virial quotient                       -1.00172630
 !RHF STATE 1.1 Dipole moment           0.00000000     0.56418107    -0.50769514
 Dipole moment /Debye                   0.00000000     1.43391133    -1.29034780

 Orbital energies:

         1.1          2.1          3.1          4.1          5.1          6.1          7.1          8.1          9.1
    -20.655242   -15.712366    -1.543780    -0.990327    -0.751679    -0.670801    -0.424962     0.029378     0.092199

         1.2          2.2          3.2
     -0.603960     0.069181     0.130747

 HOMO      7.1    -0.424962 =     -11.5638eV
 LUMO      8.1     0.029378 =       0.7994eV
 LUMO-HOMO         0.454339 =      12.3632eV


 **********************************************************************************************************************************
 DATASETS  * FILE   NREC   LENGTH (MB)   RECORD NAMES
              1      19      111.05       500      610      700      900      950      970     1000      129      960     1100   
                                          VAR    BASINP    GEOM    SYMINP    ZMAT    AOBASIS   BASIS     P2S    ABASIS      S 
                                         1400     1410     1200     1210     1080     1600     1650     1300     1700   
                                           T        V       H0       H01     AOSYM     SMH    MOLCAS    ERIS     OPER   

              2       4        2.94       700     1000      520     2100   
                                         GEOM     BASIS   MCVARS     RHF  

 PROGRAMS   *        TOTAL        HF       INT
 CPU TIMES  *         2.35      1.02      1.23
 REAL TIME  *         3.39 SEC
 DISK USED  *       327.55 MB      
 **********************************************************************************************************************************


 PROGRAM * CCSD (Closed-shell coupled cluster)     Authors: C. Hampel, H.-J. Werner, 1991, M. Deegan, P.J. Knowles, 1992


 Convergence thresholds:  THRVAR = 1.00D-08  THRDEN = 1.00D-12

 CCSD(T)     terms to be evaluated (factor= 1.000)


 Number of core orbitals:           2 (   2   0 )
 Number of closed-shell orbitals:   6 (   5   1 )
 Number of external orbitals:     107 (  69  38 )

 Molecular orbitals read from record     2100.2  Type=RHF/CANONICAL (state 1.1)

 Number of N-1 electron functions:               6
 Number of N-2 electron functions:              21
 Number of singly external CSFs:               383
 Number of doubly external CSFs:            107206
 Total number of CSFs:                      107590

 Length of J-op  integral file:               0.00 MB
 Length of K-op  integral file:               0.54 MB
 Length of 3-ext integral record:             0.00 MB

 Memory could be reduced to 5.94 Mwords without degradation in triples

 Integral transformation finished. Total CPU:   0.14 sec, npass=  1  Memory used:   1.65 MW

 Reference energy:                   -129.84111681

 MP2 singlet pair energy:              -0.27790987
 MP2 triplet pair energy:              -0.16415959
 MP2 correlation energy:               -0.44206945
 MP2 total energy:                   -130.28318626

 SCS-MP2 correlation energy:           -0.43563558   (PS=  1.200000  PT=  0.333333)
 SCS-MP2 total energy:               -130.27675239

 ITER.      SQ.NORM     CORR.ENERGY   TOTAL ENERGY   ENERGY CHANGE        DEN1      VAR(S)    VAR(P)  DIIS     TIME  TIME/IT
   1      1.11941608    -0.44676401  -130.28788081    -0.00469455     0.01077959  0.30D-02  0.30D-02  1  1     0.30     0.16
   2      1.13019647    -0.44707277  -130.28818957    -0.00030876    -0.01209926  0.93D-04  0.49D-03  2  2     0.44     0.16
   3      1.13639748    -0.44745144  -130.28856824    -0.00037867    -0.00290872  0.50D-04  0.48D-04  3  3     0.59     0.17
   4      1.13911113    -0.44746089  -130.28857769    -0.00000945    -0.00092976  0.38D-05  0.87D-05  4  4     0.75     0.17
   5      1.14008429    -0.44748728  -130.28860408    -0.00002639    -0.00020673  0.11D-05  0.16D-05  5  5     0.90     0.17
   6      1.14040945    -0.44747216  -130.28858897     0.00001511    -0.00003906  0.10D-06  0.39D-06  6  6     1.03     0.17
   7      1.14048576    -0.44747293  -130.28858974    -0.00000077    -0.00000239  0.21D-07  0.88D-07  6  1     1.17     0.17
   8      1.14050763    -0.44747374  -130.28859055    -0.00000081     0.00000132  0.38D-08  0.15D-07  6  2     1.31     0.17
   9      1.14051299    -0.44747332  -130.28859013     0.00000042     0.00000044  0.25D-08  0.16D-08  6  4     1.46     0.17
  10      1.14051509    -0.44747378  -130.28859058    -0.00000046    -0.00000065  0.40D-09  0.18D-09  6  3     1.62     0.17
  11      1.14051454    -0.44747381  -130.28859061    -0.00000003    -0.00000004  0.14D-09  0.29D-10  6  5     1.78     0.17
  12      1.14051352    -0.44747394  -130.28859075    -0.00000014     0.00000032  0.17D-10  0.95D-11  6  6     1.93     0.17
  13      1.14051272    -0.44747398  -130.28859078    -0.00000003     0.00000020  0.59D-11  0.19D-11  6  1     2.08     0.17
  14      1.14051222    -0.44747400  -130.28859081    -0.00000003     0.00000013  0.99D-12  0.59D-12  6  2     2.23     0.17
  15      1.14051202    -0.44747401  -130.28859081    -0.00000001     0.00000003  0.27D-12  0.19D-12  6  4     2.38     0.17
  16      1.14051191    -0.44747401  -130.28859082    -0.00000000     0.00000001  0.34D-13  0.24D-13  6  5     2.52     0.17
  17      1.14051187    -0.44747401  -130.28859082    -0.00000000     0.00000000  0.67D-15  0.17D-14  6  3     2.66     0.17
  18      1.14051187    -0.44747401  -130.28859082     0.00000000    -0.00000000  0.24D-15  0.24D-15  6  6     2.82     0.17
  19      1.14051187    -0.44747401  -130.28859082     0.00000000    -0.00000000  0.71D-16  0.36D-16  6  1     2.97     0.17
  20      1.14051187    -0.44747401  -130.28859082     0.00000000    -0.00000000  0.19D-16  0.65D-17  6  2     3.10     0.17
  21      1.14051187    -0.44747401  -130.28859082     0.00000000    -0.00000000  0.29D-17  0.18D-17  6  5     3.26     0.17
  22      1.14051187    -0.44747401  -130.28859082    -0.00000000     0.00000000  0.34D-18  0.20D-18  6  4     3.42     0.17
  23      1.14051187    -0.44747401  -130.28859082     0.00000000     0.00000000  0.12D-18  0.43D-19  6  3     3.58     0.17
  24      1.14051187    -0.44747401  -130.28859082     0.00000000    -0.00000000  0.12D-19  0.61D-20  6  2     3.74     0.17
  25      1.14051187    -0.44747401  -130.28859082     0.00000000    -0.00000000  0.19D-20  0.94D-21  6  6     3.90     0.17
  26      1.14051187    -0.44747401  -130.28859082     0.00000000    -0.00000000  0.45D-21  0.22D-21  6  1     4.05     0.17

 Norm of t1 vector:      0.07626781      S-energy:     0.00000000      T1 diagnostic:  0.01556810
                                                                       D1 diagnostic:  0.04005254

 Doubles amplitudes (print threshold =  0.500E-01):

         I         J         SYM. A    SYM. B    A         B      T(IJ, AB)

         6         6         2         2         1         1     -0.10170434


 Total CPU time for triples:      1.22 sec


 RESULTS
 =======

  Reference energy                   -129.841116805547
  CCSD singlet pair energy             -0.306473802006
  CCSD triplet pair energy             -0.141000209994
  CCSD correlation energy              -0.447474012000

  Triples (T) contribution             -0.020467814618
  Total correlation energy             -0.467941826618

  CCSD total energy                  -130.288590817547
  CCSD[T] energy                     -130.310066523167
  CCSD-T energy                      -130.308667794188
 !CCSD(T) total energy               -130.309058632165

 Timing summary (sec):

 STEP                 CPU(USER)    SYS     CPU(TOT)    WALL
 Transformation          0.16      0.03      0.19      0.18
 CCSD iterations         3.90      0.53      4.43      4.43
 Triples                 1.22      0.02      1.24      1.25

 Program statistics:

 Available memory in ccsd:               994999756
 Min. memory needed in ccsd:                389120
 Max. memory used in ccsd:                  473124
 Max. memory used in cckext:                599488 (26 integral passes)



 **********************************************************************************************************************************
 DATASETS  * FILE   NREC   LENGTH (MB)   RECORD NAMES
              1      20      128.20       500      610      700      900      950      970     1000      129      960     1100   
                                          VAR    BASINP    GEOM    SYMINP    ZMAT    AOBASIS   BASIS     P2S    ABASIS      S 
                                         1400     1410     1200     1210     1080     1600     1650     1300     1700     1380   
                                           T        V       H0       H01     AOSYM     SMH    MOLCAS    ERIS     OPER     JKOP   

              2       4        2.94       700     1000      520     2100   
                                         GEOM     BASIS   MCVARS     RHF  

 PROGRAMS   *        TOTAL   CCSD(T)        HF       INT
 CPU TIMES  *         7.65      5.30      1.02      1.23
 REAL TIME  *         9.30 SEC
 DISK USED  *       327.55 MB      
 **********************************************************************************************************************************

 CCSD(T)/aug-cc-pVTZ energy=   -130.309058632165

        CCSD(T)         HF-SCF  
   -130.30905863   -129.84111681
 **********************************************************************************************************************************
 Molpro calculation terminated
 Variable memory released
