
 Primary working directories    : /tmp/r2666/234978.maple
 Secondary working directories  : /tmp/r2666/234978.maple
 Wavefunction directory         : /ddn/home4/r2666/wfu/
 Main file repository           : /tmp/r2666/234978.maple/

 SHA1      : d5ffa45e93fdbca01ffc919aa182cfdae0147319
 NAME      : 2015.1.35
 ARCHNAME  : linux/x86_64
 FC        : /opt/intel/composer_xe_2015.1.133/bin/intel64/ifort
 BLASLIB   : -Wl,-_start-group /opt/intel/mkl/lib/intel64/libmkl_intel_ilp64.a /opt/intel/mkl/lib/intel64/libmkl_intel_thread.a /opt/intel/mkl/lib/intel64/libmkl_core.a -Wl,-_end-group
 id        : olemiss

 Nodes     nprocs
 cn031        1

 Using customized tuning parameters: mindgm=1; mindgv=20; mindgc=4; mindgr=1; noblas=0; minvec=7
 default implementation of scratch files=df  

 ***,hno CCSD(T)/TZ-F12 QFF
 memory, 995, m;
 gthresh,energy=1.d-12,zero=1.d-22,oneint=1.d-22,twoint=1.d-22;
 gthresh,optgrad=1.d-8,optstep=1.d-8;
 nocompress;
 geomtyp=xyz
 bohr
 geometry={
 3
         92        92
 N        0.0000000000       -0.1676926025       -1.1434891398
 H        0.0000000000        1.6702129586       -1.9258760399
 O        0.0000000000        0.0392474339        1.1187755888
 }
 
 basis=avtz
   {hf,maxit=500;accu,20;}
 {ccsd(t),nocheck,maxit=250;orbital,IGNORE_ERROR;}

 Variables initialized (889), CPU time= 0.00 sec
 Commands  initialized (702), CPU time= 0.01 sec, 572 directives.
 Default parameters read. Elapsed time= 0.05 sec

 Checking input...
 Passed
1


                                         ***  PROGRAM SYSTEM MOLPRO  ***
                                       Copyright, TTI GmbH Stuttgart, 2015
                                    Version 2015.1 linked Jul  9 2018 13:16:40


 **********************************************************************************************************************************
 LABEL *   hno CCSD(T)/TZ-F12 QFF                                                        
  64 bit serial version                                                                  DATE: 08-Feb-20          TIME: 17:56:41  
 **********************************************************************************************************************************

 SHA1:             d5ffa45e93fdbca01ffc919aa182cfdae0147319
 **********************************************************************************************************************************

 THRESHOLDS:

 ZERO    =  1.00D-22  ONEINT  =  1.00D-22  TWOINT  =  1.00D-22  PREFAC  =  1.00D-14  LOCALI  =  1.00D-09  EORDER  =  1.00D-04
 ENERGY  =  1.00D-12  ETEST   =  0.00D+00  EDENS   =  0.00D+00  THRDEDEF=  1.00D-06  GRADIENT=  1.00D-02  STEP    =  1.00D-03
 ORBITAL =  1.00D-05  CIVEC   =  1.00D-05  COEFF   =  1.00D-04  PRINTCI =  5.00D-02  PUNCHCI =  9.90D+01  OPTGRAD =  3.00D-04
 OPTENERG=  1.00D-06  OPTSTEP =  3.00D-04  THRGRAD =  1.00D-10  COMPRESS=  1.00D-11  VARMIN  =  1.00D-07  VARMAX  =  1.00D-03
 THRDOUB =  0.00D+00  THRDIV  =  1.00D-05  THRRED  =  1.00D-07  THRPSP  =  1.00D+00  THRDC   =  1.00D-10  THRCS   =  1.00D-10
 THRNRM  =  1.00D-08  THREQ   =  0.00D+00  THRDE   =  1.00D+00  THRREF  =  1.00D-05  SPARFAC =  1.00D+00  THRDLP  =  1.00D-07
 THRDIA  =  1.00D-10  THRDLS  =  1.00D-07  THRGPS  =  0.00D+00  THRKEX  =  0.00D+00  THRDIS  =  2.00D-01  THRVAR  =  1.00D-10
 THRLOC  =  1.00D-06  THRGAP  =  1.00D-06  THRLOCT = -1.00D+00  THRGAPT = -1.00D+00  THRORB  =  1.00D-06  THRMLTP =  0.00D+00
 THRCPQCI=  1.00D-10  KEXTA   =  0.00D+00  THRCOARS=  0.00D+00  SYMTOL  =  1.00D-06  GRADTOL =  1.00D-06  THROVL  =  1.00D-08
 THRORTH =  1.00D-08  GRID    =  1.00D-06  GRIDMAX =  1.00D-03  DTMAX   =  0.00D+00  THROCCDE=  1.00D-01  THROCCDE=  1.00D-01



 THRESHOLDS:

 ZERO    =  1.00D-22  ONEINT  =  1.00D-22  TWOINT  =  1.00D-22  PREFAC  =  1.00D-14  LOCALI  =  1.00D-09  EORDER  =  1.00D-04
 ENERGY  =  1.00D-12  ETEST   =  0.00D+00  EDENS   =  0.00D+00  THRDEDEF=  1.00D-06  GRADIENT=  1.00D-02  STEP    =  1.00D-03
 ORBITAL =  1.00D-05  CIVEC   =  1.00D-05  COEFF   =  1.00D-04  PRINTCI =  5.00D-02  PUNCHCI =  9.90D+01  OPTGRAD =  1.00D-08
 OPTENERG=  1.00D-06  OPTSTEP =  1.00D-08  THRGRAD =  1.00D-10  COMPRESS=  1.00D-11  VARMIN  =  1.00D-07  VARMAX  =  1.00D-03
 THRDOUB =  0.00D+00  THRDIV  =  1.00D-05  THRRED  =  1.00D-07  THRPSP  =  1.00D+00  THRDC   =  1.00D-10  THRCS   =  1.00D-10
 THRNRM  =  1.00D-08  THREQ   =  0.00D+00  THRDE   =  1.00D+00  THRREF  =  1.00D-05  SPARFAC =  1.00D+00  THRDLP  =  1.00D-07
 THRDIA  =  1.00D-10  THRDLS  =  1.00D-07  THRGPS  =  0.00D+00  THRKEX  =  0.00D+00  THRDIS  =  2.00D-01  THRVAR  =  1.00D-10
 THRLOC  =  1.00D-06  THRGAP  =  1.00D-06  THRLOCT = -1.00D+00  THRGAPT = -1.00D+00  THRORB  =  1.00D-06  THRMLTP =  0.00D+00
 THRCPQCI=  1.00D-10  KEXTA   =  0.00D+00  THRCOARS=  0.00D+00  SYMTOL  =  1.00D-06  GRADTOL =  1.00D-06  THROVL  =  1.00D-08
 THRORTH =  1.00D-08  GRID    =  1.00D-06  GRIDMAX =  1.00D-03  DTMAX   =  0.00D+00  THROCCDE=  1.00D-01  THROCCDE=  1.00D-01



 Input parameters for SORTINT:

 COMPRESS =    0.000000
 C_FINAL  =    1.000000
 DEBUG    =   -1.000000
 C_SORT1  =    0.000000
 C_SEWARD =    0.000000
 THRESH   =    0.000000
 IO       =  molpro                                                          
 SPRI     =    0.000000
 SETTING GEOMTYP        =    XYZ
 ZUNIT=BOHR
 

 Variable memory set to  995000000 words,  buffer space   230000 words

 SETTING BASIS          =    AVTZ


 Recomputing integrals since basis changed


 Using spherical harmonics

 Library entry N      S aug-cc-pVTZ          selected for orbital group  1
 Library entry N      P aug-cc-pVTZ          selected for orbital group  1
 Library entry N      D aug-cc-pVTZ          selected for orbital group  1
 Library entry N      F aug-cc-pVTZ          selected for orbital group  1
 Library entry H      S aug-cc-pVTZ          selected for orbital group  2
 Library entry H      P aug-cc-pVTZ          selected for orbital group  2
 Library entry H      D aug-cc-pVTZ          selected for orbital group  2
 Library entry O      S aug-cc-pVTZ          selected for orbital group  3
 Library entry O      P aug-cc-pVTZ          selected for orbital group  3
 Library entry O      D aug-cc-pVTZ          selected for orbital group  3
 Library entry O      F aug-cc-pVTZ          selected for orbital group  3


 PROGRAM * SEWARD (Integral evaluation for generally contracted gaussian basis sets)     Author: Roland Lindh, 1990

 Geometry written to block  1 of record 700


 Point group  Cs  



 ATOMIC COORDINATES

 NR  ATOM    CHARGE       X              Y              Z

   1  N       7.00    0.000000000   -0.167692603   -1.143489140
   2  H       1.00    0.000000000    1.670212959   -1.925876040
   3  O       8.00    0.000000000    0.039247434    1.118775589

 Bond lengths in Bohr (Angstrom)

 1-2  1.997504972  1-3  2.271709902
     ( 1.057034110)     ( 1.202137110)

 Bond angles

  2-1-3  107.83263395

 NUCLEAR CHARGE:                   16
 NUMBER OF PRIMITIVE AOS:         161
 NUMBER OF SYMMETRY AOS:          141
 NUMBER OF CONTRACTIONS:          115   (  76A'  +  39A"  )
 NUMBER OF CORE ORBITALS:           2   (   2A'  +   0A"  )
 NUMBER OF VALENCE ORBITALS:        9   (   7A'  +   2A"  )


 NUCLEAR REPULSION ENERGY   30.47157771

 Eigenvalues of metric

         1 0.231E-03 0.501E-03 0.179E-02 0.212E-02 0.249E-02 0.350E-02 0.431E-02 0.518E-02
         2 0.389E-02 0.102E-01 0.260E-01 0.372E-01 0.512E-01 0.623E-01 0.812E-01 0.119E+00


 Contracted 2-electron integrals neglected if value below      1.0D-22

       10790064. INTEGRALS WRITTEN OUT IN    2635 BLOCKS ON RECORD 1290 OF FILE 1


 NUMBER OF SORTED TWO-ELECTRON INTEGRALS:   11433631.     BUFFER LENGTH:  32768
 NUMBER OF SEGMENTS:   1  SEGMENT LENGTH:   11433631      RECORD LENGTH: 524288

 Memory used in sort:      11.99 MW

 SORT1 READ    10790064. AND WROTE    10943632. INTEGRALS IN     32 RECORDS. CPU TIME:     0.39 SEC, REAL TIME:     0.47 SEC
 SORT2 READ    10943632. AND WROTE    11433631. INTEGRALS IN      1 RECORDS. CPU TIME:     0.25 SEC, REAL TIME:     0.34 SEC

 FILE SIZES:   FILE 1:   193.0 MBYTE,  FILE 4:   134.3 MBYTE,   TOTAL:    327.2 MBYTE

 OPERATOR DM      FOR CENTER  0  COORDINATES:    0.000000    0.000000    0.000000


 **********************************************************************************************************************************
 DATASETS  * FILE   NREC   LENGTH (MB)   RECORD NAMES
              1      19      111.05       500      610      700      900      950      970     1000      129      960     1100   
                                          VAR    BASINP    GEOM    SYMINP    ZMAT    AOBASIS   BASIS     P2S    ABASIS      S 
                                         1400     1410     1200     1210     1080     1600     1650     1300     1700   
                                           T        V       H0       H01     AOSYM     SMH    MOLCAS    ERIS     OPER   

 PROGRAMS   *        TOTAL       INT
 CPU TIMES  *         2.09      1.97
 REAL TIME  *         3.10 SEC
 DISK USED  *       327.55 MB      
 **********************************************************************************************************************************


 PROGRAM * RHF-SCF (CLOSED SHELL)       Authors: W. Meyer, H.-J. Werner


 NUMBER OF ELECTRONS:       8+    8-
 CONVERGENCE THRESHOLDS:    1.00E-10 (Density)    1.00E-13 (Energy)
 MAX. NUMBER OF ITERATIONS:      500
 INTERPOLATION TYPE:            DIIS
 INTERPOLATION STEPS:              2 (START)      1 (STEP)
 LEVEL SHIFTS:                  0.00 (CLOSED)  0.00 (OPEN) 



 Orbital guess generated from atomic densities. Full valence occupancy:    9   2

 Molecular orbital dump at record        2100.2

 Initial occupancy:   7   1

 ITERATION    DDIFF          GRAD             ENERGY        2-EL.EN.            DIPOLE MOMENTS         DIIS   ORB.
    1      0.000D+00      0.000D+00      -129.78949332    154.076504    0.00000    0.58296   -1.00183    0    start
    2      0.000D+00      0.107D-01      -129.81712979    155.361709    0.00000    0.60686   -0.20879    1    diag
    3      0.118D-01      0.810D-02      -129.83905554    155.458813    0.00000    0.55138   -0.58180    2    diag
    4      0.585D-02      0.127D-02      -129.83983444    155.174469    0.00000    0.55911   -0.52295    3    diag
    5      0.106D-02      0.419D-03      -129.83995894    155.268213    0.00000    0.56474   -0.52587    4    diag
    6      0.447D-03      0.121D-03      -129.83997884    155.252664    0.00000    0.56514   -0.52188    5    diag
    7      0.171D-03      0.596D-04      -129.83998446    155.255253    0.00000    0.56642   -0.51940    6    diag
    8      0.117D-03      0.199D-04      -129.83998504    155.254613    0.00000    0.56645   -0.51845    7    diag
    9      0.427D-04      0.375D-05      -129.83998506    155.254508    0.00000    0.56641   -0.51825    8    diag
   10      0.813D-05      0.864D-06      -129.83998506    155.254489    0.00000    0.56638   -0.51822    9    orth
   11      0.169D-05      0.174D-06      -129.83998506    155.254486    0.00000    0.56637   -0.51822    9    diag
   12      0.334D-06      0.356D-07      -129.83998506    155.254486    0.00000    0.56637   -0.51821    9    diag
   13      0.726D-07      0.893D-08      -129.83998506    155.254486    0.00000    0.56637   -0.51821    9    diag
   14      0.188D-07      0.187D-08      -129.83998506    155.254486    0.00000    0.56637   -0.51821    9    diag
   15      0.380D-08      0.529D-09      -129.83998506    155.254486    0.00000    0.56637   -0.51821    9    diag
   16      0.103D-08      0.148D-09      -129.83998506    155.254486    0.00000    0.56637   -0.51821    9    diag
   17      0.192D-09      0.436D-10      -129.83998506    155.254486    0.00000    0.56637   -0.51821    9    diag
   18      0.559D-10      0.156D-10      -129.83998506    155.254486    0.00000    0.56637   -0.51821    0    orth

 Final occupancy:   7   1

 !RHF STATE 1.1 Energy               -129.839985061712
 Nuclear energy                        30.47157771
 One-electron energy                 -237.93880557
 Two-electron energy                   77.62724280
 Virial quotient                       -1.00202602
 !RHF STATE 1.1 Dipole moment           0.00000000     0.56636697    -0.51821338
 Dipole moment /Debye                   0.00000000     1.43946696    -1.31708076

 Orbital energies:

         1.1          2.1          3.1          4.1          5.1          6.1          7.1          8.1          9.1
    -20.656010   -15.714209    -1.535711    -0.992214    -0.748576    -0.667706    -0.428593     0.029291     0.092207

         1.2          2.2          3.2
     -0.599141     0.066547     0.130457

 HOMO      7.1    -0.428593 =     -11.6626eV
 LUMO      8.1     0.029291 =       0.7971eV
 LUMO-HOMO         0.457884 =      12.4597eV


 **********************************************************************************************************************************
 DATASETS  * FILE   NREC   LENGTH (MB)   RECORD NAMES
              1      19      111.05       500      610      700      900      950      970     1000      129      960     1100   
                                          VAR    BASINP    GEOM    SYMINP    ZMAT    AOBASIS   BASIS     P2S    ABASIS      S 
                                         1400     1410     1200     1210     1080     1600     1650     1300     1700   
                                           T        V       H0       H01     AOSYM     SMH    MOLCAS    ERIS     OPER   

              2       4        2.94       700     1000      520     2100   
                                         GEOM     BASIS   MCVARS     RHF  

 PROGRAMS   *        TOTAL        HF       INT
 CPU TIMES  *         3.48      1.39      1.97
 REAL TIME  *         4.86 SEC
 DISK USED  *       327.55 MB      
 **********************************************************************************************************************************


 PROGRAM * CCSD (Closed-shell coupled cluster)     Authors: C. Hampel, H.-J. Werner, 1991, M. Deegan, P.J. Knowles, 1992


 Convergence thresholds:  THRVAR = 1.00D-08  THRDEN = 1.00D-12

 CCSD(T)     terms to be evaluated (factor= 1.000)


 Number of core orbitals:           2 (   2   0 )
 Number of closed-shell orbitals:   6 (   5   1 )
 Number of external orbitals:     107 (  69  38 )

 Molecular orbitals read from record     2100.2  Type=RHF/CANONICAL (state 1.1)

 Number of N-1 electron functions:               6
 Number of N-2 electron functions:              21
 Number of singly external CSFs:               383
 Number of doubly external CSFs:            107206
 Total number of CSFs:                      107590

 Length of J-op  integral file:               0.00 MB
 Length of K-op  integral file:               0.54 MB
 Length of 3-ext integral record:             0.00 MB

 Memory could be reduced to 5.94 Mwords without degradation in triples

 Integral transformation finished. Total CPU:   0.23 sec, npass=  1  Memory used:   1.65 MW

 Reference energy:                   -129.83998506

 MP2 singlet pair energy:              -0.27894966
 MP2 triplet pair energy:              -0.16484509
 MP2 correlation energy:               -0.44379475
 MP2 total energy:                   -130.28377981

 SCS-MP2 correlation energy:           -0.43730987   (PS=  1.200000  PT=  0.333333)
 SCS-MP2 total energy:               -130.27729493

 ITER.      SQ.NORM     CORR.ENERGY   TOTAL ENERGY   ENERGY CHANGE        DEN1      VAR(S)    VAR(P)  DIIS     TIME  TIME/IT
   1      1.12047502    -0.44811611  -130.28810118    -0.00432137     0.01153985  0.31D-02  0.31D-02  1  1     0.48     0.27
   2      1.13148329    -0.44835594  -130.28834100    -0.00023983    -0.01232729  0.98D-04  0.50D-03  2  2     0.73     0.28
   3      1.13787757    -0.44874907  -130.28873413    -0.00039313    -0.00297394  0.52D-04  0.50D-04  3  3     1.00     0.29
   4      1.14069967    -0.44875961  -130.28874467    -0.00001054    -0.00095986  0.41D-05  0.90D-05  4  4     1.26     0.29
   5      1.14171941    -0.44878757  -130.28877264    -0.00002796    -0.00021636  0.11D-05  0.16D-05  5  5     1.51     0.29
   6      1.14205421    -0.44877129  -130.28875635     0.00001629    -0.00004074  0.10D-06  0.39D-06  6  6     1.76     0.29
   7      1.14212893    -0.44877226  -130.28875732    -0.00000097    -0.00000196  0.20D-07  0.90D-07  6  1     2.03     0.29
   8      1.14215058    -0.44877296  -130.28875802    -0.00000070     0.00000140  0.36D-08  0.16D-07  6  2     2.27     0.29
   9      1.14215596    -0.44877252  -130.28875758     0.00000044     0.00000045  0.26D-08  0.17D-08  6  4     2.52     0.29
  10      1.14215820    -0.44877299  -130.28875805    -0.00000047    -0.00000069  0.42D-09  0.20D-09  6  3     2.78     0.29
  11      1.14215769    -0.44877301  -130.28875807    -0.00000003    -0.00000006  0.15D-09  0.31D-10  6  5     3.05     0.29
  12      1.14215665    -0.44877316  -130.28875822    -0.00000015     0.00000033  0.17D-10  0.10D-10  6  6     3.32     0.29
  13      1.14215583    -0.44877319  -130.28875825    -0.00000003     0.00000021  0.61D-11  0.20D-11  6  1     3.59     0.29
  14      1.14215530    -0.44877322  -130.28875828    -0.00000003     0.00000013  0.99D-12  0.64D-12  6  2     3.82     0.29
  15      1.14215508    -0.44877323  -130.28875829    -0.00000001     0.00000003  0.27D-12  0.20D-12  6  4     4.10     0.29
  16      1.14215499    -0.44877323  -130.28875829    -0.00000000     0.00000001  0.52D-13  0.72D-13  6  3     4.36     0.29
  17      1.14215494    -0.44877323  -130.28875829    -0.00000000     0.00000001  0.36D-14  0.17D-13  6  5     4.62     0.29
  18      1.14215493    -0.44877323  -130.28875829     0.00000000    -0.00000000  0.13D-14  0.35D-14  6  6     4.87     0.29
  19      1.14215493    -0.44877323  -130.28875829    -0.00000000     0.00000000  0.10D-14  0.64D-15  6  1     5.14     0.29
  20      1.14215493    -0.44877323  -130.28875829     0.00000000    -0.00000000  0.21D-15  0.12D-15  6  2     5.40     0.29
  21      1.14215493    -0.44877323  -130.28875829     0.00000000    -0.00000000  0.50D-16  0.29D-16  6  3     5.66     0.29
  22      1.14215493    -0.44877323  -130.28875829     0.00000000     0.00000000  0.58D-17  0.26D-17  6  4     5.91     0.29
  23      1.14215493    -0.44877323  -130.28875829     0.00000000    -0.00000000  0.21D-17  0.53D-18  6  5     6.18     0.29
  24      1.14215493    -0.44877323  -130.28875829     0.00000000     0.00000000  0.14D-18  0.46D-19  6  2     6.42     0.29
  25      1.14215493    -0.44877323  -130.28875829    -0.00000000    -0.00000000  0.20D-19  0.11D-19  6  6     6.69     0.29
  26      1.14215493    -0.44877323  -130.28875829     0.00000000    -0.00000000  0.32D-20  0.19D-20  6  1     6.96     0.29
  27      1.14215493    -0.44877323  -130.28875829    -0.00000000    -0.00000000  0.46D-21  0.45D-21  6  4     7.21     0.29

 Norm of t1 vector:      0.07762481      S-energy:     0.00000000      T1 diagnostic:  0.01584510
                                                                       D1 diagnostic:  0.04129546

 Doubles amplitudes (print threshold =  0.500E-01):

         I         J         SYM. A    SYM. B    A         B      T(IJ, AB)

         6         6         2         2         1         1     -0.10629031


 Total CPU time for triples:      3.28 sec


 RESULTS
 =======

  Reference energy                   -129.839985061713
  CCSD singlet pair energy             -0.307593838072
  CCSD triplet pair energy             -0.141179392617
  CCSD correlation energy              -0.448773230688

  Triples (T) contribution             -0.020762864459
  Total correlation energy             -0.469536095146

  CCSD total energy                  -130.288758292400
  CCSD[T] energy                     -130.310566281432
  CCSD-T energy                      -130.309121140901
 !CCSD(T) total energy               -130.309521156859

 Timing summary (sec):

 STEP                 CPU(USER)    SYS     CPU(TOT)    WALL
 Transformation          0.24      0.07      0.31      0.31
 CCSD iterations         6.98      0.96      7.94      7.94
 Triples                 3.28      0.10      3.38      3.39

 Program statistics:

 Available memory in ccsd:               994999756
 Min. memory needed in ccsd:                389120
 Max. memory used in ccsd:                  473124
 Max. memory used in cckext:                599488 (27 integral passes)



 **********************************************************************************************************************************
 DATASETS  * FILE   NREC   LENGTH (MB)   RECORD NAMES
              1      20      128.20       500      610      700      900      950      970     1000      129      960     1100   
                                          VAR    BASINP    GEOM    SYMINP    ZMAT    AOBASIS   BASIS     P2S    ABASIS      S 
                                         1400     1410     1200     1210     1080     1600     1650     1300     1700     1380   
                                           T        V       H0       H01     AOSYM     SMH    MOLCAS    ERIS     OPER     JKOP   

              2       4        2.94       700     1000      520     2100   
                                         GEOM     BASIS   MCVARS     RHF  

 PROGRAMS   *        TOTAL   CCSD(T)        HF       INT
 CPU TIMES  *        13.99     10.51      1.39      1.97
 REAL TIME  *        16.54 SEC
 DISK USED  *       327.55 MB      
 **********************************************************************************************************************************

 CCSD(T)/aug-cc-pVTZ energy=   -130.309521156859

        CCSD(T)         HF-SCF  
   -130.30952116   -129.83998506
 **********************************************************************************************************************************
 Molpro calculation terminated
 Variable memory released
