
 Primary working directories    : /tmp/r2666/234967.maple
 Secondary working directories  : /tmp/r2666/234967.maple
 Wavefunction directory         : /ddn/home4/r2666/wfu/
 Main file repository           : /tmp/r2666/234967.maple/

 SHA1      : d5ffa45e93fdbca01ffc919aa182cfdae0147319
 NAME      : 2015.1.35
 ARCHNAME  : linux/x86_64
 FC        : /opt/intel/composer_xe_2015.1.133/bin/intel64/ifort
 BLASLIB   : -Wl,-_start-group /opt/intel/mkl/lib/intel64/libmkl_intel_ilp64.a /opt/intel/mkl/lib/intel64/libmkl_intel_thread.a /opt/intel/mkl/lib/intel64/libmkl_core.a -Wl,-_end-group
 id        : olemiss

 Nodes     nprocs
 cn076        1

 Using customized tuning parameters: mindgm=1; mindgv=20; mindgc=4; mindgr=1; noblas=0; minvec=7
 default implementation of scratch files=df  

 ***,hno CCSD(T)/TZ-F12 QFF
 memory, 995, m;
 gthresh,energy=1.d-12,zero=1.d-22,oneint=1.d-22,twoint=1.d-22;
 gthresh,optgrad=1.d-8,optstep=1.d-8;
 nocompress;
 geomtyp=xyz
 bohr
 geometry={
 3
         81        81
 N        0.0000000000       -0.1645388011       -1.1639097818
 H        0.0000000000        1.6694412937       -1.9312982306
 O        0.0000000000        0.0368652973        1.1446184214
 }
 
 basis=avtz
   {hf,maxit=500;accu,20;}
 {ccsd(t),nocheck,maxit=250;orbital,IGNORE_ERROR;}

 Variables initialized (889), CPU time= 0.00 sec
 Commands  initialized (702), CPU time= 0.01 sec, 572 directives.
 Default parameters read. Elapsed time= 0.04 sec

 Checking input...
 Passed
1


                                         ***  PROGRAM SYSTEM MOLPRO  ***
                                       Copyright, TTI GmbH Stuttgart, 2015
                                    Version 2015.1 linked Jul  9 2018 13:16:40


 **********************************************************************************************************************************
 LABEL *   hno CCSD(T)/TZ-F12 QFF                                                        
  64 bit serial version                                                                  DATE: 08-Feb-20          TIME: 17:56:37  
 **********************************************************************************************************************************

 SHA1:             d5ffa45e93fdbca01ffc919aa182cfdae0147319
 **********************************************************************************************************************************

 THRESHOLDS:

 ZERO    =  1.00D-22  ONEINT  =  1.00D-22  TWOINT  =  1.00D-22  PREFAC  =  1.00D-14  LOCALI  =  1.00D-09  EORDER  =  1.00D-04
 ENERGY  =  1.00D-12  ETEST   =  0.00D+00  EDENS   =  0.00D+00  THRDEDEF=  1.00D-06  GRADIENT=  1.00D-02  STEP    =  1.00D-03
 ORBITAL =  1.00D-05  CIVEC   =  1.00D-05  COEFF   =  1.00D-04  PRINTCI =  5.00D-02  PUNCHCI =  9.90D+01  OPTGRAD =  3.00D-04
 OPTENERG=  1.00D-06  OPTSTEP =  3.00D-04  THRGRAD =  1.00D-10  COMPRESS=  1.00D-11  VARMIN  =  1.00D-07  VARMAX  =  1.00D-03
 THRDOUB =  0.00D+00  THRDIV  =  1.00D-05  THRRED  =  1.00D-07  THRPSP  =  1.00D+00  THRDC   =  1.00D-10  THRCS   =  1.00D-10
 THRNRM  =  1.00D-08  THREQ   =  0.00D+00  THRDE   =  1.00D+00  THRREF  =  1.00D-05  SPARFAC =  1.00D+00  THRDLP  =  1.00D-07
 THRDIA  =  1.00D-10  THRDLS  =  1.00D-07  THRGPS  =  0.00D+00  THRKEX  =  0.00D+00  THRDIS  =  2.00D-01  THRVAR  =  1.00D-10
 THRLOC  =  1.00D-06  THRGAP  =  1.00D-06  THRLOCT = -1.00D+00  THRGAPT = -1.00D+00  THRORB  =  1.00D-06  THRMLTP =  0.00D+00
 THRCPQCI=  1.00D-10  KEXTA   =  0.00D+00  THRCOARS=  0.00D+00  SYMTOL  =  1.00D-06  GRADTOL =  1.00D-06  THROVL  =  1.00D-08
 THRORTH =  1.00D-08  GRID    =  1.00D-06  GRIDMAX =  1.00D-03  DTMAX   =  0.00D+00  THROCCDE=  1.00D-01  THROCCDE=  1.00D-01



 THRESHOLDS:

 ZERO    =  1.00D-22  ONEINT  =  1.00D-22  TWOINT  =  1.00D-22  PREFAC  =  1.00D-14  LOCALI  =  1.00D-09  EORDER  =  1.00D-04
 ENERGY  =  1.00D-12  ETEST   =  0.00D+00  EDENS   =  0.00D+00  THRDEDEF=  1.00D-06  GRADIENT=  1.00D-02  STEP    =  1.00D-03
 ORBITAL =  1.00D-05  CIVEC   =  1.00D-05  COEFF   =  1.00D-04  PRINTCI =  5.00D-02  PUNCHCI =  9.90D+01  OPTGRAD =  1.00D-08
 OPTENERG=  1.00D-06  OPTSTEP =  1.00D-08  THRGRAD =  1.00D-10  COMPRESS=  1.00D-11  VARMIN  =  1.00D-07  VARMAX  =  1.00D-03
 THRDOUB =  0.00D+00  THRDIV  =  1.00D-05  THRRED  =  1.00D-07  THRPSP  =  1.00D+00  THRDC   =  1.00D-10  THRCS   =  1.00D-10
 THRNRM  =  1.00D-08  THREQ   =  0.00D+00  THRDE   =  1.00D+00  THRREF  =  1.00D-05  SPARFAC =  1.00D+00  THRDLP  =  1.00D-07
 THRDIA  =  1.00D-10  THRDLS  =  1.00D-07  THRGPS  =  0.00D+00  THRKEX  =  0.00D+00  THRDIS  =  2.00D-01  THRVAR  =  1.00D-10
 THRLOC  =  1.00D-06  THRGAP  =  1.00D-06  THRLOCT = -1.00D+00  THRGAPT = -1.00D+00  THRORB  =  1.00D-06  THRMLTP =  0.00D+00
 THRCPQCI=  1.00D-10  KEXTA   =  0.00D+00  THRCOARS=  0.00D+00  SYMTOL  =  1.00D-06  GRADTOL =  1.00D-06  THROVL  =  1.00D-08
 THRORTH =  1.00D-08  GRID    =  1.00D-06  GRIDMAX =  1.00D-03  DTMAX   =  0.00D+00  THROCCDE=  1.00D-01  THROCCDE=  1.00D-01



 Input parameters for SORTINT:

 COMPRESS =    0.000000
 C_FINAL  =    1.000000
 DEBUG    =   -1.000000
 C_SORT1  =    0.000000
 C_SEWARD =    0.000000
 THRESH   =    0.000000
 IO       =  molpro                                                          
 SPRI     =    0.000000
 SETTING GEOMTYP        =    XYZ
 ZUNIT=BOHR
 

 Variable memory set to  995000000 words,  buffer space   230000 words

 SETTING BASIS          =    AVTZ


 Recomputing integrals since basis changed


 Using spherical harmonics

 Library entry N      S aug-cc-pVTZ          selected for orbital group  1
 Library entry N      P aug-cc-pVTZ          selected for orbital group  1
 Library entry N      D aug-cc-pVTZ          selected for orbital group  1
 Library entry N      F aug-cc-pVTZ          selected for orbital group  1
 Library entry H      S aug-cc-pVTZ          selected for orbital group  2
 Library entry H      P aug-cc-pVTZ          selected for orbital group  2
 Library entry H      D aug-cc-pVTZ          selected for orbital group  2
 Library entry O      S aug-cc-pVTZ          selected for orbital group  3
 Library entry O      P aug-cc-pVTZ          selected for orbital group  3
 Library entry O      D aug-cc-pVTZ          selected for orbital group  3
 Library entry O      F aug-cc-pVTZ          selected for orbital group  3


 PROGRAM * SEWARD (Integral evaluation for generally contracted gaussian basis sets)     Author: Roland Lindh, 1990

 Geometry written to block  1 of record 700


 Point group  Cs  



 ATOMIC COORDINATES

 NR  ATOM    CHARGE       X              Y              Z

   1  N       7.00    0.000000000   -0.164538801   -1.163909782
   2  H       1.00    0.000000000    1.669441294   -1.931298231
   3  O       8.00    0.000000000    0.036865297    1.144618421

 Bond lengths in Bohr (Angstrom)

 1-2  1.988056342  1-3  2.317297149
     ( 1.052034110)     ( 1.226260842)

 Bond angles

  2-1-3  107.71973492

 NUCLEAR CHARGE:                   16
 NUMBER OF PRIMITIVE AOS:         161
 NUMBER OF SYMMETRY AOS:          141
 NUMBER OF CONTRACTIONS:          115   (  76A'  +  39A"  )
 NUMBER OF CORE ORBITALS:           2   (   2A'  +   0A"  )
 NUMBER OF VALENCE ORBITALS:        9   (   7A'  +   2A"  )


 NUCLEAR REPULSION ENERGY   29.98442963

 Eigenvalues of metric

         1 0.237E-03 0.509E-03 0.184E-02 0.218E-02 0.269E-02 0.386E-02 0.437E-02 0.526E-02
         2 0.416E-02 0.102E-01 0.271E-01 0.376E-01 0.518E-01 0.627E-01 0.850E-01 0.121E+00


 Contracted 2-electron integrals neglected if value below      1.0D-22

       10790064. INTEGRALS WRITTEN OUT IN    2635 BLOCKS ON RECORD 1290 OF FILE 1


 NUMBER OF SORTED TWO-ELECTRON INTEGRALS:   11433631.     BUFFER LENGTH:  32768
 NUMBER OF SEGMENTS:   1  SEGMENT LENGTH:   11433631      RECORD LENGTH: 524288

 Memory used in sort:      11.99 MW

 SORT1 READ    10790064. AND WROTE    10943632. INTEGRALS IN     32 RECORDS. CPU TIME:     0.17 SEC, REAL TIME:     0.23 SEC
 SORT2 READ    10943632. AND WROTE    11433631. INTEGRALS IN      1 RECORDS. CPU TIME:     0.17 SEC, REAL TIME:     0.22 SEC

 FILE SIZES:   FILE 1:   193.0 MBYTE,  FILE 4:   134.3 MBYTE,   TOTAL:    327.2 MBYTE

 OPERATOR DM      FOR CENTER  0  COORDINATES:    0.000000    0.000000    0.000000


 **********************************************************************************************************************************
 DATASETS  * FILE   NREC   LENGTH (MB)   RECORD NAMES
              1      19      111.05       500      610      700      900      950      970     1000      129      960     1100   
                                          VAR    BASINP    GEOM    SYMINP    ZMAT    AOBASIS   BASIS     P2S    ABASIS      S 
                                         1400     1410     1200     1210     1080     1600     1650     1300     1700   
                                           T        V       H0       H01     AOSYM     SMH    MOLCAS    ERIS     OPER   

 PROGRAMS   *        TOTAL       INT
 CPU TIMES  *         1.27      1.18
 REAL TIME  *         2.09 SEC
 DISK USED  *       327.55 MB      
 **********************************************************************************************************************************


 PROGRAM * RHF-SCF (CLOSED SHELL)       Authors: W. Meyer, H.-J. Werner


 NUMBER OF ELECTRONS:       8+    8-
 CONVERGENCE THRESHOLDS:    1.00E-10 (Density)    1.00E-13 (Energy)
 MAX. NUMBER OF ITERATIONS:      500
 INTERPOLATION TYPE:            DIIS
 INTERPOLATION STEPS:              2 (START)      1 (STEP)
 LEVEL SHIFTS:                  0.00 (CLOSED)  0.00 (OPEN) 



 Orbital guess generated from atomic densities. Full valence occupancy:    9   2

 Molecular orbital dump at record        2100.2

 Initial occupancy:   7   1

 ITERATION    DDIFF          GRAD             ENERGY        2-EL.EN.            DIPOLE MOMENTS         DIIS   ORB.
    1      0.000D+00      0.000D+00      -129.78267856    153.210454    0.00000    0.59570   -1.07970    0    start
    2      0.000D+00      0.110D-01      -129.80942538    154.435541    0.00000    0.62242   -0.19716    1    diag
    3      0.123D-01      0.876D-02      -129.83533920    154.590617    0.00000    0.56364   -0.61761    2    diag
    4      0.624D-02      0.130D-02      -129.83616783    154.288429    0.00000    0.57083   -0.55494    3    diag
    5      0.110D-02      0.433D-03      -129.83630112    154.383949    0.00000    0.57638   -0.55740    4    diag
    6      0.464D-03      0.125D-03      -129.83632248    154.368103    0.00000    0.57666   -0.55298    5    diag
    7      0.177D-03      0.630D-04      -129.83632892    154.370439    0.00000    0.57785   -0.55015    6    diag
    8      0.124D-03      0.227D-04      -129.83632972    154.369713    0.00000    0.57787   -0.54901    7    diag
    9      0.511D-04      0.437D-05      -129.83632976    154.369589    0.00000    0.57783   -0.54876    8    diag
   10      0.102D-04      0.955D-06      -129.83632976    154.369569    0.00000    0.57779   -0.54873    9    orth
   11      0.188D-05      0.187D-06      -129.83632976    154.369566    0.00000    0.57779   -0.54873    9    diag
   12      0.347D-06      0.402D-07      -129.83632976    154.369566    0.00000    0.57778   -0.54873    9    diag
   13      0.753D-07      0.107D-07      -129.83632976    154.369566    0.00000    0.57778   -0.54873    9    diag
   14      0.210D-07      0.221D-08      -129.83632976    154.369566    0.00000    0.57778   -0.54873    9    diag
   15      0.395D-08      0.608D-09      -129.83632976    154.369566    0.00000    0.57778   -0.54873    9    diag
   16      0.111D-08      0.159D-09      -129.83632976    154.369566    0.00000    0.57778   -0.54873    9    diag
   17      0.180D-09      0.437D-10      -129.83632976    154.369566    0.00000    0.57778   -0.54873    9    diag
   18      0.523D-10      0.155D-10      -129.83632976    154.369566    0.00000    0.57778   -0.54873    9    diag
   19      0.266D-10      0.336D-11      -129.83632976    154.369566    0.00000    0.57778   -0.54873    0    orth

 Final occupancy:   7   1

 !RHF STATE 1.1 Energy               -129.836329762673
 Nuclear energy                        29.98442963
 One-electron energy                 -237.00554245
 Two-electron energy                   77.18478306
 Virial quotient                       -1.00267416
 !RHF STATE 1.1 Dipole moment           0.00000000     0.57778298    -0.54873027
 Dipole moment /Debye                   0.00000000     1.46848166    -1.39464187

 Orbital energies:

         1.1          2.1          3.1          4.1          5.1          6.1          7.1          8.1          9.1
    -20.658208   -15.717716    -1.516308    -0.999052    -0.741823    -0.660826    -0.436279     0.028967     0.092116

         1.2          2.2          3.2
     -0.587775     0.059802     0.129789

 HOMO      7.1    -0.436279 =     -11.8718eV
 LUMO      8.1     0.028967 =       0.7882eV
 LUMO-HOMO         0.465247 =      12.6600eV


 **********************************************************************************************************************************
 DATASETS  * FILE   NREC   LENGTH (MB)   RECORD NAMES
              1      19      111.05       500      610      700      900      950      970     1000      129      960     1100   
                                          VAR    BASINP    GEOM    SYMINP    ZMAT    AOBASIS   BASIS     P2S    ABASIS      S 
                                         1400     1410     1200     1210     1080     1600     1650     1300     1700   
                                           T        V       H0       H01     AOSYM     SMH    MOLCAS    ERIS     OPER   

              2       4        2.94       700     1000      520     2100   
                                         GEOM     BASIS   MCVARS     RHF  

 PROGRAMS   *        TOTAL        HF       INT
 CPU TIMES  *         2.23      0.96      1.18
 REAL TIME  *         3.35 SEC
 DISK USED  *       327.55 MB      
 **********************************************************************************************************************************


 PROGRAM * CCSD (Closed-shell coupled cluster)     Authors: C. Hampel, H.-J. Werner, 1991, M. Deegan, P.J. Knowles, 1992


 Convergence thresholds:  THRVAR = 1.00D-08  THRDEN = 1.00D-12

 CCSD(T)     terms to be evaluated (factor= 1.000)


 Number of core orbitals:           2 (   2   0 )
 Number of closed-shell orbitals:   6 (   5   1 )
 Number of external orbitals:     107 (  69  38 )

 Molecular orbitals read from record     2100.2  Type=RHF/CANONICAL (state 1.1)

 Number of N-1 electron functions:               6
 Number of N-2 electron functions:              21
 Number of singly external CSFs:               383
 Number of doubly external CSFs:            107206
 Total number of CSFs:                      107590

 Length of J-op  integral file:               0.00 MB
 Length of K-op  integral file:               0.54 MB
 Length of 3-ext integral record:             0.00 MB

 Memory could be reduced to 5.94 Mwords without degradation in triples

 Integral transformation finished. Total CPU:   0.14 sec, npass=  1  Memory used:   1.65 MW

 Reference energy:                   -129.83632976

 MP2 singlet pair energy:              -0.28139462
 MP2 triplet pair energy:              -0.16649555
 MP2 correlation energy:               -0.44789017
 MP2 total energy:                   -130.28421993

 SCS-MP2 correlation energy:           -0.44127077   (PS=  1.200000  PT=  0.333333)
 SCS-MP2 total energy:               -130.27760053

 ITER.      SQ.NORM     CORR.ENERGY   TOTAL ENERGY   ENERGY CHANGE        DEN1      VAR(S)    VAR(P)  DIIS     TIME  TIME/IT
   1      1.12295977    -0.45127393  -130.28760369    -0.00338376     0.01346905  0.34D-02  0.34D-02  1  1     0.28     0.16
   2      1.13454667    -0.45132165  -130.28765141    -0.00004773    -0.01290196  0.11D-03  0.54D-03  2  2     0.44     0.16
   3      1.14143984    -0.45175337  -130.28808313    -0.00043172    -0.00312788  0.59D-04  0.56D-04  3  3     0.58     0.16
   4      1.14456119    -0.45176630  -130.28809607    -0.00001293    -0.00103860  0.48D-05  0.10D-04  4  4     0.72     0.16
   5      1.14573269    -0.45179889  -130.28812865    -0.00003258    -0.00024687  0.12D-05  0.17D-05  5  5     0.87     0.16
   6      1.14610513    -0.45177935  -130.28810912     0.00001953    -0.00004613  0.11D-06  0.40D-06  6  6     1.01     0.16
   7      1.14617975    -0.45178090  -130.28811066    -0.00000154    -0.00000111  0.18D-07  0.97D-07  6  1     1.17     0.16
   8      1.14620141    -0.45178137  -130.28811113    -0.00000047     0.00000161  0.33D-08  0.19D-07  6  2     1.32     0.17
   9      1.14621041    -0.45178072  -130.28811048     0.00000065    -0.00000087  0.27D-08  0.20D-08  6  3     1.48     0.17
  10      1.14621066    -0.45178127  -130.28811103    -0.00000055    -0.00000004  0.55D-09  0.30D-09  6  4     1.62     0.17
  11      1.14620900    -0.45178139  -130.28811116    -0.00000012     0.00000054  0.17D-09  0.37D-10  6  5     1.77     0.17
  12      1.14620760    -0.45178160  -130.28811136    -0.00000021     0.00000044  0.17D-10  0.10D-10  6  6     1.93     0.17
  13      1.14620681    -0.45178162  -130.28811138    -0.00000002     0.00000018  0.60D-11  0.20D-11  6  1     2.07     0.17
  14      1.14620633    -0.45178165  -130.28811141    -0.00000003     0.00000010  0.88D-12  0.64D-12  6  2     2.22     0.17
  15      1.14620612    -0.45178165  -130.28811141    -0.00000001     0.00000002  0.27D-12  0.19D-12  6  3     2.37     0.17
  16      1.14620602    -0.45178165  -130.28811142    -0.00000000     0.00000002  0.44D-13  0.65D-13  6  4     2.51     0.17
  17      1.14620596    -0.45178166  -130.28811142    -0.00000000     0.00000001  0.30D-14  0.15D-13  6  5     2.64     0.17
  18      1.14620595    -0.45178166  -130.28811142     0.00000000     0.00000000  0.11D-14  0.36D-14  6  6     2.79     0.17
  19      1.14620596    -0.45178166  -130.28811142     0.00000000    -0.00000000  0.14D-15  0.24D-15  6  5     2.93     0.17
  20      1.14620596    -0.45178166  -130.28811142    -0.00000000    -0.00000000  0.57D-16  0.39D-16  6  1     3.09     0.17
  21      1.14620596    -0.45178166  -130.28811142     0.00000000     0.00000000  0.13D-16  0.85D-17  6  2     3.23     0.17
  22      1.14620596    -0.45178166  -130.28811142    -0.00000000     0.00000000  0.38D-17  0.10D-17  6  3     3.36     0.17
  23      1.14620596    -0.45178166  -130.28811142     0.00000000     0.00000000  0.99D-18  0.32D-18  6  4     3.50     0.17
  24      1.14620596    -0.45178166  -130.28811142    -0.00000000     0.00000000  0.28D-18  0.61D-19  6  6     3.65     0.17
  25      1.14620596    -0.45178166  -130.28811142     0.00000000    -0.00000000  0.45D-19  0.28D-19  6  5     3.80     0.17
  26      1.14620596    -0.45178166  -130.28811142     0.00000000    -0.00000000  0.70D-20  0.11D-19  6  1     3.95     0.17
  27      1.14620596    -0.45178166  -130.28811142    -0.00000000    -0.00000000  0.31D-21  0.14D-20  6  3     4.09     0.17
  28      1.14620596    -0.45178166  -130.28811142     0.00000000     0.00000000  0.76D-22  0.19D-21  6  2     4.24     0.17

 Norm of t1 vector:      0.08142930      S-energy:     0.00000000      T1 diagnostic:  0.01662169
                                                                       D1 diagnostic:  0.04457746

 Doubles amplitudes (print threshold =  0.500E-01):

         I         J         SYM. A    SYM. B    A         B      T(IJ, AB)

         6         6         2         2         1         1     -0.11687361


 Total CPU time for triples:      1.11 sec


 RESULTS
 =======

  Reference energy                   -129.836329762673
  CCSD singlet pair energy             -0.310188709709
  CCSD triplet pair energy             -0.141592946762
  CCSD correlation energy              -0.451781656469

  Triples (T) contribution             -0.021488102425
  Total correlation energy             -0.473269758894

  CCSD total energy                  -130.288111419142
  CCSD[T] energy                     -130.310747311453
  CCSD-T energy                      -130.309176716227
 !CCSD(T) total energy               -130.309599521567

 Timing summary (sec):

 STEP                 CPU(USER)    SYS     CPU(TOT)    WALL
 Transformation          0.15      0.04      0.19      0.20
 CCSD iterations         4.10      0.62      4.72      4.72
 Triples                 1.11      0.05      1.16      1.17

 Program statistics:

 Available memory in ccsd:               994999756
 Min. memory needed in ccsd:                389120
 Max. memory used in ccsd:                  473124
 Max. memory used in cckext:                599488 (28 integral passes)



 **********************************************************************************************************************************
 DATASETS  * FILE   NREC   LENGTH (MB)   RECORD NAMES
              1      20      128.20       500      610      700      900      950      970     1000      129      960     1100   
                                          VAR    BASINP    GEOM    SYMINP    ZMAT    AOBASIS   BASIS     P2S    ABASIS      S 
                                         1400     1410     1200     1210     1080     1600     1650     1300     1700     1380   
                                           T        V       H0       H01     AOSYM     SMH    MOLCAS    ERIS     OPER     JKOP   

              2       4        2.94       700     1000      520     2100   
                                         GEOM     BASIS   MCVARS     RHF  

 PROGRAMS   *        TOTAL   CCSD(T)        HF       INT
 CPU TIMES  *         7.63      5.40      0.96      1.18
 REAL TIME  *         9.50 SEC
 DISK USED  *       327.55 MB      
 **********************************************************************************************************************************

 CCSD(T)/aug-cc-pVTZ energy=   -130.309599521567

        CCSD(T)         HF-SCF  
   -130.30959952   -129.83632976
 **********************************************************************************************************************************
 Molpro calculation terminated
 Variable memory released
