
 Primary working directories    : /tmp/r2666/234897.maple
 Secondary working directories  : /tmp/r2666/234897.maple
 Wavefunction directory         : /ddn/home4/r2666/wfu/
 Main file repository           : /tmp/r2666/234897.maple/

 SHA1      : d5ffa45e93fdbca01ffc919aa182cfdae0147319
 NAME      : 2015.1.35
 ARCHNAME  : linux/x86_64
 FC        : /opt/intel/composer_xe_2015.1.133/bin/intel64/ifort
 BLASLIB   : -Wl,-_start-group /opt/intel/mkl/lib/intel64/libmkl_intel_ilp64.a /opt/intel/mkl/lib/intel64/libmkl_intel_thread.a /opt/intel/mkl/lib/intel64/libmkl_core.a -Wl,-_end-group
 id        : olemiss

 Nodes     nprocs
 cn025        1

 Using customized tuning parameters: mindgm=1; mindgv=20; mindgc=4; mindgr=1; noblas=0; minvec=7
 default implementation of scratch files=df  

 ***,hno CCSD(T)/TZ-F12 QFF
 memory, 995, m;
 gthresh,energy=1.d-12,zero=1.d-22,oneint=1.d-22,twoint=1.d-22;
 gthresh,optgrad=1.d-8,optstep=1.d-8;
 nocompress;
 geomtyp=xyz
 bohr
 geometry={
 3
         11        11
 N        0.0000000000       -0.1546351969       -1.1545936917
 H        0.0000000000        1.6583371210       -1.9231760657
 O        0.0000000000        0.0380658659        1.1271801664
 }
 
 basis=avtz
   {hf,maxit=500;accu,20;}
 {ccsd(t),nocheck,maxit=250;orbital,IGNORE_ERROR;}

 Variables initialized (889), CPU time= 0.00 sec
 Commands  initialized (702), CPU time= 0.01 sec, 572 directives.
 Default parameters read. Elapsed time= 0.06 sec

 Checking input...
 Passed
1


                                         ***  PROGRAM SYSTEM MOLPRO  ***
                                       Copyright, TTI GmbH Stuttgart, 2015
                                    Version 2015.1 linked Jul  9 2018 13:16:40


 **********************************************************************************************************************************
 LABEL *   hno CCSD(T)/TZ-F12 QFF                                                        
  64 bit serial version                                                                  DATE: 08-Feb-20          TIME: 17:55:53  
 **********************************************************************************************************************************

 SHA1:             d5ffa45e93fdbca01ffc919aa182cfdae0147319
 **********************************************************************************************************************************

 THRESHOLDS:

 ZERO    =  1.00D-22  ONEINT  =  1.00D-22  TWOINT  =  1.00D-22  PREFAC  =  1.00D-14  LOCALI  =  1.00D-09  EORDER  =  1.00D-04
 ENERGY  =  1.00D-12  ETEST   =  0.00D+00  EDENS   =  0.00D+00  THRDEDEF=  1.00D-06  GRADIENT=  1.00D-02  STEP    =  1.00D-03
 ORBITAL =  1.00D-05  CIVEC   =  1.00D-05  COEFF   =  1.00D-04  PRINTCI =  5.00D-02  PUNCHCI =  9.90D+01  OPTGRAD =  3.00D-04
 OPTENERG=  1.00D-06  OPTSTEP =  3.00D-04  THRGRAD =  1.00D-10  COMPRESS=  1.00D-11  VARMIN  =  1.00D-07  VARMAX  =  1.00D-03
 THRDOUB =  0.00D+00  THRDIV  =  1.00D-05  THRRED  =  1.00D-07  THRPSP  =  1.00D+00  THRDC   =  1.00D-10  THRCS   =  1.00D-10
 THRNRM  =  1.00D-08  THREQ   =  0.00D+00  THRDE   =  1.00D+00  THRREF  =  1.00D-05  SPARFAC =  1.00D+00  THRDLP  =  1.00D-07
 THRDIA  =  1.00D-10  THRDLS  =  1.00D-07  THRGPS  =  0.00D+00  THRKEX  =  0.00D+00  THRDIS  =  2.00D-01  THRVAR  =  1.00D-10
 THRLOC  =  1.00D-06  THRGAP  =  1.00D-06  THRLOCT = -1.00D+00  THRGAPT = -1.00D+00  THRORB  =  1.00D-06  THRMLTP =  0.00D+00
 THRCPQCI=  1.00D-10  KEXTA   =  0.00D+00  THRCOARS=  0.00D+00  SYMTOL  =  1.00D-06  GRADTOL =  1.00D-06  THROVL  =  1.00D-08
 THRORTH =  1.00D-08  GRID    =  1.00D-06  GRIDMAX =  1.00D-03  DTMAX   =  0.00D+00  THROCCDE=  1.00D-01  THROCCDE=  1.00D-01



 THRESHOLDS:

 ZERO    =  1.00D-22  ONEINT  =  1.00D-22  TWOINT  =  1.00D-22  PREFAC  =  1.00D-14  LOCALI  =  1.00D-09  EORDER  =  1.00D-04
 ENERGY  =  1.00D-12  ETEST   =  0.00D+00  EDENS   =  0.00D+00  THRDEDEF=  1.00D-06  GRADIENT=  1.00D-02  STEP    =  1.00D-03
 ORBITAL =  1.00D-05  CIVEC   =  1.00D-05  COEFF   =  1.00D-04  PRINTCI =  5.00D-02  PUNCHCI =  9.90D+01  OPTGRAD =  1.00D-08
 OPTENERG=  1.00D-06  OPTSTEP =  1.00D-08  THRGRAD =  1.00D-10  COMPRESS=  1.00D-11  VARMIN  =  1.00D-07  VARMAX  =  1.00D-03
 THRDOUB =  0.00D+00  THRDIV  =  1.00D-05  THRRED  =  1.00D-07  THRPSP  =  1.00D+00  THRDC   =  1.00D-10  THRCS   =  1.00D-10
 THRNRM  =  1.00D-08  THREQ   =  0.00D+00  THRDE   =  1.00D+00  THRREF  =  1.00D-05  SPARFAC =  1.00D+00  THRDLP  =  1.00D-07
 THRDIA  =  1.00D-10  THRDLS  =  1.00D-07  THRGPS  =  0.00D+00  THRKEX  =  0.00D+00  THRDIS  =  2.00D-01  THRVAR  =  1.00D-10
 THRLOC  =  1.00D-06  THRGAP  =  1.00D-06  THRLOCT = -1.00D+00  THRGAPT = -1.00D+00  THRORB  =  1.00D-06  THRMLTP =  0.00D+00
 THRCPQCI=  1.00D-10  KEXTA   =  0.00D+00  THRCOARS=  0.00D+00  SYMTOL  =  1.00D-06  GRADTOL =  1.00D-06  THROVL  =  1.00D-08
 THRORTH =  1.00D-08  GRID    =  1.00D-06  GRIDMAX =  1.00D-03  DTMAX   =  0.00D+00  THROCCDE=  1.00D-01  THROCCDE=  1.00D-01



 Input parameters for SORTINT:

 COMPRESS =    0.000000
 C_FINAL  =    1.000000
 DEBUG    =   -1.000000
 C_SORT1  =    0.000000
 C_SEWARD =    0.000000
 THRESH   =    0.000000
 IO       =  molpro                                                          
 SPRI     =    0.000000
 SETTING GEOMTYP        =    XYZ
 ZUNIT=BOHR
 

 Variable memory set to  995000000 words,  buffer space   230000 words

 SETTING BASIS          =    AVTZ


 Recomputing integrals since basis changed


 Using spherical harmonics

 Library entry N      S aug-cc-pVTZ          selected for orbital group  1
 Library entry N      P aug-cc-pVTZ          selected for orbital group  1
 Library entry N      D aug-cc-pVTZ          selected for orbital group  1
 Library entry N      F aug-cc-pVTZ          selected for orbital group  1
 Library entry H      S aug-cc-pVTZ          selected for orbital group  2
 Library entry H      P aug-cc-pVTZ          selected for orbital group  2
 Library entry H      D aug-cc-pVTZ          selected for orbital group  2
 Library entry O      S aug-cc-pVTZ          selected for orbital group  3
 Library entry O      P aug-cc-pVTZ          selected for orbital group  3
 Library entry O      D aug-cc-pVTZ          selected for orbital group  3
 Library entry O      F aug-cc-pVTZ          selected for orbital group  3


 PROGRAM * SEWARD (Integral evaluation for generally contracted gaussian basis sets)     Author: Roland Lindh, 1990

 Geometry written to block  1 of record 700


 Point group  Cs  



 ATOMIC COORDINATES

 NR  ATOM    CHARGE       X              Y              Z

   1  N       7.00    0.000000000   -0.154635197   -1.154593692
   2  H       1.00    0.000000000    1.658337121   -1.923176066
   3  O       8.00    0.000000000    0.038065866    1.127180166

 Bond lengths in Bohr (Angstrom)

 1-2  1.969159082  1-3  2.289896425
     ( 1.042034111)     ( 1.211761004)

 Bond angles

  2-1-3  108.14648049

 NUCLEAR CHARGE:                   16
 NUMBER OF PRIMITIVE AOS:         161
 NUMBER OF SYMMETRY AOS:          141
 NUMBER OF CONTRACTIONS:          115   (  76A'  +  39A"  )
 NUMBER OF CORE ORBITALS:           2   (   2A'  +   0A"  )
 NUMBER OF VALENCE ORBITALS:        9   (   7A'  +   2A"  )


 NUCLEAR REPULSION ENERGY   30.32624256

 Eigenvalues of metric

         1 0.231E-03 0.496E-03 0.180E-02 0.210E-02 0.256E-02 0.363E-02 0.428E-02 0.507E-02
         2 0.399E-02 0.990E-02 0.263E-01 0.369E-01 0.512E-01 0.618E-01 0.818E-01 0.119E+00


 Contracted 2-electron integrals neglected if value below      1.0D-22

       10790060. INTEGRALS WRITTEN OUT IN    2635 BLOCKS ON RECORD 1290 OF FILE 1


 NUMBER OF SORTED TWO-ELECTRON INTEGRALS:   11433631.     BUFFER LENGTH:  32768
 NUMBER OF SEGMENTS:   1  SEGMENT LENGTH:   11433631      RECORD LENGTH: 524288

 Memory used in sort:      11.99 MW

 SORT1 READ    10790060. AND WROTE    10943631. INTEGRALS IN     32 RECORDS. CPU TIME:     0.23 SEC, REAL TIME:     0.30 SEC
 SORT2 READ    10943631. AND WROTE    11433631. INTEGRALS IN      1 RECORDS. CPU TIME:     0.18 SEC, REAL TIME:     0.25 SEC

 FILE SIZES:   FILE 1:   193.0 MBYTE,  FILE 4:   134.3 MBYTE,   TOTAL:    327.2 MBYTE

 OPERATOR DM      FOR CENTER  0  COORDINATES:    0.000000    0.000000    0.000000


 **********************************************************************************************************************************
 DATASETS  * FILE   NREC   LENGTH (MB)   RECORD NAMES
              1      19      111.05       500      610      700      900      950      970     1000      129      960     1100   
                                          VAR    BASINP    GEOM    SYMINP    ZMAT    AOBASIS   BASIS     P2S    ABASIS      S 
                                         1400     1410     1200     1210     1080     1600     1650     1300     1700   
                                           T        V       H0       H01     AOSYM     SMH    MOLCAS    ERIS     OPER   

 PROGRAMS   *        TOTAL       INT
 CPU TIMES  *         1.61      1.52
 REAL TIME  *         2.40 SEC
 DISK USED  *       327.55 MB      
 **********************************************************************************************************************************


 PROGRAM * RHF-SCF (CLOSED SHELL)       Authors: W. Meyer, H.-J. Werner


 NUMBER OF ELECTRONS:       8+    8-
 CONVERGENCE THRESHOLDS:    1.00E-10 (Density)    1.00E-13 (Energy)
 MAX. NUMBER OF ITERATIONS:      500
 INTERPOLATION TYPE:            DIIS
 INTERPOLATION STEPS:              2 (START)      1 (STEP)
 LEVEL SHIFTS:                  0.00 (CLOSED)  0.00 (OPEN) 



 Orbital guess generated from atomic densities. Full valence occupancy:    9   2

 Molecular orbital dump at record        2100.2

 Initial occupancy:   7   1

 ITERATION    DDIFF          GRAD             ENERGY        2-EL.EN.            DIPOLE MOMENTS         DIIS   ORB.
    1      0.000D+00      0.000D+00      -129.78805775    153.826385    0.00000    0.59958   -1.03168    0    start
    2      0.000D+00      0.107D-01      -129.81541252    155.075692    0.00000    0.61388   -0.21198    1    diag
    3      0.119D-01      0.825D-02      -129.83820185    155.198573    0.00000    0.56212   -0.59910    2    diag
    4      0.594D-02      0.128D-02      -129.83899973    154.908645    0.00000    0.56956   -0.53855    3    diag
    5      0.108D-02      0.422D-03      -129.83912517    155.002133    0.00000    0.57500   -0.54124    4    diag
    6      0.450D-03      0.121D-03      -129.83914506    154.986647    0.00000    0.57535   -0.53711    5    diag
    7      0.171D-03      0.603D-04      -129.83915085    154.989072    0.00000    0.57656   -0.53450    6    diag
    8      0.119D-03      0.207D-04      -129.83915149    154.988413    0.00000    0.57658   -0.53348    7    diag
    9      0.452D-04      0.392D-05      -129.83915152    154.988306    0.00000    0.57654   -0.53326    8    diag
   10      0.873D-05      0.885D-06      -129.83915152    154.988288    0.00000    0.57651   -0.53323    9    orth
   11      0.174D-05      0.175D-06      -129.83915152    154.988285    0.00000    0.57650   -0.53323    9    diag
   12      0.329D-06      0.361D-07      -129.83915152    154.988285    0.00000    0.57650   -0.53323    9    diag
   13      0.706D-07      0.917D-08      -129.83915152    154.988285    0.00000    0.57650   -0.53323    9    diag
   14      0.186D-07      0.188D-08      -129.83915152    154.988285    0.00000    0.57650   -0.53323    9    diag
   15      0.361D-08      0.519D-09      -129.83915152    154.988285    0.00000    0.57650   -0.53323    9    diag
   16      0.987D-09      0.139D-09      -129.83915152    154.988285    0.00000    0.57650   -0.53323    9    diag
   17      0.168D-09      0.374D-10      -129.83915152    154.988285    0.00000    0.57650   -0.53323    9    diag
   18      0.448D-10      0.130D-10      -129.83915152    154.988285    0.00000    0.57650   -0.53323    0    orth

 Final occupancy:   7   1

 !RHF STATE 1.1 Energy               -129.839151516875
 Nuclear energy                        30.32624256
 One-electron energy                 -237.65953645
 Two-electron energy                   77.49414237
 Virial quotient                       -1.00214732
 !RHF STATE 1.1 Dipole moment           0.00000000     0.57649901    -0.53322809
 Dipole moment /Debye                   0.00000000     1.46521836    -1.35524186

 Orbital energies:

         1.1          2.1          3.1          4.1          5.1          6.1          7.1          8.1          9.1
    -20.656742   -15.713780    -1.527834    -0.998470    -0.747255    -0.665010    -0.432237     0.029141     0.092157

         1.2          2.2          3.2
     -0.594299     0.063804     0.129908

 HOMO      7.1    -0.432237 =     -11.7618eV
 LUMO      8.1     0.029141 =       0.7930eV
 LUMO-HOMO         0.461378 =      12.5547eV


 **********************************************************************************************************************************
 DATASETS  * FILE   NREC   LENGTH (MB)   RECORD NAMES
              1      19      111.05       500      610      700      900      950      970     1000      129      960     1100   
                                          VAR    BASINP    GEOM    SYMINP    ZMAT    AOBASIS   BASIS     P2S    ABASIS      S 
                                         1400     1410     1200     1210     1080     1600     1650     1300     1700   
                                           T        V       H0       H01     AOSYM     SMH    MOLCAS    ERIS     OPER   

              2       4        2.94       700     1000      520     2100   
                                         GEOM     BASIS   MCVARS     RHF  

 PROGRAMS   *        TOTAL        HF       INT
 CPU TIMES  *         2.81      1.20      1.52
 REAL TIME  *         3.80 SEC
 DISK USED  *       327.55 MB      
 **********************************************************************************************************************************


 PROGRAM * CCSD (Closed-shell coupled cluster)     Authors: C. Hampel, H.-J. Werner, 1991, M. Deegan, P.J. Knowles, 1992


 Convergence thresholds:  THRVAR = 1.00D-08  THRDEN = 1.00D-12

 CCSD(T)     terms to be evaluated (factor= 1.000)


 Number of core orbitals:           2 (   2   0 )
 Number of closed-shell orbitals:   6 (   5   1 )
 Number of external orbitals:     107 (  69  38 )

 Molecular orbitals read from record     2100.2  Type=RHF/CANONICAL (state 1.1)

 Number of N-1 electron functions:               6
 Number of N-2 electron functions:              21
 Number of singly external CSFs:               383
 Number of doubly external CSFs:            107206
 Total number of CSFs:                      107590

 Length of J-op  integral file:               0.00 MB
 Length of K-op  integral file:               0.54 MB
 Length of 3-ext integral record:             0.00 MB

 Memory could be reduced to 5.94 Mwords without degradation in triples

 Integral transformation finished. Total CPU:   0.20 sec, npass=  1  Memory used:   1.65 MW

 Reference energy:                   -129.83915152

 MP2 singlet pair energy:              -0.27960766
 MP2 triplet pair energy:              -0.16531430
 MP2 correlation energy:               -0.44492197
 MP2 total energy:                   -130.28407348

 SCS-MP2 correlation energy:           -0.43839143   (PS=  1.200000  PT=  0.333333)
 SCS-MP2 total energy:               -130.27754295

 ITER.      SQ.NORM     CORR.ENERGY   TOTAL ENERGY   ENERGY CHANGE        DEN1      VAR(S)    VAR(P)  DIIS     TIME  TIME/IT
   1      1.12102616    -0.44890881  -130.28806032    -0.00398684     0.01215336  0.32D-02  0.32D-02  1  1     0.44     0.24
   2      1.13218230    -0.44908221  -130.28823372    -0.00017340    -0.01248499  0.10D-03  0.51D-03  2  2     0.67     0.25
   3      1.13869989    -0.44948243  -130.28863395    -0.00040023    -0.00300720  0.53D-04  0.52D-04  3  3     0.91     0.25
   4      1.14161875    -0.44949561  -130.28864713    -0.00001317    -0.00098317  0.42D-05  0.93D-05  4  4     1.14     0.25
   5      1.14267883    -0.44952450  -130.28867602    -0.00002889    -0.00022390  0.11D-05  0.17D-05  5  5     1.38     0.25
   6      1.14302337    -0.44950717  -130.28865869     0.00001733    -0.00004229  0.93D-07  0.40D-06  6  6     1.62     0.25
   7      1.14309660    -0.44950863  -130.28866015    -0.00000145    -0.00000150  0.17D-07  0.95D-07  6  1     1.86     0.25
   8      1.14311754    -0.44950930  -130.28866081    -0.00000067     0.00000171  0.36D-08  0.17D-07  6  2     2.09     0.25
   9      1.14312599    -0.44950873  -130.28866025     0.00000056    -0.00000091  0.26D-08  0.17D-08  6  3     2.32     0.25
  10      1.14312610    -0.44950925  -130.28866077    -0.00000052     0.00000000  0.51D-09  0.25D-09  6  4     2.57     0.25
  11      1.14312447    -0.44950937  -130.28866089    -0.00000012     0.00000053  0.15D-09  0.32D-10  6  5     2.82     0.25
  12      1.14312317    -0.44950955  -130.28866107    -0.00000018     0.00000042  0.15D-10  0.89D-11  6  6     3.06     0.25
  13      1.14312245    -0.44950957  -130.28866109    -0.00000002     0.00000017  0.53D-11  0.17D-11  6  1     3.30     0.25
  14      1.14312202    -0.44950960  -130.28866111    -0.00000002     0.00000009  0.82D-12  0.56D-12  6  2     3.54     0.25
  15      1.14312185    -0.44950960  -130.28866112    -0.00000000     0.00000002  0.24D-12  0.17D-12  6  3     3.78     0.25
  16      1.14312176    -0.44950960  -130.28866112    -0.00000000     0.00000001  0.38D-13  0.61D-13  6  4     4.02     0.25
  17      1.14312171    -0.44950961  -130.28866112    -0.00000000     0.00000001  0.27D-14  0.14D-13  6  5     4.26     0.25
  18      1.14312170    -0.44950961  -130.28866112     0.00000000     0.00000000  0.12D-14  0.31D-14  6  6     4.50     0.25
  19      1.14312170    -0.44950961  -130.28866112     0.00000000    -0.00000000  0.15D-15  0.22D-15  6  5     4.73     0.25
  20      1.14312170    -0.44950961  -130.28866112    -0.00000000    -0.00000000  0.62D-16  0.39D-16  6  1     4.98     0.25
  21      1.14312170    -0.44950961  -130.28866112     0.00000000     0.00000000  0.14D-16  0.88D-17  6  2     5.22     0.25
  22      1.14312170    -0.44950961  -130.28866112    -0.00000000     0.00000000  0.36D-17  0.98D-18  6  3     5.46     0.25
  23      1.14312170    -0.44950961  -130.28866112     0.00000000     0.00000000  0.85D-18  0.30D-18  6  4     5.70     0.25
  24      1.14312170    -0.44950961  -130.28866112    -0.00000000     0.00000000  0.25D-18  0.57D-19  6  6     5.93     0.25
  25      1.14312170    -0.44950961  -130.28866112     0.00000000    -0.00000000  0.43D-19  0.27D-19  6  5     6.16     0.25
  26      1.14312170    -0.44950961  -130.28866112     0.00000000    -0.00000000  0.60D-20  0.10D-19  6  1     6.40     0.25
  27      1.14312170    -0.44950961  -130.28866112    -0.00000000    -0.00000000  0.29D-21  0.14D-20  6  3     6.62     0.25
  28      1.14312170    -0.44950961  -130.28866112     0.00000000     0.00000000  0.75D-22  0.18D-21  6  2     6.86     0.25

 Norm of t1 vector:      0.07862269      S-energy:     0.00000000      T1 diagnostic:  0.01604879
                                                                       D1 diagnostic:  0.04257400

 Doubles amplitudes (print threshold =  0.500E-01):

         I         J         SYM. A    SYM. B    A         B      T(IJ, AB)

         6         6         2         2         1         1     -0.11069232


 Total CPU time for triples:      1.79 sec


 RESULTS
 =======

  Reference energy                   -129.839151516875
  CCSD singlet pair energy             -0.308233670994
  CCSD triplet pair energy             -0.141275934942
  CCSD correlation energy              -0.449509605934

  Triples (T) contribution             -0.020965733930
  Total correlation energy             -0.470475339864

  CCSD total energy                  -130.288661122809
  CCSD[T] energy                     -130.310699645232
  CCSD-T energy                      -130.309222456636
 !CCSD(T) total energy               -130.309626856739

 Timing summary (sec):

 STEP                 CPU(USER)    SYS     CPU(TOT)    WALL
 Transformation          0.20      0.04      0.24      0.25
 CCSD iterations         6.67      0.45      7.12      7.09
 Triples                 1.79      0.03      1.82      1.83

 Program statistics:

 Available memory in ccsd:               994999756
 Min. memory needed in ccsd:                389120
 Max. memory used in ccsd:                  473124
 Max. memory used in cckext:                599488 (28 integral passes)



 **********************************************************************************************************************************
 DATASETS  * FILE   NREC   LENGTH (MB)   RECORD NAMES
              1      20      128.20       500      610      700      900      950      970     1000      129      960     1100   
                                          VAR    BASINP    GEOM    SYMINP    ZMAT    AOBASIS   BASIS     P2S    ABASIS      S 
                                         1400     1410     1200     1210     1080     1600     1650     1300     1700     1380   
                                           T        V       H0       H01     AOSYM     SMH    MOLCAS    ERIS     OPER     JKOP   

              2       4        2.94       700     1000      520     2100   
                                         GEOM     BASIS   MCVARS     RHF  

 PROGRAMS   *        TOTAL   CCSD(T)        HF       INT
 CPU TIMES  *        11.48      8.67      1.20      1.52
 REAL TIME  *        13.03 SEC
 DISK USED  *       327.55 MB      
 **********************************************************************************************************************************

 CCSD(T)/aug-cc-pVTZ energy=   -130.309626856739

        CCSD(T)         HF-SCF  
   -130.30962686   -129.83915152
 **********************************************************************************************************************************
 Molpro calculation terminated
 Variable memory released
