
 Primary working directories    : /tmp/r2666/234927.maple
 Secondary working directories  : /tmp/r2666/234927.maple
 Wavefunction directory         : /ddn/home4/r2666/wfu/
 Main file repository           : /tmp/r2666/234927.maple/

 SHA1      : d5ffa45e93fdbca01ffc919aa182cfdae0147319
 NAME      : 2015.1.35
 ARCHNAME  : linux/x86_64
 FC        : /opt/intel/composer_xe_2015.1.133/bin/intel64/ifort
 BLASLIB   : -Wl,-_start-group /opt/intel/mkl/lib/intel64/libmkl_intel_ilp64.a /opt/intel/mkl/lib/intel64/libmkl_intel_thread.a /opt/intel/mkl/lib/intel64/libmkl_core.a -Wl,-_end-group
 id        : olemiss

 Nodes     nprocs
 cn036        1

 Using customized tuning parameters: mindgm=1; mindgv=20; mindgc=4; mindgr=1; noblas=0; minvec=7
 default implementation of scratch files=df  

 ***,hno CCSD(T)/TZ-F12 QFF
 memory, 995, m;
 gthresh,energy=1.d-12,zero=1.d-22,oneint=1.d-22,twoint=1.d-22;
 gthresh,optgrad=1.d-8,optstep=1.d-8;
 nocompress;
 geomtyp=xyz
 bohr
 geometry={
 3
         41        41
 N        0.0000000000       -0.1604159795       -1.1632813765
 H        0.0000000000        1.6645328448       -1.9277748474
 O        0.0000000000        0.0376509246        1.1404666329
 }
 
 basis=avtz
   {hf,maxit=500;accu,20;}
 {ccsd(t),nocheck,maxit=250;orbital,IGNORE_ERROR;}

 Variables initialized (889), CPU time= 0.00 sec
 Commands  initialized (702), CPU time= 0.00 sec, 572 directives.
 Default parameters read. Elapsed time= 0.05 sec

 Checking input...
 Passed
1


                                         ***  PROGRAM SYSTEM MOLPRO  ***
                                       Copyright, TTI GmbH Stuttgart, 2015
                                    Version 2015.1 linked Jul  9 2018 13:16:40


 **********************************************************************************************************************************
 LABEL *   hno CCSD(T)/TZ-F12 QFF                                                        
  64 bit serial version                                                                  DATE: 08-Feb-20          TIME: 17:56:17  
 **********************************************************************************************************************************

 SHA1:             d5ffa45e93fdbca01ffc919aa182cfdae0147319
 **********************************************************************************************************************************

 THRESHOLDS:

 ZERO    =  1.00D-22  ONEINT  =  1.00D-22  TWOINT  =  1.00D-22  PREFAC  =  1.00D-14  LOCALI  =  1.00D-09  EORDER  =  1.00D-04
 ENERGY  =  1.00D-12  ETEST   =  0.00D+00  EDENS   =  0.00D+00  THRDEDEF=  1.00D-06  GRADIENT=  1.00D-02  STEP    =  1.00D-03
 ORBITAL =  1.00D-05  CIVEC   =  1.00D-05  COEFF   =  1.00D-04  PRINTCI =  5.00D-02  PUNCHCI =  9.90D+01  OPTGRAD =  3.00D-04
 OPTENERG=  1.00D-06  OPTSTEP =  3.00D-04  THRGRAD =  1.00D-10  COMPRESS=  1.00D-11  VARMIN  =  1.00D-07  VARMAX  =  1.00D-03
 THRDOUB =  0.00D+00  THRDIV  =  1.00D-05  THRRED  =  1.00D-07  THRPSP  =  1.00D+00  THRDC   =  1.00D-10  THRCS   =  1.00D-10
 THRNRM  =  1.00D-08  THREQ   =  0.00D+00  THRDE   =  1.00D+00  THRREF  =  1.00D-05  SPARFAC =  1.00D+00  THRDLP  =  1.00D-07
 THRDIA  =  1.00D-10  THRDLS  =  1.00D-07  THRGPS  =  0.00D+00  THRKEX  =  0.00D+00  THRDIS  =  2.00D-01  THRVAR  =  1.00D-10
 THRLOC  =  1.00D-06  THRGAP  =  1.00D-06  THRLOCT = -1.00D+00  THRGAPT = -1.00D+00  THRORB  =  1.00D-06  THRMLTP =  0.00D+00
 THRCPQCI=  1.00D-10  KEXTA   =  0.00D+00  THRCOARS=  0.00D+00  SYMTOL  =  1.00D-06  GRADTOL =  1.00D-06  THROVL  =  1.00D-08
 THRORTH =  1.00D-08  GRID    =  1.00D-06  GRIDMAX =  1.00D-03  DTMAX   =  0.00D+00  THROCCDE=  1.00D-01  THROCCDE=  1.00D-01



 THRESHOLDS:

 ZERO    =  1.00D-22  ONEINT  =  1.00D-22  TWOINT  =  1.00D-22  PREFAC  =  1.00D-14  LOCALI  =  1.00D-09  EORDER  =  1.00D-04
 ENERGY  =  1.00D-12  ETEST   =  0.00D+00  EDENS   =  0.00D+00  THRDEDEF=  1.00D-06  GRADIENT=  1.00D-02  STEP    =  1.00D-03
 ORBITAL =  1.00D-05  CIVEC   =  1.00D-05  COEFF   =  1.00D-04  PRINTCI =  5.00D-02  PUNCHCI =  9.90D+01  OPTGRAD =  1.00D-08
 OPTENERG=  1.00D-06  OPTSTEP =  1.00D-08  THRGRAD =  1.00D-10  COMPRESS=  1.00D-11  VARMIN  =  1.00D-07  VARMAX  =  1.00D-03
 THRDOUB =  0.00D+00  THRDIV  =  1.00D-05  THRRED  =  1.00D-07  THRPSP  =  1.00D+00  THRDC   =  1.00D-10  THRCS   =  1.00D-10
 THRNRM  =  1.00D-08  THREQ   =  0.00D+00  THRDE   =  1.00D+00  THRREF  =  1.00D-05  SPARFAC =  1.00D+00  THRDLP  =  1.00D-07
 THRDIA  =  1.00D-10  THRDLS  =  1.00D-07  THRGPS  =  0.00D+00  THRKEX  =  0.00D+00  THRDIS  =  2.00D-01  THRVAR  =  1.00D-10
 THRLOC  =  1.00D-06  THRGAP  =  1.00D-06  THRLOCT = -1.00D+00  THRGAPT = -1.00D+00  THRORB  =  1.00D-06  THRMLTP =  0.00D+00
 THRCPQCI=  1.00D-10  KEXTA   =  0.00D+00  THRCOARS=  0.00D+00  SYMTOL  =  1.00D-06  GRADTOL =  1.00D-06  THROVL  =  1.00D-08
 THRORTH =  1.00D-08  GRID    =  1.00D-06  GRIDMAX =  1.00D-03  DTMAX   =  0.00D+00  THROCCDE=  1.00D-01  THROCCDE=  1.00D-01



 Input parameters for SORTINT:

 COMPRESS =    0.000000
 C_FINAL  =    1.000000
 DEBUG    =   -1.000000
 C_SORT1  =    0.000000
 C_SEWARD =    0.000000
 THRESH   =    0.000000
 IO       =  molpro                                                          
 SPRI     =    0.000000
 SETTING GEOMTYP        =    XYZ
 ZUNIT=BOHR
 

 Variable memory set to  995000000 words,  buffer space   230000 words

 SETTING BASIS          =    AVTZ


 Recomputing integrals since basis changed


 Using spherical harmonics

 Library entry N      S aug-cc-pVTZ          selected for orbital group  1
 Library entry N      P aug-cc-pVTZ          selected for orbital group  1
 Library entry N      D aug-cc-pVTZ          selected for orbital group  1
 Library entry N      F aug-cc-pVTZ          selected for orbital group  1
 Library entry H      S aug-cc-pVTZ          selected for orbital group  2
 Library entry H      P aug-cc-pVTZ          selected for orbital group  2
 Library entry H      D aug-cc-pVTZ          selected for orbital group  2
 Library entry O      S aug-cc-pVTZ          selected for orbital group  3
 Library entry O      P aug-cc-pVTZ          selected for orbital group  3
 Library entry O      D aug-cc-pVTZ          selected for orbital group  3
 Library entry O      F aug-cc-pVTZ          selected for orbital group  3


 PROGRAM * SEWARD (Integral evaluation for generally contracted gaussian basis sets)     Author: Roland Lindh, 1990

 Geometry written to block  1 of record 700


 Point group  Cs  



 ATOMIC COORDINATES

 NR  ATOM    CHARGE       X              Y              Z

   1  N       7.00    0.000000000   -0.160415979   -1.163281377
   2  H       1.00    0.000000000    1.664532845   -1.927774847
   3  O       8.00    0.000000000    0.037650925    1.140466633

 Bond lengths in Bohr (Angstrom)

 1-2  1.978607712  1-3  2.312246827
     ( 1.047034111)     ( 1.223588327)

 Bond angles

  2-1-3  107.81543388

 NUCLEAR CHARGE:                   16
 NUMBER OF PRIMITIVE AOS:         161
 NUMBER OF SYMMETRY AOS:          141
 NUMBER OF CONTRACTIONS:          115   (  76A'  +  39A"  )
 NUMBER OF CORE ORBITALS:           2   (   2A'  +   0A"  )
 NUMBER OF VALENCE ORBITALS:        9   (   7A'  +   2A"  )


 NUCLEAR REPULSION ENERGY   30.06027687

 Eigenvalues of metric

         1 0.236E-03 0.505E-03 0.183E-02 0.215E-02 0.266E-02 0.382E-02 0.433E-02 0.519E-02
         2 0.413E-02 0.101E-01 0.269E-01 0.374E-01 0.517E-01 0.623E-01 0.842E-01 0.121E+00


 Contracted 2-electron integrals neglected if value below      1.0D-22

       10790064. INTEGRALS WRITTEN OUT IN    2635 BLOCKS ON RECORD 1290 OF FILE 1


 NUMBER OF SORTED TWO-ELECTRON INTEGRALS:   11433631.     BUFFER LENGTH:  32768
 NUMBER OF SEGMENTS:   1  SEGMENT LENGTH:   11433631      RECORD LENGTH: 524288

 Memory used in sort:      11.99 MW

 SORT1 READ    10790064. AND WROTE    10943632. INTEGRALS IN     32 RECORDS. CPU TIME:     0.29 SEC, REAL TIME:     0.36 SEC
 SORT2 READ    10943632. AND WROTE    11433631. INTEGRALS IN      1 RECORDS. CPU TIME:     0.20 SEC, REAL TIME:     0.26 SEC

 FILE SIZES:   FILE 1:   193.0 MBYTE,  FILE 4:   134.3 MBYTE,   TOTAL:    327.2 MBYTE

 OPERATOR DM      FOR CENTER  0  COORDINATES:    0.000000    0.000000    0.000000


 **********************************************************************************************************************************
 DATASETS  * FILE   NREC   LENGTH (MB)   RECORD NAMES
              1      19      111.05       500      610      700      900      950      970     1000      129      960     1100   
                                          VAR    BASINP    GEOM    SYMINP    ZMAT    AOBASIS   BASIS     P2S    ABASIS      S 
                                         1400     1410     1200     1210     1080     1600     1650     1300     1700   
                                           T        V       H0       H01     AOSYM     SMH    MOLCAS    ERIS     OPER   

 PROGRAMS   *        TOTAL       INT
 CPU TIMES  *         1.65      1.57
 REAL TIME  *         2.47 SEC
 DISK USED  *       327.55 MB      
 **********************************************************************************************************************************


 PROGRAM * RHF-SCF (CLOSED SHELL)       Authors: W. Meyer, H.-J. Werner


 NUMBER OF ELECTRONS:       8+    8-
 CONVERGENCE THRESHOLDS:    1.00E-10 (Density)    1.00E-13 (Energy)
 MAX. NUMBER OF ITERATIONS:      500
 INTERPOLATION TYPE:            DIIS
 INTERPOLATION STEPS:              2 (START)      1 (STEP)
 LEVEL SHIFTS:                  0.00 (CLOSED)  0.00 (OPEN) 



 Orbital guess generated from atomic densities. Full valence occupancy:    9   2

 Molecular orbital dump at record        2100.2

 Initial occupancy:   7   1

 ITERATION    DDIFF          GRAD             ENERGY        2-EL.EN.            DIPOLE MOMENTS         DIIS   ORB.
    1      0.000D+00      0.000D+00      -129.78400089    153.348518    0.00000    0.59853   -1.07014    0    start
    2      0.000D+00      0.109D-01      -129.81089015    154.575273    0.00000    0.62087   -0.20146    1    diag
    3      0.123D-01      0.863D-02      -129.83603308    154.725068    0.00000    0.56437   -0.61452    2    diag
    4      0.617D-02      0.130D-02      -129.83685580    154.425528    0.00000    0.57163   -0.55221    3    diag
    5      0.109D-02      0.430D-03      -129.83698701    154.520416    0.00000    0.57711   -0.55470    4    diag
    6      0.461D-03      0.124D-03      -129.83700795    154.504684    0.00000    0.57741   -0.55034    5    diag
    7      0.176D-03      0.623D-04      -129.83701423    154.507023    0.00000    0.57860   -0.54756    6    diag
    8      0.123D-03      0.222D-04      -129.83701500    154.506313    0.00000    0.57861   -0.54643    7    diag
    9      0.498D-04      0.426D-05      -129.83701503    154.506193    0.00000    0.57857   -0.54619    8    diag
   10      0.985D-05      0.937D-06      -129.83701504    154.506174    0.00000    0.57854   -0.54617    9    orth
   11      0.184D-05      0.183D-06      -129.83701504    154.506172    0.00000    0.57853   -0.54617    9    diag
   12      0.341D-06      0.391D-07      -129.83701504    154.506172    0.00000    0.57853   -0.54617    9    diag
   13      0.737D-07      0.103D-07      -129.83701504    154.506172    0.00000    0.57853   -0.54616    9    diag
   14      0.203D-07      0.213D-08      -129.83701504    154.506172    0.00000    0.57853   -0.54616    9    diag
   15      0.383D-08      0.584D-09      -129.83701504    154.506172    0.00000    0.57853   -0.54616    9    diag
   16      0.107D-08      0.153D-09      -129.83701504    154.506172    0.00000    0.57853   -0.54616    9    diag
   17      0.174D-09      0.415D-10      -129.83701504    154.506172    0.00000    0.57853   -0.54616    9    diag
   18      0.493D-10      0.145D-10      -129.83701504    154.506172    0.00000    0.57853   -0.54616    0    orth

 Final occupancy:   7   1

 !RHF STATE 1.1 Energy               -129.837015036472
 Nuclear energy                        30.06027687
 One-electron energy                 -237.15037776
 Two-electron energy                   77.25308585
 Virial quotient                       -1.00254193
 !RHF STATE 1.1 Dipole moment           0.00000000     0.57852726    -0.54616453
 Dipole moment /Debye                   0.00000000     1.47037332    -1.38812085

 Orbital energies:

         1.1          2.1          3.1          4.1          5.1          6.1          7.1          8.1          9.1
    -20.657900   -15.716571    -1.518452    -0.999751    -0.743178    -0.661602    -0.435725     0.029003     0.092123

         1.2          2.2          3.2
     -0.588924     0.060532     0.129743

 HOMO      7.1    -0.435725 =     -11.8567eV
 LUMO      8.1     0.029003 =       0.7892eV
 LUMO-HOMO         0.464728 =      12.6459eV


 **********************************************************************************************************************************
 DATASETS  * FILE   NREC   LENGTH (MB)   RECORD NAMES
              1      19      111.05       500      610      700      900      950      970     1000      129      960     1100   
                                          VAR    BASINP    GEOM    SYMINP    ZMAT    AOBASIS   BASIS     P2S    ABASIS      S 
                                         1400     1410     1200     1210     1080     1600     1650     1300     1700   
                                           T        V       H0       H01     AOSYM     SMH    MOLCAS    ERIS     OPER   

              2       4        2.94       700     1000      520     2100   
                                         GEOM     BASIS   MCVARS     RHF  

 PROGRAMS   *        TOTAL        HF       INT
 CPU TIMES  *         2.75      1.10      1.57
 REAL TIME  *         3.86 SEC
 DISK USED  *       327.55 MB      
 **********************************************************************************************************************************


 PROGRAM * CCSD (Closed-shell coupled cluster)     Authors: C. Hampel, H.-J. Werner, 1991, M. Deegan, P.J. Knowles, 1992


 Convergence thresholds:  THRVAR = 1.00D-08  THRDEN = 1.00D-12

 CCSD(T)     terms to be evaluated (factor= 1.000)


 Number of core orbitals:           2 (   2   0 )
 Number of closed-shell orbitals:   6 (   5   1 )
 Number of external orbitals:     107 (  69  38 )

 Molecular orbitals read from record     2100.2  Type=RHF/CANONICAL (state 1.1)

 Number of N-1 electron functions:               6
 Number of N-2 electron functions:              21
 Number of singly external CSFs:               383
 Number of doubly external CSFs:            107206
 Total number of CSFs:                      107590

 Length of J-op  integral file:               0.00 MB
 Length of K-op  integral file:               0.54 MB
 Length of 3-ext integral record:             0.00 MB

 Memory could be reduced to 5.94 Mwords without degradation in triples

 Integral transformation finished. Total CPU:   0.18 sec, npass=  1  Memory used:   1.65 MW

 Reference energy:                   -129.83701504

 MP2 singlet pair energy:              -0.28098853
 MP2 triplet pair energy:              -0.16623182
 MP2 correlation energy:               -0.44722035
 MP2 total energy:                   -130.28423539

 SCS-MP2 correlation energy:           -0.44061937   (PS=  1.200000  PT=  0.333333)
 SCS-MP2 total energy:               -130.27763441

 ITER.      SQ.NORM     CORR.ENERGY   TOTAL ENERGY   ENERGY CHANGE        DEN1      VAR(S)    VAR(P)  DIIS     TIME  TIME/IT
   1      1.12249571    -0.45072484  -130.28773987    -0.00350449     0.01318686  0.33D-02  0.33D-02  1  1     0.38     0.22
   2      1.13398228    -0.45079882  -130.28781385    -0.00007398    -0.01280697  0.11D-03  0.53D-03  2  2     0.58     0.22
   3      1.14078640    -0.45122244  -130.28823747    -0.00042362    -0.00309862  0.58D-04  0.55D-04  3  3     0.80     0.23
   4      1.14386399    -0.45123587  -130.28825091    -0.00001343    -0.00102618  0.46D-05  0.98D-05  4  4     1.00     0.23
   5      1.14500883    -0.45126751  -130.28828255    -0.00003164    -0.00024127  0.12D-05  0.17D-05  5  5     1.22     0.23
   6      1.14537439    -0.45124845  -130.28826349     0.00001906    -0.00004524  0.10D-06  0.40D-06  6  6     1.42     0.23
   7      1.14544826    -0.45125005  -130.28826508    -0.00000159    -0.00000114  0.17D-07  0.97D-07  6  1     1.62     0.23
   8      1.14546958    -0.45125056  -130.28826560    -0.00000052     0.00000169  0.34D-08  0.18D-07  6  2     1.82     0.23
   9      1.14547840    -0.45124994  -130.28826498     0.00000062    -0.00000091  0.27D-08  0.20D-08  6  3     2.04     0.23
  10      1.14547861    -0.45125048  -130.28826552    -0.00000054    -0.00000002  0.54D-09  0.29D-09  6  4     2.23     0.23
  11      1.14547696    -0.45125060  -130.28826564    -0.00000012     0.00000053  0.16D-09  0.36D-10  6  5     2.43     0.23
  12      1.14547558    -0.45125080  -130.28826584    -0.00000020     0.00000044  0.16D-10  0.99D-11  6  6     2.62     0.23
  13      1.14547481    -0.45125083  -130.28826586    -0.00000002     0.00000018  0.58D-11  0.19D-11  6  1     2.82     0.23
  14      1.14547434    -0.45125085  -130.28826589    -0.00000002     0.00000010  0.85D-12  0.62D-12  6  2     3.03     0.23
  15      1.14547415    -0.45125086  -130.28826589    -0.00000001     0.00000002  0.25D-12  0.18D-12  6  3     3.23     0.23
  16      1.14547405    -0.45125086  -130.28826590    -0.00000000     0.00000001  0.42D-13  0.65D-13  6  4     3.44     0.23
  17      1.14547399    -0.45125086  -130.28826590    -0.00000000     0.00000001  0.29D-14  0.15D-13  6  5     3.64     0.23
  18      1.14547398    -0.45125086  -130.28826590     0.00000000     0.00000000  0.11D-14  0.34D-14  6  6     3.83     0.23
  19      1.14547398    -0.45125086  -130.28826590     0.00000000    -0.00000000  0.15D-15  0.24D-15  6  5     4.03     0.23
  20      1.14547398    -0.45125086  -130.28826590    -0.00000000    -0.00000000  0.59D-16  0.39D-16  6  1     4.23     0.23
  21      1.14547398    -0.45125086  -130.28826590     0.00000000     0.00000000  0.14D-16  0.85D-17  6  2     4.44     0.23
  22      1.14547398    -0.45125086  -130.28826590    -0.00000000     0.00000000  0.38D-17  0.98D-18  6  3     4.64     0.23
  23      1.14547398    -0.45125086  -130.28826590     0.00000000     0.00000000  0.96D-18  0.31D-18  6  4     4.84     0.23
  24      1.14547398    -0.45125086  -130.28826590    -0.00000000     0.00000000  0.27D-18  0.60D-19  6  6     5.05     0.23
  25      1.14547398    -0.45125086  -130.28826590     0.00000000    -0.00000000  0.43D-19  0.28D-19  6  5     5.25     0.23
  26      1.14547398    -0.45125086  -130.28826590     0.00000000    -0.00000000  0.65D-20  0.11D-19  6  1     5.45     0.23
  27      1.14547398    -0.45125086  -130.28826590    -0.00000000    -0.00000000  0.29D-21  0.14D-20  6  3     5.64     0.23
  28      1.14547398    -0.45125086  -130.28826590     0.00000000     0.00000000  0.72D-22  0.18D-21  6  2     5.83     0.23

 Norm of t1 vector:      0.08077118      S-energy:     0.00000000      T1 diagnostic:  0.01648735
                                                                       D1 diagnostic:  0.04419219

 Doubles amplitudes (print threshold =  0.500E-01):

         I         J         SYM. A    SYM. B    A         B      T(IJ, AB)

         6         6         2         2         1         1     -0.11578243


 Total CPU time for triples:      1.67 sec


 RESULTS
 =======

  Reference energy                   -129.837015036472
  CCSD singlet pair energy             -0.309732470563
  CCSD triplet pair energy             -0.141518391610
  CCSD correlation energy              -0.451250862171

  Triples (T) contribution             -0.021370269611
  Total correlation energy             -0.472621131782

  CCSD total energy                  -130.288265898643
  CCSD[T] energy                     -130.310766465349
  CCSD-T energy                      -130.309217975128
 !CCSD(T) total energy               -130.309636168254

 Timing summary (sec):

 STEP                 CPU(USER)    SYS     CPU(TOT)    WALL
 Transformation          0.18      0.06      0.24      0.43
 CCSD iterations         5.66      0.75      6.41      6.41
 Triples                 1.67      0.04      1.71      1.71

 Program statistics:

 Available memory in ccsd:               994999756
 Min. memory needed in ccsd:                389120
 Max. memory used in ccsd:                  473124
 Max. memory used in cckext:                599488 (28 integral passes)



 **********************************************************************************************************************************
 DATASETS  * FILE   NREC   LENGTH (MB)   RECORD NAMES
              1      20      128.20       500      610      700      900      950      970     1000      129      960     1100   
                                          VAR    BASINP    GEOM    SYMINP    ZMAT    AOBASIS   BASIS     P2S    ABASIS      S 
                                         1400     1410     1200     1210     1080     1600     1650     1300     1700     1380   
                                           T        V       H0       H01     AOSYM     SMH    MOLCAS    ERIS     OPER     JKOP   

              2       4        2.94       700     1000      520     2100   
                                         GEOM     BASIS   MCVARS     RHF  

 PROGRAMS   *        TOTAL   CCSD(T)        HF       INT
 CPU TIMES  *        10.27      7.52      1.10      1.57
 REAL TIME  *        12.44 SEC
 DISK USED  *       327.55 MB      
 **********************************************************************************************************************************

 CCSD(T)/aug-cc-pVTZ energy=   -130.309636168254

        CCSD(T)         HF-SCF  
   -130.30963617   -129.83701504
 **********************************************************************************************************************************
 Molpro calculation terminated
 Variable memory released
