
 Primary working directories    : /tmp/r2666/234891.maple
 Secondary working directories  : /tmp/r2666/234891.maple
 Wavefunction directory         : /ddn/home4/r2666/wfu/
 Main file repository           : /tmp/r2666/234891.maple/

 SHA1      : d5ffa45e93fdbca01ffc919aa182cfdae0147319
 NAME      : 2015.1.35
 ARCHNAME  : linux/x86_64
 FC        : /opt/intel/composer_xe_2015.1.133/bin/intel64/ifort
 BLASLIB   : -Wl,-_start-group /opt/intel/mkl/lib/intel64/libmkl_intel_ilp64.a /opt/intel/mkl/lib/intel64/libmkl_intel_thread.a /opt/intel/mkl/lib/intel64/libmkl_core.a -Wl,-_end-group
 id        : olemiss

 Nodes     nprocs
 cn088        1

 Using customized tuning parameters: mindgm=1; mindgv=20; mindgc=4; mindgr=1; noblas=0; minvec=7
 default implementation of scratch files=df  

 ***,hno CCSD(T)/TZ-F12 QFF
 memory, 995, m;
 gthresh,energy=1.d-12,zero=1.d-22,oneint=1.d-22,twoint=1.d-22;
 gthresh,optgrad=1.d-8,optstep=1.d-8;
 nocompress;
 geomtyp=xyz
 bohr
 geometry={
 3
          5         5
 N        0.0000000000       -0.1452606113       -1.1532145289
 H        0.0000000000        1.6544466479       -1.9287909843
 O        0.0000000000        0.0325817534        1.1314159222
 }
 
 basis=avtz
   {hf,maxit=500;accu,20;}
 {ccsd(t),nocheck,maxit=250;orbital,IGNORE_ERROR;}

 Variables initialized (889), CPU time= 0.00 sec
 Commands  initialized (702), CPU time= 0.01 sec, 572 directives.
 Default parameters read. Elapsed time= 0.05 sec

 Checking input...
 Passed
1


                                         ***  PROGRAM SYSTEM MOLPRO  ***
                                       Copyright, TTI GmbH Stuttgart, 2015
                                    Version 2015.1 linked Jul  9 2018 13:16:40


 **********************************************************************************************************************************
 LABEL *   hno CCSD(T)/TZ-F12 QFF                                                        
  64 bit serial version                                                                  DATE: 08-Feb-20          TIME: 17:55:44  
 **********************************************************************************************************************************

 SHA1:             d5ffa45e93fdbca01ffc919aa182cfdae0147319
 **********************************************************************************************************************************

 THRESHOLDS:

 ZERO    =  1.00D-22  ONEINT  =  1.00D-22  TWOINT  =  1.00D-22  PREFAC  =  1.00D-14  LOCALI  =  1.00D-09  EORDER  =  1.00D-04
 ENERGY  =  1.00D-12  ETEST   =  0.00D+00  EDENS   =  0.00D+00  THRDEDEF=  1.00D-06  GRADIENT=  1.00D-02  STEP    =  1.00D-03
 ORBITAL =  1.00D-05  CIVEC   =  1.00D-05  COEFF   =  1.00D-04  PRINTCI =  5.00D-02  PUNCHCI =  9.90D+01  OPTGRAD =  3.00D-04
 OPTENERG=  1.00D-06  OPTSTEP =  3.00D-04  THRGRAD =  1.00D-10  COMPRESS=  1.00D-11  VARMIN  =  1.00D-07  VARMAX  =  1.00D-03
 THRDOUB =  0.00D+00  THRDIV  =  1.00D-05  THRRED  =  1.00D-07  THRPSP  =  1.00D+00  THRDC   =  1.00D-10  THRCS   =  1.00D-10
 THRNRM  =  1.00D-08  THREQ   =  0.00D+00  THRDE   =  1.00D+00  THRREF  =  1.00D-05  SPARFAC =  1.00D+00  THRDLP  =  1.00D-07
 THRDIA  =  1.00D-10  THRDLS  =  1.00D-07  THRGPS  =  0.00D+00  THRKEX  =  0.00D+00  THRDIS  =  2.00D-01  THRVAR  =  1.00D-10
 THRLOC  =  1.00D-06  THRGAP  =  1.00D-06  THRLOCT = -1.00D+00  THRGAPT = -1.00D+00  THRORB  =  1.00D-06  THRMLTP =  0.00D+00
 THRCPQCI=  1.00D-10  KEXTA   =  0.00D+00  THRCOARS=  0.00D+00  SYMTOL  =  1.00D-06  GRADTOL =  1.00D-06  THROVL  =  1.00D-08
 THRORTH =  1.00D-08  GRID    =  1.00D-06  GRIDMAX =  1.00D-03  DTMAX   =  0.00D+00  THROCCDE=  1.00D-01  THROCCDE=  1.00D-01



 THRESHOLDS:

 ZERO    =  1.00D-22  ONEINT  =  1.00D-22  TWOINT  =  1.00D-22  PREFAC  =  1.00D-14  LOCALI  =  1.00D-09  EORDER  =  1.00D-04
 ENERGY  =  1.00D-12  ETEST   =  0.00D+00  EDENS   =  0.00D+00  THRDEDEF=  1.00D-06  GRADIENT=  1.00D-02  STEP    =  1.00D-03
 ORBITAL =  1.00D-05  CIVEC   =  1.00D-05  COEFF   =  1.00D-04  PRINTCI =  5.00D-02  PUNCHCI =  9.90D+01  OPTGRAD =  1.00D-08
 OPTENERG=  1.00D-06  OPTSTEP =  1.00D-08  THRGRAD =  1.00D-10  COMPRESS=  1.00D-11  VARMIN  =  1.00D-07  VARMAX  =  1.00D-03
 THRDOUB =  0.00D+00  THRDIV  =  1.00D-05  THRRED  =  1.00D-07  THRPSP  =  1.00D+00  THRDC   =  1.00D-10  THRCS   =  1.00D-10
 THRNRM  =  1.00D-08  THREQ   =  0.00D+00  THRDE   =  1.00D+00  THRREF  =  1.00D-05  SPARFAC =  1.00D+00  THRDLP  =  1.00D-07
 THRDIA  =  1.00D-10  THRDLS  =  1.00D-07  THRGPS  =  0.00D+00  THRKEX  =  0.00D+00  THRDIS  =  2.00D-01  THRVAR  =  1.00D-10
 THRLOC  =  1.00D-06  THRGAP  =  1.00D-06  THRLOCT = -1.00D+00  THRGAPT = -1.00D+00  THRORB  =  1.00D-06  THRMLTP =  0.00D+00
 THRCPQCI=  1.00D-10  KEXTA   =  0.00D+00  THRCOARS=  0.00D+00  SYMTOL  =  1.00D-06  GRADTOL =  1.00D-06  THROVL  =  1.00D-08
 THRORTH =  1.00D-08  GRID    =  1.00D-06  GRIDMAX =  1.00D-03  DTMAX   =  0.00D+00  THROCCDE=  1.00D-01  THROCCDE=  1.00D-01



 Input parameters for SORTINT:

 COMPRESS =    0.000000
 C_FINAL  =    1.000000
 DEBUG    =   -1.000000
 C_SORT1  =    0.000000
 C_SEWARD =    0.000000
 THRESH   =    0.000000
 IO       =  molpro                                                          
 SPRI     =    0.000000
 SETTING GEOMTYP        =    XYZ
 ZUNIT=BOHR
 

 Variable memory set to  995000000 words,  buffer space   230000 words

 SETTING BASIS          =    AVTZ


 Recomputing integrals since basis changed


 Using spherical harmonics

 Library entry N      S aug-cc-pVTZ          selected for orbital group  1
 Library entry N      P aug-cc-pVTZ          selected for orbital group  1
 Library entry N      D aug-cc-pVTZ          selected for orbital group  1
 Library entry N      F aug-cc-pVTZ          selected for orbital group  1
 Library entry H      S aug-cc-pVTZ          selected for orbital group  2
 Library entry H      P aug-cc-pVTZ          selected for orbital group  2
 Library entry H      D aug-cc-pVTZ          selected for orbital group  2
 Library entry O      S aug-cc-pVTZ          selected for orbital group  3
 Library entry O      P aug-cc-pVTZ          selected for orbital group  3
 Library entry O      D aug-cc-pVTZ          selected for orbital group  3
 Library entry O      F aug-cc-pVTZ          selected for orbital group  3


 PROGRAM * SEWARD (Integral evaluation for generally contracted gaussian basis sets)     Author: Roland Lindh, 1990

 Geometry written to block  1 of record 700


 Point group  Cs  



 ATOMIC COORDINATES

 NR  ATOM    CHARGE       X              Y              Z

   1  N       7.00    0.000000000   -0.145260611   -1.153214529
   2  H       1.00    0.000000000    1.654446648   -1.928790984
   3  O       8.00    0.000000000    0.032581753    1.131415922

 Bond lengths in Bohr (Angstrom)

 1-2  1.959710452  1-3  2.291541884
     ( 1.037034111)     ( 1.212631743)

 Bond angles

  2-1-3  108.86233157

 NUCLEAR CHARGE:                   16
 NUMBER OF PRIMITIVE AOS:         161
 NUMBER OF SYMMETRY AOS:          141
 NUMBER OF CONTRACTIONS:          115   (  76A'  +  39A"  )
 NUMBER OF CORE ORBITALS:           2   (   2A'  +   0A"  )
 NUMBER OF VALENCE ORBITALS:        9   (   7A'  +   2A"  )


 NUCLEAR REPULSION ENERGY   30.31950285

 Eigenvalues of metric

         1 0.231E-03 0.492E-03 0.181E-02 0.209E-02 0.256E-02 0.364E-02 0.427E-02 0.500E-02
         2 0.399E-02 0.976E-02 0.262E-01 0.366E-01 0.510E-01 0.615E-01 0.812E-01 0.119E+00


 Contracted 2-electron integrals neglected if value below      1.0D-22

       10790064. INTEGRALS WRITTEN OUT IN    2635 BLOCKS ON RECORD 1290 OF FILE 1


 NUMBER OF SORTED TWO-ELECTRON INTEGRALS:   11433631.     BUFFER LENGTH:  32768
 NUMBER OF SEGMENTS:   1  SEGMENT LENGTH:   11433631      RECORD LENGTH: 524288

 Memory used in sort:      11.99 MW

 SORT1 READ    10790064. AND WROTE    10943632. INTEGRALS IN     32 RECORDS. CPU TIME:     0.16 SEC, REAL TIME:     0.22 SEC
 SORT2 READ    10943632. AND WROTE    11433631. INTEGRALS IN      1 RECORDS. CPU TIME:     0.17 SEC, REAL TIME:     0.21 SEC

 FILE SIZES:   FILE 1:   193.0 MBYTE,  FILE 4:   134.3 MBYTE,   TOTAL:    327.2 MBYTE

 OPERATOR DM      FOR CENTER  0  COORDINATES:    0.000000    0.000000    0.000000


 **********************************************************************************************************************************
 DATASETS  * FILE   NREC   LENGTH (MB)   RECORD NAMES
              1      19      111.05       500      610      700      900      950      970     1000      129      960     1100   
                                          VAR    BASINP    GEOM    SYMINP    ZMAT    AOBASIS   BASIS     P2S    ABASIS      S 
                                         1400     1410     1200     1210     1080     1600     1650     1300     1700   
                                           T        V       H0       H01     AOSYM     SMH    MOLCAS    ERIS     OPER   

 PROGRAMS   *        TOTAL       INT
 CPU TIMES  *         1.26      1.18
 REAL TIME  *         2.01 SEC
 DISK USED  *       327.55 MB      
 **********************************************************************************************************************************


 PROGRAM * RHF-SCF (CLOSED SHELL)       Authors: W. Meyer, H.-J. Werner


 NUMBER OF ELECTRONS:       8+    8-
 CONVERGENCE THRESHOLDS:    1.00E-10 (Density)    1.00E-13 (Energy)
 MAX. NUMBER OF ITERATIONS:      500
 INTERPOLATION TYPE:            DIIS
 INTERPOLATION STEPS:              2 (START)      1 (STEP)
 LEVEL SHIFTS:                  0.00 (CLOSED)  0.00 (OPEN) 



 Orbital guess generated from atomic densities. Full valence occupancy:    9   2

 Molecular orbital dump at record        2100.2

 Initial occupancy:   7   1

 ITERATION    DDIFF          GRAD             ENERGY        2-EL.EN.            DIPOLE MOMENTS         DIIS   ORB.
    1      0.000D+00      0.000D+00      -129.78817999    153.813960    0.00000    0.60918   -1.03507    0    start
    2      0.000D+00      0.107D-01      -129.81549807    155.059517    0.00000    0.61428   -0.21652    1    diag
    3      0.119D-01      0.822D-02      -129.83813294    155.184696    0.00000    0.56687   -0.60356    2    diag
    4      0.593D-02      0.129D-02      -129.83893365    154.894472    0.00000    0.57398   -0.54266    3    diag
    5      0.108D-02      0.421D-03      -129.83905824    154.987849    0.00000    0.57942   -0.54537    4    diag
    6      0.449D-03      0.120D-03      -129.83907788    154.972433    0.00000    0.57978   -0.54125    5    diag
    7      0.170D-03      0.600D-04      -129.83908362    154.974825    0.00000    0.58097   -0.53864    6    diag
    8      0.118D-03      0.207D-04      -129.83908426    154.974171    0.00000    0.58099   -0.53761    7    diag
    9      0.453D-04      0.392D-05      -129.83908429    154.974064    0.00000    0.58095   -0.53739    8    diag
   10      0.876D-05      0.888D-06      -129.83908429    154.974046    0.00000    0.58092   -0.53736    9    orth
   11      0.175D-05      0.174D-06      -129.83908429    154.974044    0.00000    0.58091   -0.53736    9    diag
   12      0.328D-06      0.360D-07      -129.83908429    154.974044    0.00000    0.58091   -0.53736    9    diag
   13      0.697D-07      0.913D-08      -129.83908429    154.974044    0.00000    0.58091   -0.53736    9    diag
   14      0.183D-07      0.187D-08      -129.83908429    154.974044    0.00000    0.58091   -0.53736    9    diag
   15      0.355D-08      0.518D-09      -129.83908429    154.974044    0.00000    0.58091   -0.53736    9    diag
   16      0.976D-09      0.138D-09      -129.83908429    154.974044    0.00000    0.58091   -0.53736    9    diag
   17      0.164D-09      0.364D-10      -129.83908429    154.974044    0.00000    0.58091   -0.53736    9    diag
   18      0.429D-10      0.124D-10      -129.83908429    154.974044    0.00000    0.58091   -0.53736    9    diag
   19      0.218D-10      0.256D-11      -129.83908429    154.974044    0.00000    0.58091   -0.53736    9    fixocc
   20      0.492D-11      0.386D-12      -129.83908429    154.974044    0.00000    0.58091   -0.53736    9    orth
   21      0.278D-11      0.170D-12      -129.83908429    154.974044    0.00000    0.58091   -0.53736    9    diag
   22      0.210D-11      0.973D-13      -129.83908429    154.974044    0.00000    0.58091   -0.53736    0    orth

 Final occupancy:   7   1

 !RHF STATE 1.1 Energy               -129.839084290699
 Nuclear energy                        30.31950285
 One-electron energy                 -237.64560891
 Two-electron energy                   77.48702177
 Virial quotient                       -1.00213112
 !RHF STATE 1.1 Dipole moment           0.00000000     0.58091183    -0.53736208
 Dipole moment /Debye                   0.00000000     1.47643390    -1.36574871

 Orbital energies:

         1.1          2.1          3.1          4.1          5.1          6.1          7.1          8.1          9.1
    -20.656926   -15.713126    -1.526831    -1.000447    -0.747522    -0.664904    -0.432292     0.029073     0.092116

         1.2          2.2          3.2
     -0.593735     0.063441     0.129767

 HOMO      7.1    -0.432292 =     -11.7633eV
 LUMO      8.1     0.029073 =       0.7911eV
 LUMO-HOMO         0.461365 =      12.5544eV


 **********************************************************************************************************************************
 DATASETS  * FILE   NREC   LENGTH (MB)   RECORD NAMES
              1      19      111.05       500      610      700      900      950      970     1000      129      960     1100   
                                          VAR    BASINP    GEOM    SYMINP    ZMAT    AOBASIS   BASIS     P2S    ABASIS      S 
                                         1400     1410     1200     1210     1080     1600     1650     1300     1700   
                                           T        V       H0       H01     AOSYM     SMH    MOLCAS    ERIS     OPER   

              2       4        2.94       700     1000      520     2100   
                                         GEOM     BASIS   MCVARS     RHF  

 PROGRAMS   *        TOTAL        HF       INT
 CPU TIMES  *         2.33      1.07      1.18
 REAL TIME  *         3.41 SEC
 DISK USED  *       327.55 MB      
 **********************************************************************************************************************************


 PROGRAM * CCSD (Closed-shell coupled cluster)     Authors: C. Hampel, H.-J. Werner, 1991, M. Deegan, P.J. Knowles, 1992


 Convergence thresholds:  THRVAR = 1.00D-08  THRDEN = 1.00D-12

 CCSD(T)     terms to be evaluated (factor= 1.000)


 Number of core orbitals:           2 (   2   0 )
 Number of closed-shell orbitals:   6 (   5   1 )
 Number of external orbitals:     107 (  69  38 )

 Molecular orbitals read from record     2100.2  Type=RHF/CANONICAL (state 1.1)

 Number of N-1 electron functions:               6
 Number of N-2 electron functions:              21
 Number of singly external CSFs:               383
 Number of doubly external CSFs:            107206
 Total number of CSFs:                      107590

 Length of J-op  integral file:               0.00 MB
 Length of K-op  integral file:               0.54 MB
 Length of 3-ext integral record:             0.00 MB

 Memory could be reduced to 5.94 Mwords without degradation in triples

 Integral transformation finished. Total CPU:   0.15 sec, npass=  1  Memory used:   1.65 MW

 Reference energy:                   -129.83908429

 MP2 singlet pair energy:              -0.27958475
 MP2 triplet pair energy:              -0.16531020
 MP2 correlation energy:               -0.44489495
 MP2 total energy:                   -130.28397924

 SCS-MP2 correlation energy:           -0.43836137   (PS=  1.200000  PT=  0.333333)
 SCS-MP2 total energy:               -130.27744567

 ITER.      SQ.NORM     CORR.ENERGY   TOTAL ENERGY   ENERGY CHANGE        DEN1      VAR(S)    VAR(P)  DIIS     TIME  TIME/IT
   1      1.12097891    -0.44886023  -130.28794452    -0.00396528     0.01218456  0.32D-02  0.32D-02  1  1     0.30     0.16
   2      1.13213850    -0.44902733  -130.28811162    -0.00016710    -0.01248799  0.10D-03  0.51D-03  2  2     0.43     0.16
   3      1.13866153    -0.44942782  -130.28851212    -0.00040050    -0.00300452  0.54D-04  0.52D-04  3  3     0.56     0.16
   4      1.14159353    -0.44944138  -130.28852567    -0.00001355    -0.00098532  0.42D-05  0.94D-05  4  4     0.70     0.16
   5      1.14266197    -0.44947030  -130.28855459    -0.00002892    -0.00022524  0.11D-05  0.17D-05  5  5     0.86     0.16
   6      1.14300992    -0.44945289  -130.28853718     0.00001741    -0.00004261  0.91D-07  0.41D-06  6  6     0.99     0.16
   7      1.14308400    -0.44945445  -130.28853874    -0.00000156    -0.00000150  0.17D-07  0.97D-07  6  1     1.13     0.16
   8      1.14310505    -0.44945515  -130.28853944    -0.00000071     0.00000176  0.38D-08  0.17D-07  6  2     1.28     0.16
   9      1.14311358    -0.44945459  -130.28853888     0.00000056    -0.00000093  0.27D-08  0.18D-08  6  3     1.43     0.16
  10      1.14311369    -0.44945511  -130.28853940    -0.00000052     0.00000000  0.53D-09  0.26D-09  6  4     1.56     0.16
  11      1.14311204    -0.44945523  -130.28853953    -0.00000012     0.00000053  0.15D-09  0.33D-10  6  5     1.70     0.16
  12      1.14311072    -0.44945542  -130.28853971    -0.00000019     0.00000042  0.15D-10  0.92D-11  6  6     1.83     0.16
  13      1.14311000    -0.44945544  -130.28853973    -0.00000002     0.00000017  0.54D-11  0.18D-11  6  1     1.98     0.16
  14      1.14310956    -0.44945547  -130.28853976    -0.00000002     0.00000009  0.81D-12  0.58D-12  6  2     2.13     0.16
  15      1.14310938    -0.44945547  -130.28853976    -0.00000000     0.00000002  0.23D-12  0.18D-12  6  3     2.28     0.16
  16      1.14310929    -0.44945547  -130.28853976    -0.00000000     0.00000001  0.38D-13  0.65D-13  6  4     2.42     0.16
  17      1.14310924    -0.44945548  -130.28853977    -0.00000000     0.00000001  0.28D-14  0.15D-13  6  5     2.58     0.16
  18      1.14310923    -0.44945548  -130.28853977     0.00000000     0.00000000  0.13D-14  0.32D-14  6  6     2.72     0.16
  19      1.14310923    -0.44945548  -130.28853977     0.00000000    -0.00000000  0.17D-15  0.23D-15  6  5     2.87     0.16
  20      1.14310923    -0.44945548  -130.28853977    -0.00000000    -0.00000000  0.67D-16  0.41D-16  6  1     3.01     0.16
  21      1.14310923    -0.44945548  -130.28853977     0.00000000     0.00000000  0.15D-16  0.92D-17  6  2     3.17     0.16
  22      1.14310923    -0.44945548  -130.28853977    -0.00000000     0.00000000  0.38D-17  0.10D-17  6  3     3.31     0.16
  23      1.14310923    -0.44945548  -130.28853977     0.00000000     0.00000000  0.92D-18  0.32D-18  6  4     3.45     0.16
  24      1.14310923    -0.44945548  -130.28853977    -0.00000000     0.00000000  0.26D-18  0.61D-19  6  6     3.60     0.16
  25      1.14310923    -0.44945548  -130.28853977     0.00000000    -0.00000000  0.44D-19  0.29D-19  6  5     3.74     0.16
  26      1.14310923    -0.44945548  -130.28853977     0.00000000    -0.00000000  0.60D-20  0.11D-19  6  1     3.87     0.16
  27      1.14310923    -0.44945548  -130.28853977    -0.00000000    -0.00000000  0.30D-21  0.15D-20  6  3     4.02     0.16
  28      1.14310923    -0.44945548  -130.28853977     0.00000000     0.00000000  0.80D-22  0.19D-21  6  2     4.17     0.17

 Norm of t1 vector:      0.07875990      S-energy:     0.00000000      T1 diagnostic:  0.01607680
                                                                       D1 diagnostic:  0.04274826

 Doubles amplitudes (print threshold =  0.500E-01):

         I         J         SYM. A    SYM. B    A         B      T(IJ, AB)

         6         6         2         2         1         1     -0.11112378


 Total CPU time for triples:      1.17 sec


 RESULTS
 =======

  Reference energy                   -129.839084290699
  CCSD singlet pair energy             -0.308189503203
  CCSD triplet pair energy             -0.141265972359
  CCSD correlation energy              -0.449455475562

  Triples (T) contribution             -0.020969181230
  Total correlation energy             -0.470424656792

  CCSD total energy                  -130.288539766262
  CCSD[T] energy                     -130.310584350791
  CCSD-T energy                      -130.309104654714
 !CCSD(T) total energy               -130.309508947492

 Timing summary (sec):

 STEP                 CPU(USER)    SYS     CPU(TOT)    WALL
 Transformation          0.16      0.02      0.18      0.18
 CCSD iterations         4.01      0.61      4.62      4.64
 Triples                 1.17      0.04      1.21      1.20

 Program statistics:

 Available memory in ccsd:               994999756
 Min. memory needed in ccsd:                389120
 Max. memory used in ccsd:                  473124
 Max. memory used in cckext:                599488 (28 integral passes)



 **********************************************************************************************************************************
 DATASETS  * FILE   NREC   LENGTH (MB)   RECORD NAMES
              1      20      128.20       500      610      700      900      950      970     1000      129      960     1100   
                                          VAR    BASINP    GEOM    SYMINP    ZMAT    AOBASIS   BASIS     P2S    ABASIS      S 
                                         1400     1410     1200     1210     1080     1600     1650     1300     1700     1380   
                                           T        V       H0       H01     AOSYM     SMH    MOLCAS    ERIS     OPER     JKOP   

              2       4        2.94       700     1000      520     2100   
                                         GEOM     BASIS   MCVARS     RHF  

 PROGRAMS   *        TOTAL   CCSD(T)        HF       INT
 CPU TIMES  *         7.70      5.37      1.07      1.18
 REAL TIME  *         9.46 SEC
 DISK USED  *       327.55 MB      
 **********************************************************************************************************************************

 CCSD(T)/aug-cc-pVTZ energy=   -130.309508947492

        CCSD(T)         HF-SCF  
   -130.30950895   -129.83908429
 **********************************************************************************************************************************
 Molpro calculation terminated
 Variable memory released
