
 Primary working directories    : /tmp/r2666/234950.maple
 Secondary working directories  : /tmp/r2666/234950.maple
 Wavefunction directory         : /ddn/home4/r2666/wfu/
 Main file repository           : /tmp/r2666/234950.maple/

 SHA1      : d5ffa45e93fdbca01ffc919aa182cfdae0147319
 NAME      : 2015.1.35
 ARCHNAME  : linux/x86_64
 FC        : /opt/intel/composer_xe_2015.1.133/bin/intel64/ifort
 BLASLIB   : -Wl,-_start-group /opt/intel/mkl/lib/intel64/libmkl_intel_ilp64.a /opt/intel/mkl/lib/intel64/libmkl_intel_thread.a /opt/intel/mkl/lib/intel64/libmkl_core.a -Wl,-_end-group
 id        : olemiss

 Nodes     nprocs
 cn037        1

 Using customized tuning parameters: mindgm=1; mindgv=20; mindgc=4; mindgr=1; noblas=0; minvec=7
 default implementation of scratch files=df  

 ***,hno CCSD(T)/TZ-F12 QFF
 memory, 995, m;
 gthresh,energy=1.d-12,zero=1.d-22,oneint=1.d-22,twoint=1.d-22;
 gthresh,optgrad=1.d-8,optstep=1.d-8;
 nocompress;
 geomtyp=xyz
 bohr
 geometry={
 3
         64        64
 N        0.0000000000       -0.1553209203       -1.1363391557
 H        0.0000000000        1.6657447726       -1.9338902583
 O        0.0000000000        0.0313439377        1.1196398230
 }
 
 basis=avtz
   {hf,maxit=500;accu,20;}
 {ccsd(t),nocheck,maxit=250;orbital,IGNORE_ERROR;}

 Variables initialized (889), CPU time= 0.00 sec
 Commands  initialized (702), CPU time= 0.01 sec, 572 directives.
 Default parameters read. Elapsed time= 0.05 sec

 Checking input...
 Passed
1


                                         ***  PROGRAM SYSTEM MOLPRO  ***
                                       Copyright, TTI GmbH Stuttgart, 2015
                                    Version 2015.1 linked Jul  9 2018 13:16:40


 **********************************************************************************************************************************
 LABEL *   hno CCSD(T)/TZ-F12 QFF                                                        
  64 bit serial version                                                                  DATE: 08-Feb-20          TIME: 17:56:28  
 **********************************************************************************************************************************

 SHA1:             d5ffa45e93fdbca01ffc919aa182cfdae0147319
 **********************************************************************************************************************************

 THRESHOLDS:

 ZERO    =  1.00D-22  ONEINT  =  1.00D-22  TWOINT  =  1.00D-22  PREFAC  =  1.00D-14  LOCALI  =  1.00D-09  EORDER  =  1.00D-04
 ENERGY  =  1.00D-12  ETEST   =  0.00D+00  EDENS   =  0.00D+00  THRDEDEF=  1.00D-06  GRADIENT=  1.00D-02  STEP    =  1.00D-03
 ORBITAL =  1.00D-05  CIVEC   =  1.00D-05  COEFF   =  1.00D-04  PRINTCI =  5.00D-02  PUNCHCI =  9.90D+01  OPTGRAD =  3.00D-04
 OPTENERG=  1.00D-06  OPTSTEP =  3.00D-04  THRGRAD =  1.00D-10  COMPRESS=  1.00D-11  VARMIN  =  1.00D-07  VARMAX  =  1.00D-03
 THRDOUB =  0.00D+00  THRDIV  =  1.00D-05  THRRED  =  1.00D-07  THRPSP  =  1.00D+00  THRDC   =  1.00D-10  THRCS   =  1.00D-10
 THRNRM  =  1.00D-08  THREQ   =  0.00D+00  THRDE   =  1.00D+00  THRREF  =  1.00D-05  SPARFAC =  1.00D+00  THRDLP  =  1.00D-07
 THRDIA  =  1.00D-10  THRDLS  =  1.00D-07  THRGPS  =  0.00D+00  THRKEX  =  0.00D+00  THRDIS  =  2.00D-01  THRVAR  =  1.00D-10
 THRLOC  =  1.00D-06  THRGAP  =  1.00D-06  THRLOCT = -1.00D+00  THRGAPT = -1.00D+00  THRORB  =  1.00D-06  THRMLTP =  0.00D+00
 THRCPQCI=  1.00D-10  KEXTA   =  0.00D+00  THRCOARS=  0.00D+00  SYMTOL  =  1.00D-06  GRADTOL =  1.00D-06  THROVL  =  1.00D-08
 THRORTH =  1.00D-08  GRID    =  1.00D-06  GRIDMAX =  1.00D-03  DTMAX   =  0.00D+00  THROCCDE=  1.00D-01  THROCCDE=  1.00D-01



 THRESHOLDS:

 ZERO    =  1.00D-22  ONEINT  =  1.00D-22  TWOINT  =  1.00D-22  PREFAC  =  1.00D-14  LOCALI  =  1.00D-09  EORDER  =  1.00D-04
 ENERGY  =  1.00D-12  ETEST   =  0.00D+00  EDENS   =  0.00D+00  THRDEDEF=  1.00D-06  GRADIENT=  1.00D-02  STEP    =  1.00D-03
 ORBITAL =  1.00D-05  CIVEC   =  1.00D-05  COEFF   =  1.00D-04  PRINTCI =  5.00D-02  PUNCHCI =  9.90D+01  OPTGRAD =  1.00D-08
 OPTENERG=  1.00D-06  OPTSTEP =  1.00D-08  THRGRAD =  1.00D-10  COMPRESS=  1.00D-11  VARMIN  =  1.00D-07  VARMAX  =  1.00D-03
 THRDOUB =  0.00D+00  THRDIV  =  1.00D-05  THRRED  =  1.00D-07  THRPSP  =  1.00D+00  THRDC   =  1.00D-10  THRCS   =  1.00D-10
 THRNRM  =  1.00D-08  THREQ   =  0.00D+00  THRDE   =  1.00D+00  THRREF  =  1.00D-05  SPARFAC =  1.00D+00  THRDLP  =  1.00D-07
 THRDIA  =  1.00D-10  THRDLS  =  1.00D-07  THRGPS  =  0.00D+00  THRKEX  =  0.00D+00  THRDIS  =  2.00D-01  THRVAR  =  1.00D-10
 THRLOC  =  1.00D-06  THRGAP  =  1.00D-06  THRLOCT = -1.00D+00  THRGAPT = -1.00D+00  THRORB  =  1.00D-06  THRMLTP =  0.00D+00
 THRCPQCI=  1.00D-10  KEXTA   =  0.00D+00  THRCOARS=  0.00D+00  SYMTOL  =  1.00D-06  GRADTOL =  1.00D-06  THROVL  =  1.00D-08
 THRORTH =  1.00D-08  GRID    =  1.00D-06  GRIDMAX =  1.00D-03  DTMAX   =  0.00D+00  THROCCDE=  1.00D-01  THROCCDE=  1.00D-01



 Input parameters for SORTINT:

 COMPRESS =    0.000000
 C_FINAL  =    1.000000
 DEBUG    =   -1.000000
 C_SORT1  =    0.000000
 C_SEWARD =    0.000000
 THRESH   =    0.000000
 IO       =  molpro                                                          
 SPRI     =    0.000000
 SETTING GEOMTYP        =    XYZ
 ZUNIT=BOHR
 

 Variable memory set to  995000000 words,  buffer space   230000 words

 SETTING BASIS          =    AVTZ


 Recomputing integrals since basis changed


 Using spherical harmonics

 Library entry N      S aug-cc-pVTZ          selected for orbital group  1
 Library entry N      P aug-cc-pVTZ          selected for orbital group  1
 Library entry N      D aug-cc-pVTZ          selected for orbital group  1
 Library entry N      F aug-cc-pVTZ          selected for orbital group  1
 Library entry H      S aug-cc-pVTZ          selected for orbital group  2
 Library entry H      P aug-cc-pVTZ          selected for orbital group  2
 Library entry H      D aug-cc-pVTZ          selected for orbital group  2
 Library entry O      S aug-cc-pVTZ          selected for orbital group  3
 Library entry O      P aug-cc-pVTZ          selected for orbital group  3
 Library entry O      D aug-cc-pVTZ          selected for orbital group  3
 Library entry O      F aug-cc-pVTZ          selected for orbital group  3


 PROGRAM * SEWARD (Integral evaluation for generally contracted gaussian basis sets)     Author: Roland Lindh, 1990

 Geometry written to block  1 of record 700


 Point group  Cs  



 ATOMIC COORDINATES

 NR  ATOM    CHARGE       X              Y              Z

   1  N       7.00    0.000000000   -0.155320920   -1.136339156
   2  H       1.00    0.000000000    1.665744773   -1.933890258
   3  O       8.00    0.000000000    0.031343938    1.119639823

 Bond lengths in Bohr (Angstrom)

 1-2  1.988056342  1-3  2.263688345
     ( 1.052034110)     ( 1.197892285)

 Bond angles

  2-1-3  108.92141205

 NUCLEAR CHARGE:                   16
 NUMBER OF PRIMITIVE AOS:         161
 NUMBER OF SYMMETRY AOS:          141
 NUMBER OF CONTRACTIONS:          115   (  76A'  +  39A"  )
 NUMBER OF CORE ORBITALS:           2   (   2A'  +   0A"  )
 NUMBER OF VALENCE ORBITALS:        9   (   7A'  +   2A"  )


 NUCLEAR REPULSION ENERGY   30.56926702

 Eigenvalues of metric

         1 0.229E-03 0.492E-03 0.179E-02 0.210E-02 0.245E-02 0.342E-02 0.429E-02 0.508E-02
         2 0.383E-02 0.100E-01 0.257E-01 0.367E-01 0.507E-01 0.619E-01 0.796E-01 0.119E+00


 Contracted 2-electron integrals neglected if value below      1.0D-22

       10790064. INTEGRALS WRITTEN OUT IN    2635 BLOCKS ON RECORD 1290 OF FILE 1


 NUMBER OF SORTED TWO-ELECTRON INTEGRALS:   11433631.     BUFFER LENGTH:  32768
 NUMBER OF SEGMENTS:   1  SEGMENT LENGTH:   11433631      RECORD LENGTH: 524288

 Memory used in sort:      11.99 MW

 SORT1 READ    10790064. AND WROTE    10943632. INTEGRALS IN     32 RECORDS. CPU TIME:     0.29 SEC, REAL TIME:     0.36 SEC
 SORT2 READ    10943632. AND WROTE    11433631. INTEGRALS IN      1 RECORDS. CPU TIME:     0.19 SEC, REAL TIME:     0.26 SEC

 FILE SIZES:   FILE 1:   193.0 MBYTE,  FILE 4:   134.3 MBYTE,   TOTAL:    327.2 MBYTE

 OPERATOR DM      FOR CENTER  0  COORDINATES:    0.000000    0.000000    0.000000


 **********************************************************************************************************************************
 DATASETS  * FILE   NREC   LENGTH (MB)   RECORD NAMES
              1      19      111.05       500      610      700      900      950      970     1000      129      960     1100   
                                          VAR    BASINP    GEOM    SYMINP    ZMAT    AOBASIS   BASIS     P2S    ABASIS      S 
                                         1400     1410     1200     1210     1080     1600     1650     1300     1700   
                                           T        V       H0       H01     AOSYM     SMH    MOLCAS    ERIS     OPER   

 PROGRAMS   *        TOTAL       INT
 CPU TIMES  *         1.62      1.53
 REAL TIME  *         2.63 SEC
 DISK USED  *       327.55 MB      
 **********************************************************************************************************************************


 PROGRAM * RHF-SCF (CLOSED SHELL)       Authors: W. Meyer, H.-J. Werner


 NUMBER OF ELECTRONS:       8+    8-
 CONVERGENCE THRESHOLDS:    1.00E-10 (Density)    1.00E-13 (Energy)
 MAX. NUMBER OF ITERATIONS:      500
 INTERPOLATION TYPE:            DIIS
 INTERPOLATION STEPS:              2 (START)      1 (STEP)
 LEVEL SHIFTS:                  0.00 (CLOSED)  0.00 (OPEN) 



 Orbital guess generated from atomic densities. Full valence occupancy:    9   2

 Molecular orbital dump at record        2100.2

 Initial occupancy:   7   1

 ITERATION    DDIFF          GRAD             ENERGY        2-EL.EN.            DIPOLE MOMENTS         DIIS   ORB.
    1      0.000D+00      0.000D+00      -129.79108703    154.250323    0.00000    0.59354   -0.99005    0    start
    2      0.000D+00      0.106D-01      -129.81880520    155.542534    0.00000    0.60400   -0.21692    1    diag
    3      0.116D-01      0.793D-02      -129.83976369    155.630414    0.00000    0.55525   -0.58020    2    diag
    4      0.575D-02      0.126D-02      -129.84053468    155.349685    0.00000    0.56261   -0.52177    3    diag
    5      0.106D-02      0.414D-03      -129.84065619    155.442963    0.00000    0.56826   -0.52483    4    diag
    6      0.441D-03      0.119D-03      -129.84067547    155.427565    0.00000    0.56870   -0.52095    5    diag
    7      0.169D-03      0.585D-04      -129.84068087    155.430166    0.00000    0.56998   -0.51855    6    diag
    8      0.115D-03      0.193D-04      -129.84068140    155.429551    0.00000    0.57002   -0.51763    7    diag
    9      0.410D-04      0.363D-05      -129.84068142    155.429450    0.00000    0.56998   -0.51743    8    diag
   10      0.777D-05      0.849D-06      -129.84068142    155.429431    0.00000    0.56995   -0.51740    9    orth
   11      0.167D-05      0.171D-06      -129.84068142    155.429428    0.00000    0.56994   -0.51740    9    diag
   12      0.331D-06      0.346D-07      -129.84068142    155.429428    0.00000    0.56994   -0.51740    9    diag
   13      0.710D-07      0.855D-08      -129.84068142    155.429428    0.00000    0.56994   -0.51740    9    diag
   14      0.181D-07      0.180D-08      -129.84068142    155.429428    0.00000    0.56994   -0.51740    9    diag
   15      0.371D-08      0.514D-09      -129.84068142    155.429428    0.00000    0.56994   -0.51740    9    diag
   16      0.101D-08      0.146D-09      -129.84068142    155.429428    0.00000    0.56994   -0.51740    9    diag
   17      0.190D-09      0.423D-10      -129.84068142    155.429428    0.00000    0.56994   -0.51740    9    diag
   18      0.543D-10      0.150D-10      -129.84068142    155.429428    0.00000    0.56994   -0.51740    9    diag
   19      0.270D-10      0.339D-11      -129.84068142    155.429428    0.00000    0.56994   -0.51740    9    fixocc
   20      0.686D-11      0.552D-12      -129.84068142    155.429428    0.00000    0.56994   -0.51740    9    orth
   21      0.187D-11      0.196D-12      -129.84068142    155.429428    0.00000    0.56994   -0.51740    9    diag
   22      0.143D-11      0.683D-13      -129.84068142    155.429428    0.00000    0.56994   -0.51740    0    orth

 Final occupancy:   7   1

 !RHF STATE 1.1 Energy               -129.840681423487
 Nuclear energy                        30.56926702
 One-electron energy                 -238.12466221
 Two-electron energy                   77.71471376
 Virial quotient                       -1.00186466
 !RHF STATE 1.1 Dipole moment           0.00000000     0.56993794    -0.51739582
 Dipole moment /Debye                   0.00000000     1.44854287    -1.31500286

 Orbital energies:

         1.1          2.1          3.1          4.1          5.1          6.1          7.1          8.1          9.1
    -20.655776   -15.712601    -1.538748    -0.993144    -0.750372    -0.669167    -0.426828     0.029263     0.092164

         1.2          2.2          3.2
     -0.600980     0.067545     0.130462

 HOMO      7.1    -0.426828 =     -11.6146eV
 LUMO      8.1     0.029263 =       0.7963eV
 LUMO-HOMO         0.456092 =      12.4109eV


 **********************************************************************************************************************************
 DATASETS  * FILE   NREC   LENGTH (MB)   RECORD NAMES
              1      19      111.05       500      610      700      900      950      970     1000      129      960     1100   
                                          VAR    BASINP    GEOM    SYMINP    ZMAT    AOBASIS   BASIS     P2S    ABASIS      S 
                                         1400     1410     1200     1210     1080     1600     1650     1300     1700   
                                           T        V       H0       H01     AOSYM     SMH    MOLCAS    ERIS     OPER   

              2       4        2.94       700     1000      520     2100   
                                         GEOM     BASIS   MCVARS     RHF  

 PROGRAMS   *        TOTAL        HF       INT
 CPU TIMES  *         2.92      1.30      1.53
 REAL TIME  *         4.33 SEC
 DISK USED  *       327.55 MB      
 **********************************************************************************************************************************


 PROGRAM * CCSD (Closed-shell coupled cluster)     Authors: C. Hampel, H.-J. Werner, 1991, M. Deegan, P.J. Knowles, 1992


 Convergence thresholds:  THRVAR = 1.00D-08  THRDEN = 1.00D-12

 CCSD(T)     terms to be evaluated (factor= 1.000)


 Number of core orbitals:           2 (   2   0 )
 Number of closed-shell orbitals:   6 (   5   1 )
 Number of external orbitals:     107 (  69  38 )

 Molecular orbitals read from record     2100.2  Type=RHF/CANONICAL (state 1.1)

 Number of N-1 electron functions:               6
 Number of N-2 electron functions:              21
 Number of singly external CSFs:               383
 Number of doubly external CSFs:            107206
 Total number of CSFs:                      107590

 Length of J-op  integral file:               0.00 MB
 Length of K-op  integral file:               0.54 MB
 Length of 3-ext integral record:             0.00 MB

 Memory could be reduced to 5.94 Mwords without degradation in triples

 Integral transformation finished. Total CPU:   0.18 sec, npass=  1  Memory used:   1.65 MW

 Reference energy:                   -129.84068142

 MP2 singlet pair energy:              -0.27838978
 MP2 triplet pair energy:              -0.16448848
 MP2 correlation energy:               -0.44287826
 MP2 total energy:                   -130.28355968

 SCS-MP2 correlation energy:           -0.43641612   (PS=  1.200000  PT=  0.333333)
 SCS-MP2 total energy:               -130.27709755

 ITER.      SQ.NORM     CORR.ENERGY   TOTAL ENERGY   ENERGY CHANGE        DEN1      VAR(S)    VAR(P)  DIIS     TIME  TIME/IT
   1      1.11987638    -0.44736926  -130.28805068    -0.00449100     0.01117775  0.30D-02  0.30D-02  1  1     0.38     0.21
   2      1.13076704    -0.44763826  -130.28831968    -0.00026900    -0.01221118  0.96D-04  0.50D-03  2  2     0.59     0.22
   3      1.13706339    -0.44802385  -130.28870528    -0.00038560    -0.00293702  0.51D-04  0.49D-04  3  3     0.79     0.22
   4      1.13983983    -0.44803416  -130.28871558    -0.00001031    -0.00094595  0.40D-05  0.89D-05  4  4     0.99     0.22
   5      1.14084224    -0.44806130  -130.28874272    -0.00002714    -0.00021247  0.11D-05  0.16D-05  5  5     1.20     0.22
   6      1.14117484    -0.44804555  -130.28872697     0.00001575    -0.00004014  0.98D-07  0.40D-06  6  6     1.39     0.22
   7      1.14125106    -0.44804651  -130.28872794    -0.00000096    -0.00000218  0.20D-07  0.91D-07  6  1     1.59     0.22
   8      1.14127285    -0.44804732  -130.28872874    -0.00000080     0.00000141  0.38D-08  0.16D-07  6  2     1.80     0.22
   9      1.14127822    -0.44804689  -130.28872831     0.00000043     0.00000045  0.27D-08  0.17D-08  6  4     2.01     0.22
  10      1.14128040    -0.44804736  -130.28872878    -0.00000047    -0.00000068  0.43D-09  0.20D-09  6  3     2.21     0.22
  11      1.14127986    -0.44804738  -130.28872881    -0.00000003    -0.00000005  0.15D-09  0.31D-10  6  5     2.42     0.22
  12      1.14127881    -0.44804753  -130.28872895    -0.00000014     0.00000033  0.18D-10  0.10D-10  6  6     2.64     0.22
  13      1.14127799    -0.44804756  -130.28872899    -0.00000003     0.00000021  0.61D-11  0.20D-11  6  1     2.84     0.22
  14      1.14127747    -0.44804759  -130.28872901    -0.00000003     0.00000013  0.10D-11  0.65D-12  6  2     3.04     0.22
  15      1.14127726    -0.44804760  -130.28872902    -0.00000001     0.00000003  0.27D-12  0.21D-12  6  4     3.25     0.22
  16      1.14127714    -0.44804760  -130.28872902    -0.00000000     0.00000002  0.36D-13  0.25D-13  6  5     3.44     0.22
  17      1.14127710    -0.44804760  -130.28872902    -0.00000000     0.00000000  0.67D-15  0.18D-14  6  3     3.63     0.22
  18      1.14127710    -0.44804760  -130.28872902     0.00000000    -0.00000000  0.23D-15  0.25D-15  6  6     3.84     0.22
  19      1.14127710    -0.44804760  -130.28872902     0.00000000    -0.00000000  0.71D-16  0.37D-16  6  1     4.02     0.22
  20      1.14127710    -0.44804760  -130.28872902     0.00000000    -0.00000000  0.19D-16  0.66D-17  6  2     4.22     0.22
  21      1.14127710    -0.44804760  -130.28872902     0.00000000    -0.00000000  0.32D-17  0.18D-17  6  5     4.43     0.22
  22      1.14127710    -0.44804760  -130.28872902    -0.00000000     0.00000000  0.35D-18  0.20D-18  6  4     4.63     0.22
  23      1.14127710    -0.44804760  -130.28872902     0.00000000     0.00000000  0.12D-18  0.43D-19  6  3     4.81     0.22
  24      1.14127710    -0.44804760  -130.28872902     0.00000000    -0.00000000  0.12D-19  0.59D-20  6  2     5.00     0.22
  25      1.14127710    -0.44804760  -130.28872902     0.00000000    -0.00000000  0.19D-20  0.93D-21  6  6     5.21     0.22
  26      1.14127710    -0.44804760  -130.28872902     0.00000000    -0.00000000  0.46D-21  0.23D-21  6  1     5.42     0.22

 Norm of t1 vector:      0.07703544      S-energy:     0.00000000      T1 diagnostic:  0.01572479
                                                                       D1 diagnostic:  0.04082413

 Doubles amplitudes (print threshold =  0.500E-01):

         I         J         SYM. A    SYM. B    A         B      T(IJ, AB)

         6         6         2         2         1         1     -0.10439712


 Total CPU time for triples:      1.67 sec


 RESULTS
 =======

  Reference energy                   -129.840681423487
  CCSD singlet pair energy             -0.306969461458
  CCSD triplet pair energy             -0.141078138311
  CCSD correlation energy              -0.448047599769

  Triples (T) contribution             -0.020612912944
  Total correlation energy             -0.468660512712

  CCSD total energy                  -130.288729023256
  CCSD[T] energy                     -130.310370049585
  CCSD-T energy                      -130.308946768483
 !CCSD(T) total energy               -130.309341936200

 Timing summary (sec):

 STEP                 CPU(USER)    SYS     CPU(TOT)    WALL
 Transformation          0.18      0.05      0.23      0.23
 CCSD iterations         5.24      0.62      5.86      5.86
 Triples                 1.67      0.01      1.68      1.69

 Program statistics:

 Available memory in ccsd:               994999756
 Min. memory needed in ccsd:                389120
 Max. memory used in ccsd:                  473124
 Max. memory used in cckext:                599488 (26 integral passes)



 **********************************************************************************************************************************
 DATASETS  * FILE   NREC   LENGTH (MB)   RECORD NAMES
              1      20      128.20       500      610      700      900      950      970     1000      129      960     1100   
                                          VAR    BASINP    GEOM    SYMINP    ZMAT    AOBASIS   BASIS     P2S    ABASIS      S 
                                         1400     1410     1200     1210     1080     1600     1650     1300     1700     1380   
                                           T        V       H0       H01     AOSYM     SMH    MOLCAS    ERIS     OPER     JKOP   

              2       4        2.94       700     1000      520     2100   
                                         GEOM     BASIS   MCVARS     RHF  

 PROGRAMS   *        TOTAL   CCSD(T)        HF       INT
 CPU TIMES  *        10.04      7.10      1.30      1.53
 REAL TIME  *        12.16 SEC
 DISK USED  *       327.55 MB      
 **********************************************************************************************************************************

 CCSD(T)/aug-cc-pVTZ energy=   -130.309341936200

        CCSD(T)         HF-SCF  
   -130.30934194   -129.84068142
 **********************************************************************************************************************************
 Molpro calculation terminated
 Variable memory released
