
 Primary working directories    : /tmp/r2666/234910.maple
 Secondary working directories  : /tmp/r2666/234910.maple
 Wavefunction directory         : /ddn/home4/r2666/wfu/
 Main file repository           : /tmp/r2666/234910.maple/

 SHA1      : d5ffa45e93fdbca01ffc919aa182cfdae0147319
 NAME      : 2015.1.35
 ARCHNAME  : linux/x86_64
 FC        : /opt/intel/composer_xe_2015.1.133/bin/intel64/ifort
 BLASLIB   : -Wl,-_start-group /opt/intel/mkl/lib/intel64/libmkl_intel_ilp64.a /opt/intel/mkl/lib/intel64/libmkl_intel_thread.a /opt/intel/mkl/lib/intel64/libmkl_core.a -Wl,-_end-group
 id        : olemiss

 Nodes     nprocs
 cn088        1

 Using customized tuning parameters: mindgm=1; mindgv=20; mindgc=4; mindgr=1; noblas=0; minvec=7
 default implementation of scratch files=df  

 ***,hno CCSD(T)/TZ-F12 QFF
 memory, 995, m;
 gthresh,energy=1.d-12,zero=1.d-22,oneint=1.d-22,twoint=1.d-22;
 gthresh,optgrad=1.d-8,optstep=1.d-8;
 nocompress;
 geomtyp=xyz
 bohr
 geometry={
 3
         24        24
 N        0.0000000000       -0.1611503661       -1.1503833361
 H        0.0000000000        1.6616963689       -1.9198755448
 O        0.0000000000        0.0412217872        1.1196692899
 }
 
 basis=avtz
   {hf,maxit=500;accu,20;}
 {ccsd(t),nocheck,maxit=250;orbital,IGNORE_ERROR;}

 Variables initialized (889), CPU time= 0.00 sec
 Commands  initialized (702), CPU time= 0.01 sec, 572 directives.
 Default parameters read. Elapsed time= 0.04 sec

 Checking input...
 Passed
1


                                         ***  PROGRAM SYSTEM MOLPRO  ***
                                       Copyright, TTI GmbH Stuttgart, 2015
                                    Version 2015.1 linked Jul  9 2018 13:16:40


 **********************************************************************************************************************************
 LABEL *   hno CCSD(T)/TZ-F12 QFF                                                        
  64 bit serial version                                                                  DATE: 08-Feb-20          TIME: 17:56:07  
 **********************************************************************************************************************************

 SHA1:             d5ffa45e93fdbca01ffc919aa182cfdae0147319
 **********************************************************************************************************************************

 THRESHOLDS:

 ZERO    =  1.00D-22  ONEINT  =  1.00D-22  TWOINT  =  1.00D-22  PREFAC  =  1.00D-14  LOCALI  =  1.00D-09  EORDER  =  1.00D-04
 ENERGY  =  1.00D-12  ETEST   =  0.00D+00  EDENS   =  0.00D+00  THRDEDEF=  1.00D-06  GRADIENT=  1.00D-02  STEP    =  1.00D-03
 ORBITAL =  1.00D-05  CIVEC   =  1.00D-05  COEFF   =  1.00D-04  PRINTCI =  5.00D-02  PUNCHCI =  9.90D+01  OPTGRAD =  3.00D-04
 OPTENERG=  1.00D-06  OPTSTEP =  3.00D-04  THRGRAD =  1.00D-10  COMPRESS=  1.00D-11  VARMIN  =  1.00D-07  VARMAX  =  1.00D-03
 THRDOUB =  0.00D+00  THRDIV  =  1.00D-05  THRRED  =  1.00D-07  THRPSP  =  1.00D+00  THRDC   =  1.00D-10  THRCS   =  1.00D-10
 THRNRM  =  1.00D-08  THREQ   =  0.00D+00  THRDE   =  1.00D+00  THRREF  =  1.00D-05  SPARFAC =  1.00D+00  THRDLP  =  1.00D-07
 THRDIA  =  1.00D-10  THRDLS  =  1.00D-07  THRGPS  =  0.00D+00  THRKEX  =  0.00D+00  THRDIS  =  2.00D-01  THRVAR  =  1.00D-10
 THRLOC  =  1.00D-06  THRGAP  =  1.00D-06  THRLOCT = -1.00D+00  THRGAPT = -1.00D+00  THRORB  =  1.00D-06  THRMLTP =  0.00D+00
 THRCPQCI=  1.00D-10  KEXTA   =  0.00D+00  THRCOARS=  0.00D+00  SYMTOL  =  1.00D-06  GRADTOL =  1.00D-06  THROVL  =  1.00D-08
 THRORTH =  1.00D-08  GRID    =  1.00D-06  GRIDMAX =  1.00D-03  DTMAX   =  0.00D+00  THROCCDE=  1.00D-01  THROCCDE=  1.00D-01



 THRESHOLDS:

 ZERO    =  1.00D-22  ONEINT  =  1.00D-22  TWOINT  =  1.00D-22  PREFAC  =  1.00D-14  LOCALI  =  1.00D-09  EORDER  =  1.00D-04
 ENERGY  =  1.00D-12  ETEST   =  0.00D+00  EDENS   =  0.00D+00  THRDEDEF=  1.00D-06  GRADIENT=  1.00D-02  STEP    =  1.00D-03
 ORBITAL =  1.00D-05  CIVEC   =  1.00D-05  COEFF   =  1.00D-04  PRINTCI =  5.00D-02  PUNCHCI =  9.90D+01  OPTGRAD =  1.00D-08
 OPTENERG=  1.00D-06  OPTSTEP =  1.00D-08  THRGRAD =  1.00D-10  COMPRESS=  1.00D-11  VARMIN  =  1.00D-07  VARMAX  =  1.00D-03
 THRDOUB =  0.00D+00  THRDIV  =  1.00D-05  THRRED  =  1.00D-07  THRPSP  =  1.00D+00  THRDC   =  1.00D-10  THRCS   =  1.00D-10
 THRNRM  =  1.00D-08  THREQ   =  0.00D+00  THRDE   =  1.00D+00  THRREF  =  1.00D-05  SPARFAC =  1.00D+00  THRDLP  =  1.00D-07
 THRDIA  =  1.00D-10  THRDLS  =  1.00D-07  THRGPS  =  0.00D+00  THRKEX  =  0.00D+00  THRDIS  =  2.00D-01  THRVAR  =  1.00D-10
 THRLOC  =  1.00D-06  THRGAP  =  1.00D-06  THRLOCT = -1.00D+00  THRGAPT = -1.00D+00  THRORB  =  1.00D-06  THRMLTP =  0.00D+00
 THRCPQCI=  1.00D-10  KEXTA   =  0.00D+00  THRCOARS=  0.00D+00  SYMTOL  =  1.00D-06  GRADTOL =  1.00D-06  THROVL  =  1.00D-08
 THRORTH =  1.00D-08  GRID    =  1.00D-06  GRIDMAX =  1.00D-03  DTMAX   =  0.00D+00  THROCCDE=  1.00D-01  THROCCDE=  1.00D-01



 Input parameters for SORTINT:

 COMPRESS =    0.000000
 C_FINAL  =    1.000000
 DEBUG    =   -1.000000
 C_SORT1  =    0.000000
 C_SEWARD =    0.000000
 THRESH   =    0.000000
 IO       =  molpro                                                          
 SPRI     =    0.000000
 SETTING GEOMTYP        =    XYZ
 ZUNIT=BOHR
 

 Variable memory set to  995000000 words,  buffer space   230000 words

 SETTING BASIS          =    AVTZ


 Recomputing integrals since basis changed


 Using spherical harmonics

 Library entry N      S aug-cc-pVTZ          selected for orbital group  1
 Library entry N      P aug-cc-pVTZ          selected for orbital group  1
 Library entry N      D aug-cc-pVTZ          selected for orbital group  1
 Library entry N      F aug-cc-pVTZ          selected for orbital group  1
 Library entry H      S aug-cc-pVTZ          selected for orbital group  2
 Library entry H      P aug-cc-pVTZ          selected for orbital group  2
 Library entry H      D aug-cc-pVTZ          selected for orbital group  2
 Library entry O      S aug-cc-pVTZ          selected for orbital group  3
 Library entry O      P aug-cc-pVTZ          selected for orbital group  3
 Library entry O      D aug-cc-pVTZ          selected for orbital group  3
 Library entry O      F aug-cc-pVTZ          selected for orbital group  3


 PROGRAM * SEWARD (Integral evaluation for generally contracted gaussian basis sets)     Author: Roland Lindh, 1990

 Geometry written to block  1 of record 700


 Point group  Cs  



 ATOMIC COORDINATES

 NR  ATOM    CHARGE       X              Y              Z

   1  N       7.00    0.000000000   -0.161150366   -1.150383336
   2  H       1.00    0.000000000    1.661696369   -1.919875545
   3  O       8.00    0.000000000    0.041221787    1.119669290

 Bond lengths in Bohr (Angstrom)

 1-2  1.978607712  1-3  2.279055377
     ( 1.047034111)     ( 1.206024168)

 Bond angles

  2-1-3  107.79206356

 NUCLEAR CHARGE:                   16
 NUMBER OF PRIMITIVE AOS:         161
 NUMBER OF SYMMETRY AOS:          141
 NUMBER OF CONTRACTIONS:          115   (  76A'  +  39A"  )
 NUMBER OF CORE ORBITALS:           2   (   2A'  +   0A"  )
 NUMBER OF VALENCE ORBITALS:        9   (   7A'  +   2A"  )


 NUCLEAR REPULSION ENERGY   30.43194952

 Eigenvalues of metric

         1 0.230E-03 0.497E-03 0.179E-02 0.210E-02 0.251E-02 0.355E-02 0.428E-02 0.510E-02
         2 0.393E-02 0.100E-01 0.261E-01 0.370E-01 0.512E-01 0.619E-01 0.813E-01 0.119E+00


 Contracted 2-electron integrals neglected if value below      1.0D-22

       10790064. INTEGRALS WRITTEN OUT IN    2635 BLOCKS ON RECORD 1290 OF FILE 1


 NUMBER OF SORTED TWO-ELECTRON INTEGRALS:   11433631.     BUFFER LENGTH:  32768
 NUMBER OF SEGMENTS:   1  SEGMENT LENGTH:   11433631      RECORD LENGTH: 524288

 Memory used in sort:      11.99 MW

 SORT1 READ    10790064. AND WROTE    10943632. INTEGRALS IN     32 RECORDS. CPU TIME:     0.14 SEC, REAL TIME:     0.22 SEC
 SORT2 READ    10943632. AND WROTE    11433631. INTEGRALS IN      1 RECORDS. CPU TIME:     0.14 SEC, REAL TIME:     0.21 SEC

 FILE SIZES:   FILE 1:   193.0 MBYTE,  FILE 4:   134.3 MBYTE,   TOTAL:    327.2 MBYTE

 OPERATOR DM      FOR CENTER  0  COORDINATES:    0.000000    0.000000    0.000000


 **********************************************************************************************************************************
 DATASETS  * FILE   NREC   LENGTH (MB)   RECORD NAMES
              1      19      111.05       500      610      700      900      950      970     1000      129      960     1100   
                                          VAR    BASINP    GEOM    SYMINP    ZMAT    AOBASIS   BASIS     P2S    ABASIS      S 
                                         1400     1410     1200     1210     1080     1600     1650     1300     1700   
                                           T        V       H0       H01     AOSYM     SMH    MOLCAS    ERIS     OPER   

 PROGRAMS   *        TOTAL       INT
 CPU TIMES  *         1.27      1.19
 REAL TIME  *         2.04 SEC
 DISK USED  *       327.55 MB      
 **********************************************************************************************************************************


 PROGRAM * RHF-SCF (CLOSED SHELL)       Authors: W. Meyer, H.-J. Werner


 NUMBER OF ELECTRONS:       8+    8-
 CONVERGENCE THRESHOLDS:    1.00E-10 (Density)    1.00E-13 (Energy)
 MAX. NUMBER OF ITERATIONS:      500
 INTERPOLATION TYPE:            DIIS
 INTERPOLATION STEPS:              2 (START)      1 (STEP)
 LEVEL SHIFTS:                  0.00 (CLOSED)  0.00 (OPEN) 



 Orbital guess generated from atomic densities. Full valence occupancy:    9   2

 Molecular orbital dump at record        2100.2

 Initial occupancy:   7   1

 ITERATION    DDIFF          GRAD             ENERGY        2-EL.EN.            DIPOLE MOMENTS         DIIS   ORB.
    1      0.000D+00      0.000D+00      -129.78925560    154.014120    0.00000    0.59092   -1.01327    0    start
    2      0.000D+00      0.107D-01      -129.81679036    155.279044    0.00000    0.61027   -0.21123    1    diag
    3      0.118D-01      0.813D-02      -129.83890104    155.387947    0.00000    0.55654   -0.58875    2    diag
    4      0.587D-02      0.127D-02      -129.83968644    155.101983    0.00000    0.56427   -0.52925    3    diag
    5      0.107D-02      0.419D-03      -129.83981063    155.195247    0.00000    0.56974   -0.53203    4    diag
    6      0.447D-03      0.121D-03      -129.83983037    155.179768    0.00000    0.57012   -0.52799    5    diag
    7      0.170D-03      0.597D-04      -129.83983603    155.182271    0.00000    0.57135   -0.52546    6    diag
    8      0.118D-03      0.201D-04      -129.83983662    155.181625    0.00000    0.57137   -0.52448    7    diag
    9      0.435D-04      0.379D-05      -129.83983665    155.181521    0.00000    0.57134   -0.52427    8    diag
   10      0.832D-05      0.866D-06      -129.83983665    155.181503    0.00000    0.57131   -0.52424    9    orth
   11      0.170D-05      0.173D-06      -129.83983665    155.181500    0.00000    0.57130   -0.52424    9    diag
   12      0.328D-06      0.355D-07      -129.83983665    155.181500    0.00000    0.57130   -0.52424    9    diag
   13      0.710D-07      0.890D-08      -129.83983665    155.181500    0.00000    0.57130   -0.52424    9    diag
   14      0.184D-07      0.184D-08      -129.83983665    155.181500    0.00000    0.57130   -0.52424    9    diag
   15      0.365D-08      0.514D-09      -129.83983665    155.181500    0.00000    0.57130   -0.52424    9    diag
   16      0.997D-09      0.141D-09      -129.83983665    155.181500    0.00000    0.57130   -0.52424    9    diag
   17      0.179D-09      0.401D-10      -129.83983665    155.181500    0.00000    0.57130   -0.52424    9    diag
   18      0.498D-10      0.143D-10      -129.83983665    155.181500    0.00000    0.57130   -0.52424    9    diag
   19      0.257D-10      0.316D-11      -129.83983665    155.181500    0.00000    0.57130   -0.52424    9    fixocc
   20      0.635D-11      0.558D-12      -129.83983665    155.181500    0.00000    0.57130   -0.52424    9    orth
   21      0.185D-11      0.186D-12      -129.83983665    155.181500    0.00000    0.57130   -0.52424    9    diag
   22      0.168D-11      0.717D-13      -129.83983665    155.181500    0.00000    0.57130   -0.52424    9    diag
   23      0.512D-12      0.492D-13      -129.83983665    155.181500    0.00000    0.57130   -0.52424    9    diag
   24      0.453D-12      0.427D-13      -129.83983665    155.181500    0.00000    0.57130   -0.52424    0    orth

 Final occupancy:   7   1

 !RHF STATE 1.1 Energy               -129.839836650920
 Nuclear energy                        30.43194952
 One-electron energy                 -237.86253615
 Two-electron energy                   77.59074998
 Virial quotient                       -1.00202478
 !RHF STATE 1.1 Dipole moment           0.00000000     0.57129672    -0.52423713
 Dipole moment /Debye                   0.00000000     1.45199631    -1.33239060

 Orbital energies:

         1.1          2.1          3.1          4.1          5.1          6.1          7.1          8.1          9.1
    -20.656173   -15.713523    -1.532631    -0.995608    -0.748466    -0.666572    -0.430418     0.029246     0.092198

         1.2          2.2          3.2
     -0.597127     0.065468     0.130165

 HOMO      7.1    -0.430418 =     -11.7123eV
 LUMO      8.1     0.029246 =       0.7958eV
 LUMO-HOMO         0.459663 =      12.5081eV


 **********************************************************************************************************************************
 DATASETS  * FILE   NREC   LENGTH (MB)   RECORD NAMES
              1      19      111.05       500      610      700      900      950      970     1000      129      960     1100   
                                          VAR    BASINP    GEOM    SYMINP    ZMAT    AOBASIS   BASIS     P2S    ABASIS      S 
                                         1400     1410     1200     1210     1080     1600     1650     1300     1700   
                                           T        V       H0       H01     AOSYM     SMH    MOLCAS    ERIS     OPER   

              2       4        2.94       700     1000      520     2100   
                                         GEOM     BASIS   MCVARS     RHF  

 PROGRAMS   *        TOTAL        HF       INT
 CPU TIMES  *         2.48      1.21      1.19
 REAL TIME  *         3.55 SEC
 DISK USED  *       327.55 MB      
 **********************************************************************************************************************************


 PROGRAM * CCSD (Closed-shell coupled cluster)     Authors: C. Hampel, H.-J. Werner, 1991, M. Deegan, P.J. Knowles, 1992


 Convergence thresholds:  THRVAR = 1.00D-08  THRDEN = 1.00D-12

 CCSD(T)     terms to be evaluated (factor= 1.000)


 Number of core orbitals:           2 (   2   0 )
 Number of closed-shell orbitals:   6 (   5   1 )
 Number of external orbitals:     107 (  69  38 )

 Molecular orbitals read from record     2100.2  Type=RHF/CANONICAL (state 1.1)

 Number of N-1 electron functions:               6
 Number of N-2 electron functions:              21
 Number of singly external CSFs:               383
 Number of doubly external CSFs:            107206
 Total number of CSFs:                      107590

 Length of J-op  integral file:               0.00 MB
 Length of K-op  integral file:               0.54 MB
 Length of 3-ext integral record:             0.00 MB

 Memory could be reduced to 5.94 Mwords without degradation in triples

 Integral transformation finished. Total CPU:   0.14 sec, npass=  1  Memory used:   1.65 MW

 Reference energy:                   -129.83983665

 MP2 singlet pair energy:              -0.27911918
 MP2 triplet pair energy:              -0.16497728
 MP2 correlation energy:               -0.44409646
 MP2 total energy:                   -130.28393311

 SCS-MP2 correlation energy:           -0.43759555   (PS=  1.200000  PT=  0.333333)
 SCS-MP2 total energy:               -130.27743220

 ITER.      SQ.NORM     CORR.ENERGY   TOTAL ENERGY   ENERGY CHANGE        DEN1      VAR(S)    VAR(P)  DIIS     TIME  TIME/IT
   1      1.12055392    -0.44829340  -130.28813005    -0.00419694     0.01173723  0.31D-02  0.31D-02  1  1     0.27     0.15
   2      1.13159212    -0.44850966  -130.28834631    -0.00021626    -0.01236696  0.99D-04  0.51D-03  2  2     0.40     0.16
   3      1.13800768    -0.44890246  -130.28873911    -0.00039279    -0.00297801  0.52D-04  0.50D-04  3  3     0.56     0.16
   4      1.14085845    -0.44891475  -130.28875141    -0.00001230    -0.00096601  0.40D-05  0.90D-05  4  4     0.70     0.16
   5      1.14188501    -0.44894279  -130.28877944    -0.00002803    -0.00021737  0.11D-05  0.16D-05  5  5     0.85     0.16
   6      1.14222076    -0.44892616  -130.28876281     0.00001663    -0.00004108  0.94D-07  0.40D-06  6  6     0.99     0.16
   7      1.14229384    -0.44892741  -130.28876406    -0.00000125    -0.00000170  0.18D-07  0.92D-07  6  1     1.14     0.16
   8      1.14231480    -0.44892810  -130.28876475    -0.00000069     0.00000161  0.36D-08  0.16D-07  6  2     1.30     0.16
   9      1.14232313    -0.44892755  -130.28876420     0.00000055    -0.00000086  0.24D-08  0.16D-08  6  3     1.44     0.16
  10      1.14232323    -0.44892805  -130.28876471    -0.00000050    -0.00000000  0.47D-09  0.23D-09  6  4     1.59     0.16
  11      1.14232162    -0.44892817  -130.28876483    -0.00000012     0.00000053  0.14D-09  0.30D-10  6  5     1.74     0.16
  12      1.14232035    -0.44892835  -130.28876500    -0.00000017     0.00000040  0.15D-10  0.85D-11  6  6     1.89     0.16
  13      1.14231966    -0.44892837  -130.28876502    -0.00000002     0.00000017  0.52D-11  0.16D-11  6  1     2.04     0.16
  14      1.14231925    -0.44892839  -130.28876504    -0.00000002     0.00000009  0.83D-12  0.51D-12  6  2     2.18     0.16
  15      1.14231908    -0.44892840  -130.28876505    -0.00000000     0.00000002  0.24D-12  0.16D-12  6  3     2.32     0.16
  16      1.14231900    -0.44892840  -130.28876505    -0.00000000     0.00000001  0.39D-13  0.57D-13  6  4     2.47     0.16
  17      1.14231895    -0.44892840  -130.28876505    -0.00000000     0.00000001  0.26D-14  0.13D-13  6  5     2.62     0.16
  18      1.14231894    -0.44892840  -130.28876505     0.00000000     0.00000000  0.11D-14  0.29D-14  6  6     2.77     0.16
  19      1.14231894    -0.44892840  -130.28876505     0.00000000     0.00000000  0.76D-15  0.47D-15  6  1     2.91     0.16
  20      1.14231894    -0.44892840  -130.28876505     0.00000000    -0.00000000  0.13D-15  0.80D-16  6  2     3.06     0.16
  21      1.14231894    -0.44892840  -130.28876505     0.00000000     0.00000000  0.59D-16  0.18D-16  6  3     3.19     0.16
  22      1.14231894    -0.44892840  -130.28876505     0.00000000    -0.00000000  0.29D-17  0.37D-17  6  5     3.33     0.17
  23      1.14231894    -0.44892840  -130.28876505     0.00000000     0.00000000  0.97D-18  0.31D-18  6  4     3.47     0.17
  24      1.14231894    -0.44892840  -130.28876505    -0.00000000    -0.00000000  0.25D-18  0.75D-19  6  6     3.62     0.17
  25      1.14231894    -0.44892840  -130.28876505     0.00000000    -0.00000000  0.31D-19  0.16D-19  6  1     3.77     0.17

 Norm of t1 vector:      0.07779084      S-energy:     0.00000000      T1 diagnostic:  0.01587899
                                                                       D1 diagnostic:  0.04178304

 Doubles amplitudes (print threshold =  0.500E-01):

         I         J         SYM. A    SYM. B    A         B      T(IJ, AB)

         6         6         2         2         1         1     -0.10810105


 Total CPU time for triples:      1.13 sec


 RESULTS
 =======

  Reference energy                   -129.839836650920
  CCSD singlet pair energy             -0.307730932822
  CCSD triplet pair energy             -0.141197467241
  CCSD correlation energy              -0.448928400057

  Triples (T) contribution             -0.020815529245
  Total correlation energy             -0.469743929302

  CCSD total energy                  -130.288765050977
  CCSD[T] energy                     -130.310631550723
  CCSD-T energy                      -130.309180627652
 !CCSD(T) total energy               -130.309580580222

 Timing summary (sec):

 STEP                 CPU(USER)    SYS     CPU(TOT)    WALL
 Transformation          0.14      0.03      0.17      0.17
 CCSD iterations         3.63      0.51      4.14      4.14
 Triples                 1.13      0.04      1.17      1.18

 Program statistics:

 Available memory in ccsd:               994999756
 Min. memory needed in ccsd:                389120
 Max. memory used in ccsd:                  473124
 Max. memory used in cckext:                599488 (25 integral passes)



 **********************************************************************************************************************************
 DATASETS  * FILE   NREC   LENGTH (MB)   RECORD NAMES
              1      20      128.20       500      610      700      900      950      970     1000      129      960     1100   
                                          VAR    BASINP    GEOM    SYMINP    ZMAT    AOBASIS   BASIS     P2S    ABASIS      S 
                                         1400     1410     1200     1210     1080     1600     1650     1300     1700     1380   
                                           T        V       H0       H01     AOSYM     SMH    MOLCAS    ERIS     OPER     JKOP   

              2       4        2.94       700     1000      520     2100   
                                         GEOM     BASIS   MCVARS     RHF  

 PROGRAMS   *        TOTAL   CCSD(T)        HF       INT
 CPU TIMES  *         7.40      4.92      1.21      1.19
 REAL TIME  *         9.07 SEC
 DISK USED  *       327.55 MB      
 **********************************************************************************************************************************

 CCSD(T)/aug-cc-pVTZ energy=   -130.309580580222

        CCSD(T)         HF-SCF  
   -130.30958058   -129.83983665
 **********************************************************************************************************************************
 Molpro calculation terminated
 Variable memory released
