
 Primary working directories    : /tmp/r2666/234895.maple
 Secondary working directories  : /tmp/r2666/234895.maple
 Wavefunction directory         : /ddn/home4/r2666/wfu/
 Main file repository           : /tmp/r2666/234895.maple/

 SHA1      : d5ffa45e93fdbca01ffc919aa182cfdae0147319
 NAME      : 2015.1.35
 ARCHNAME  : linux/x86_64
 FC        : /opt/intel/composer_xe_2015.1.133/bin/intel64/ifort
 BLASLIB   : -Wl,-_start-group /opt/intel/mkl/lib/intel64/libmkl_intel_ilp64.a /opt/intel/mkl/lib/intel64/libmkl_intel_thread.a /opt/intel/mkl/lib/intel64/libmkl_core.a -Wl,-_end-group
 id        : olemiss

 Nodes     nprocs
 cn026        1

 Using customized tuning parameters: mindgm=1; mindgv=20; mindgc=4; mindgr=1; noblas=0; minvec=7
 default implementation of scratch files=df  

 ***,hno CCSD(T)/TZ-F12 QFF
 memory, 995, m;
 gthresh,energy=1.d-12,zero=1.d-22,oneint=1.d-22,twoint=1.d-22;
 gthresh,optgrad=1.d-8,optstep=1.d-8;
 nocompress;
 geomtyp=xyz
 bohr
 geometry={
 3
          9         9
 N        0.0000000000       -0.1488652136       -1.1433212954
 H        0.0000000000        1.6572646761       -1.9278481036
 O        0.0000000000        0.0333683275        1.1205798080
 }
 
 basis=avtz
   {hf,maxit=500;accu,20;}
 {ccsd(t),nocheck,maxit=250;orbital,IGNORE_ERROR;}

 Variables initialized (889), CPU time= 0.00 sec
 Commands  initialized (702), CPU time= 0.01 sec, 572 directives.
 Default parameters read. Elapsed time= 0.06 sec

 Checking input...
 Passed
1


                                         ***  PROGRAM SYSTEM MOLPRO  ***
                                       Copyright, TTI GmbH Stuttgart, 2015
                                    Version 2015.1 linked Jul  9 2018 13:16:40


 **********************************************************************************************************************************
 LABEL *   hno CCSD(T)/TZ-F12 QFF                                                        
  64 bit serial version                                                                  DATE: 08-Feb-20          TIME: 17:55:49  
 **********************************************************************************************************************************

 SHA1:             d5ffa45e93fdbca01ffc919aa182cfdae0147319
 **********************************************************************************************************************************

 THRESHOLDS:

 ZERO    =  1.00D-22  ONEINT  =  1.00D-22  TWOINT  =  1.00D-22  PREFAC  =  1.00D-14  LOCALI  =  1.00D-09  EORDER  =  1.00D-04
 ENERGY  =  1.00D-12  ETEST   =  0.00D+00  EDENS   =  0.00D+00  THRDEDEF=  1.00D-06  GRADIENT=  1.00D-02  STEP    =  1.00D-03
 ORBITAL =  1.00D-05  CIVEC   =  1.00D-05  COEFF   =  1.00D-04  PRINTCI =  5.00D-02  PUNCHCI =  9.90D+01  OPTGRAD =  3.00D-04
 OPTENERG=  1.00D-06  OPTSTEP =  3.00D-04  THRGRAD =  1.00D-10  COMPRESS=  1.00D-11  VARMIN  =  1.00D-07  VARMAX  =  1.00D-03
 THRDOUB =  0.00D+00  THRDIV  =  1.00D-05  THRRED  =  1.00D-07  THRPSP  =  1.00D+00  THRDC   =  1.00D-10  THRCS   =  1.00D-10
 THRNRM  =  1.00D-08  THREQ   =  0.00D+00  THRDE   =  1.00D+00  THRREF  =  1.00D-05  SPARFAC =  1.00D+00  THRDLP  =  1.00D-07
 THRDIA  =  1.00D-10  THRDLS  =  1.00D-07  THRGPS  =  0.00D+00  THRKEX  =  0.00D+00  THRDIS  =  2.00D-01  THRVAR  =  1.00D-10
 THRLOC  =  1.00D-06  THRGAP  =  1.00D-06  THRLOCT = -1.00D+00  THRGAPT = -1.00D+00  THRORB  =  1.00D-06  THRMLTP =  0.00D+00
 THRCPQCI=  1.00D-10  KEXTA   =  0.00D+00  THRCOARS=  0.00D+00  SYMTOL  =  1.00D-06  GRADTOL =  1.00D-06  THROVL  =  1.00D-08
 THRORTH =  1.00D-08  GRID    =  1.00D-06  GRIDMAX =  1.00D-03  DTMAX   =  0.00D+00  THROCCDE=  1.00D-01  THROCCDE=  1.00D-01



 THRESHOLDS:

 ZERO    =  1.00D-22  ONEINT  =  1.00D-22  TWOINT  =  1.00D-22  PREFAC  =  1.00D-14  LOCALI  =  1.00D-09  EORDER  =  1.00D-04
 ENERGY  =  1.00D-12  ETEST   =  0.00D+00  EDENS   =  0.00D+00  THRDEDEF=  1.00D-06  GRADIENT=  1.00D-02  STEP    =  1.00D-03
 ORBITAL =  1.00D-05  CIVEC   =  1.00D-05  COEFF   =  1.00D-04  PRINTCI =  5.00D-02  PUNCHCI =  9.90D+01  OPTGRAD =  1.00D-08
 OPTENERG=  1.00D-06  OPTSTEP =  1.00D-08  THRGRAD =  1.00D-10  COMPRESS=  1.00D-11  VARMIN  =  1.00D-07  VARMAX  =  1.00D-03
 THRDOUB =  0.00D+00  THRDIV  =  1.00D-05  THRRED  =  1.00D-07  THRPSP  =  1.00D+00  THRDC   =  1.00D-10  THRCS   =  1.00D-10
 THRNRM  =  1.00D-08  THREQ   =  0.00D+00  THRDE   =  1.00D+00  THRREF  =  1.00D-05  SPARFAC =  1.00D+00  THRDLP  =  1.00D-07
 THRDIA  =  1.00D-10  THRDLS  =  1.00D-07  THRGPS  =  0.00D+00  THRKEX  =  0.00D+00  THRDIS  =  2.00D-01  THRVAR  =  1.00D-10
 THRLOC  =  1.00D-06  THRGAP  =  1.00D-06  THRLOCT = -1.00D+00  THRGAPT = -1.00D+00  THRORB  =  1.00D-06  THRMLTP =  0.00D+00
 THRCPQCI=  1.00D-10  KEXTA   =  0.00D+00  THRCOARS=  0.00D+00  SYMTOL  =  1.00D-06  GRADTOL =  1.00D-06  THROVL  =  1.00D-08
 THRORTH =  1.00D-08  GRID    =  1.00D-06  GRIDMAX =  1.00D-03  DTMAX   =  0.00D+00  THROCCDE=  1.00D-01  THROCCDE=  1.00D-01



 Input parameters for SORTINT:

 COMPRESS =    0.000000
 C_FINAL  =    1.000000
 DEBUG    =   -1.000000
 C_SORT1  =    0.000000
 C_SEWARD =    0.000000
 THRESH   =    0.000000
 IO       =  molpro                                                          
 SPRI     =    0.000000
 SETTING GEOMTYP        =    XYZ
 ZUNIT=BOHR
 

 Variable memory set to  995000000 words,  buffer space   230000 words

 SETTING BASIS          =    AVTZ


 Recomputing integrals since basis changed


 Using spherical harmonics

 Library entry N      S aug-cc-pVTZ          selected for orbital group  1
 Library entry N      P aug-cc-pVTZ          selected for orbital group  1
 Library entry N      D aug-cc-pVTZ          selected for orbital group  1
 Library entry N      F aug-cc-pVTZ          selected for orbital group  1
 Library entry H      S aug-cc-pVTZ          selected for orbital group  2
 Library entry H      P aug-cc-pVTZ          selected for orbital group  2
 Library entry H      D aug-cc-pVTZ          selected for orbital group  2
 Library entry O      S aug-cc-pVTZ          selected for orbital group  3
 Library entry O      P aug-cc-pVTZ          selected for orbital group  3
 Library entry O      D aug-cc-pVTZ          selected for orbital group  3
 Library entry O      F aug-cc-pVTZ          selected for orbital group  3


 PROGRAM * SEWARD (Integral evaluation for generally contracted gaussian basis sets)     Author: Roland Lindh, 1990

 Geometry written to block  1 of record 700


 Point group  Cs  



 ATOMIC COORDINATES

 NR  ATOM    CHARGE       X              Y              Z

   1  N       7.00    0.000000000   -0.148865214   -1.143321295
   2  H       1.00    0.000000000    1.657264676   -1.927848104
   3  O       8.00    0.000000000    0.033368328    1.120579808

 Bond lengths in Bohr (Angstrom)

 1-2  1.969159082  1-3  2.271223738
     ( 1.042034111)     ( 1.201879843)

 Bond angles

  2-1-3  108.87650965

 NUCLEAR CHARGE:                   16
 NUMBER OF PRIMITIVE AOS:         161
 NUMBER OF SYMMETRY AOS:          141
 NUMBER OF CONTRACTIONS:          115   (  76A'  +  39A"  )
 NUMBER OF CORE ORBITALS:           2   (   2A'  +   0A"  )
 NUMBER OF VALENCE ORBITALS:        9   (   7A'  +   2A"  )


 NUCLEAR REPULSION ENERGY   30.52729951

 Eigenvalues of metric

         1 0.229E-03 0.489E-03 0.179E-02 0.208E-02 0.247E-02 0.348E-02 0.426E-02 0.500E-02
         2 0.387E-02 0.982E-02 0.258E-01 0.365E-01 0.508E-01 0.615E-01 0.797E-01 0.119E+00


 Contracted 2-electron integrals neglected if value below      1.0D-22

       10790060. INTEGRALS WRITTEN OUT IN    2635 BLOCKS ON RECORD 1290 OF FILE 1


 NUMBER OF SORTED TWO-ELECTRON INTEGRALS:   11433631.     BUFFER LENGTH:  32768
 NUMBER OF SEGMENTS:   1  SEGMENT LENGTH:   11433631      RECORD LENGTH: 524288

 Memory used in sort:      11.99 MW

 SORT1 READ    10790060. AND WROTE    10943631. INTEGRALS IN     32 RECORDS. CPU TIME:     0.25 SEC, REAL TIME:     0.32 SEC
 SORT2 READ    10943631. AND WROTE    11433631. INTEGRALS IN      1 RECORDS. CPU TIME:     0.23 SEC, REAL TIME:     0.27 SEC

 FILE SIZES:   FILE 1:   193.0 MBYTE,  FILE 4:   134.3 MBYTE,   TOTAL:    327.2 MBYTE

 OPERATOR DM      FOR CENTER  0  COORDINATES:    0.000000    0.000000    0.000000


 **********************************************************************************************************************************
 DATASETS  * FILE   NREC   LENGTH (MB)   RECORD NAMES
              1      19      111.05       500      610      700      900      950      970     1000      129      960     1100   
                                          VAR    BASINP    GEOM    SYMINP    ZMAT    AOBASIS   BASIS     P2S    ABASIS      S 
                                         1400     1410     1200     1210     1080     1600     1650     1300     1700   
                                           T        V       H0       H01     AOSYM     SMH    MOLCAS    ERIS     OPER   

 PROGRAMS   *        TOTAL       INT
 CPU TIMES  *         1.76      1.66
 REAL TIME  *         2.55 SEC
 DISK USED  *       327.55 MB      
 **********************************************************************************************************************************


 PROGRAM * RHF-SCF (CLOSED SHELL)       Authors: W. Meyer, H.-J. Werner


 NUMBER OF ELECTRONS:       8+    8-
 CONVERGENCE THRESHOLDS:    1.00E-10 (Density)    1.00E-13 (Energy)
 MAX. NUMBER OF ITERATIONS:      500
 INTERPOLATION TYPE:            DIIS
 INTERPOLATION STEPS:              2 (START)      1 (STEP)
 LEVEL SHIFTS:                  0.00 (CLOSED)  0.00 (OPEN) 



 Orbital guess generated from atomic densities. Full valence occupancy:    9   2

 Molecular orbital dump at record        2100.2

 Initial occupancy:   7   1

 ITERATION    DDIFF          GRAD             ENERGY        2-EL.EN.            DIPOLE MOMENTS         DIIS   ORB.
    1      0.000D+00      0.000D+00      -129.79080258    154.183590    0.00000    0.60148   -1.00169    0    start
    2      0.000D+00      0.106D-01      -129.81842571    155.455828    0.00000    0.60759   -0.21948    1    diag
    3      0.117D-01      0.796D-02      -129.83957138    155.555444    0.00000    0.56052   -0.58729    2    diag
    4      0.577D-02      0.127D-02      -129.84034925    155.273000    0.00000    0.56786   -0.52819    3    diag
    5      0.107D-02      0.415D-03      -129.84047051    155.365805    0.00000    0.57336   -0.53111    4    diag
    6      0.442D-03      0.119D-03      -129.84048965    155.350471    0.00000    0.57378   -0.52717    5    diag
    7      0.168D-03      0.587D-04      -129.84049507    155.352986    0.00000    0.57502   -0.52471    6    diag
    8      0.115D-03      0.196D-04      -129.84049563    155.352364    0.00000    0.57504   -0.52376    7    diag
    9      0.419D-04      0.367D-05      -129.84049565    155.352264    0.00000    0.57500   -0.52356    8    diag
   10      0.796D-05      0.852D-06      -129.84049565    155.352246    0.00000    0.57497   -0.52353    9    orth
   11      0.167D-05      0.170D-06      -129.84049565    155.352243    0.00000    0.57497   -0.52353    9    diag
   12      0.325D-06      0.345D-07      -129.84049565    155.352243    0.00000    0.57496   -0.52353    9    diag
   13      0.694D-07      0.853D-08      -129.84049565    155.352243    0.00000    0.57496   -0.52353    9    diag
   14      0.177D-07      0.177D-08      -129.84049565    155.352243    0.00000    0.57496   -0.52353    9    diag
   15      0.357D-08      0.499D-09      -129.84049565    155.352243    0.00000    0.57496   -0.52353    9    diag
   16      0.972D-09      0.139D-09      -129.84049565    155.352243    0.00000    0.57496   -0.52353    9    diag
   17      0.178D-09      0.391D-10      -129.84049565    155.352243    0.00000    0.57496   -0.52353    9    diag
   18      0.493D-10      0.139D-10      -129.84049565    155.352243    0.00000    0.57496   -0.52353    0    orth

 Final occupancy:   7   1

 !RHF STATE 1.1 Energy               -129.840495653474
 Nuclear energy                        30.52729951
 One-electron energy                 -238.04391648
 Two-electron energy                   77.67612132
 Virial quotient                       -1.00186664
 !RHF STATE 1.1 Dipole moment           0.00000000     0.57496376    -0.52352835
 Dipole moment /Debye                   0.00000000     1.46131640    -1.33058919

 Orbital energies:

         1.1          2.1          3.1          4.1          5.1          6.1          7.1          8.1          9.1
    -20.655946   -15.711927    -1.535549    -0.996620    -0.750222    -0.667991    -0.428683     0.029215     0.092157

         1.2          2.2          3.2
     -0.598899     0.066444     0.130156

 HOMO      7.1    -0.428683 =     -11.6650eV
 LUMO      8.1     0.029215 =       0.7950eV
 LUMO-HOMO         0.457898 =      12.4600eV


 **********************************************************************************************************************************
 DATASETS  * FILE   NREC   LENGTH (MB)   RECORD NAMES
              1      19      111.05       500      610      700      900      950      970     1000      129      960     1100   
                                          VAR    BASINP    GEOM    SYMINP    ZMAT    AOBASIS   BASIS     P2S    ABASIS      S 
                                         1400     1410     1200     1210     1080     1600     1650     1300     1700   
                                           T        V       H0       H01     AOSYM     SMH    MOLCAS    ERIS     OPER   

              2       4        2.94       700     1000      520     2100   
                                         GEOM     BASIS   MCVARS     RHF  

 PROGRAMS   *        TOTAL        HF       INT
 CPU TIMES  *         3.04      1.28      1.66
 REAL TIME  *         4.03 SEC
 DISK USED  *       327.55 MB      
 **********************************************************************************************************************************


 PROGRAM * CCSD (Closed-shell coupled cluster)     Authors: C. Hampel, H.-J. Werner, 1991, M. Deegan, P.J. Knowles, 1992


 Convergence thresholds:  THRVAR = 1.00D-08  THRDEN = 1.00D-12

 CCSD(T)     terms to be evaluated (factor= 1.000)


 Number of core orbitals:           2 (   2   0 )
 Number of closed-shell orbitals:   6 (   5   1 )
 Number of external orbitals:     107 (  69  38 )

 Molecular orbitals read from record     2100.2  Type=RHF/CANONICAL (state 1.1)

 Number of N-1 electron functions:               6
 Number of N-2 electron functions:              21
 Number of singly external CSFs:               383
 Number of doubly external CSFs:            107206
 Total number of CSFs:                      107590

 Length of J-op  integral file:               0.00 MB
 Length of K-op  integral file:               0.54 MB
 Length of 3-ext integral record:             0.00 MB

 Memory could be reduced to 5.94 Mwords without degradation in triples

 Integral transformation finished. Total CPU:   0.21 sec, npass=  1  Memory used:   1.65 MW

 Reference energy:                   -129.84049565

 MP2 singlet pair energy:              -0.27856875
 MP2 triplet pair energy:              -0.16462428
 MP2 correlation energy:               -0.44319303
 MP2 total energy:                   -130.28368869

 SCS-MP2 correlation energy:           -0.43671539   (PS=  1.200000  PT=  0.333333)
 SCS-MP2 total energy:               -130.27721104

 ITER.      SQ.NORM     CORR.ENERGY   TOTAL ENERGY   ENERGY CHANGE        DEN1      VAR(S)    VAR(P)  DIIS     TIME  TIME/IT
   1      1.11996685    -0.44755893  -130.28805458    -0.00436589     0.01137763  0.30D-02  0.31D-02  1  1     0.43     0.25
   2      1.13088957    -0.44780482  -130.28830048    -0.00024590    -0.01225219  0.97D-04  0.50D-03  2  2     0.69     0.26
   3      1.13720953    -0.44819033  -130.28868598    -0.00038551    -0.00294201  0.51D-04  0.50D-04  3  3     0.94     0.26
   4      1.14001580    -0.44820243  -130.28869809    -0.00001210    -0.00095247  0.39D-05  0.90D-05  4  4     1.18     0.26
   5      1.14102492    -0.44822966  -130.28872531    -0.00002722    -0.00021343  0.10D-05  0.17D-05  5  5     1.44     0.26
   6      1.14135846    -0.44821357  -130.28870923     0.00001609    -0.00004048  0.91D-07  0.41D-06  6  6     1.69     0.27
   7      1.14143303    -0.44821482  -130.28871048    -0.00000125    -0.00000192  0.18D-07  0.93D-07  6  1     1.95     0.27
   8      1.14145417    -0.44821562  -130.28871127    -0.00000079     0.00000162  0.38D-08  0.16D-07  6  2     2.21     0.27
   9      1.14145932    -0.44821521  -130.28871086     0.00000041     0.00000039  0.28D-08  0.18D-08  6  4     2.46     0.27
  10      1.14146153    -0.44821568  -130.28871133    -0.00000047    -0.00000068  0.45D-09  0.21D-09  6  3     2.72     0.27
  11      1.14146101    -0.44821570  -130.28871136    -0.00000003    -0.00000006  0.15D-09  0.32D-10  6  5     2.97     0.27
  12      1.14145997    -0.44821585  -130.28871150    -0.00000015     0.00000033  0.17D-10  0.10D-10  6  6     3.22     0.27
  13      1.14145915    -0.44821588  -130.28871154    -0.00000003     0.00000021  0.59D-11  0.21D-11  6  1     3.48     0.27
  14      1.14145863    -0.44821591  -130.28871156    -0.00000003     0.00000013  0.93D-12  0.68D-12  6  2     3.73     0.27
  15      1.14145841    -0.44821592  -130.28871157    -0.00000001     0.00000003  0.25D-12  0.22D-12  6  4     3.99     0.27
  16      1.14145828    -0.44821592  -130.28871157    -0.00000000     0.00000002  0.36D-13  0.26D-13  6  5     4.25     0.27
  17      1.14145825    -0.44821592  -130.28871158    -0.00000000     0.00000000  0.66D-15  0.19D-14  6  3     4.49     0.27
  18      1.14145825    -0.44821592  -130.28871158     0.00000000    -0.00000000  0.23D-15  0.26D-15  6  6     4.75     0.27
  19      1.14145825    -0.44821592  -130.28871158     0.00000000    -0.00000000  0.70D-16  0.36D-16  6  1     4.98     0.27
  20      1.14145825    -0.44821592  -130.28871158     0.00000000    -0.00000000  0.19D-16  0.65D-17  6  2     5.21     0.27
  21      1.14145825    -0.44821592  -130.28871158     0.00000000    -0.00000000  0.35D-17  0.18D-17  6  5     5.46     0.27
  22      1.14145825    -0.44821592  -130.28871158    -0.00000000     0.00000000  0.35D-18  0.20D-18  6  4     5.72     0.27
  23      1.14145825    -0.44821592  -130.28871158     0.00000000     0.00000000  0.12D-18  0.38D-19  6  3     5.97     0.27
  24      1.14145825    -0.44821592  -130.28871158     0.00000000     0.00000000  0.12D-19  0.52D-20  6  2     6.23     0.27
  25      1.14145825    -0.44821592  -130.28871158     0.00000000    -0.00000000  0.20D-20  0.82D-21  6  6     6.47     0.27
  26      1.14145825    -0.44821592  -130.28871158     0.00000000    -0.00000000  0.44D-21  0.21D-21  6  1     6.74     0.27

 Norm of t1 vector:      0.07720596      S-energy:     0.00000000      T1 diagnostic:  0.01575960
                                                                       D1 diagnostic:  0.04132060

 Doubles amplitudes (print threshold =  0.500E-01):

         I         J         SYM. A    SYM. B    A         B      T(IJ, AB)

         6         6         2         2         1         1     -0.10627760


 Total CPU time for triples:      1.92 sec


 RESULTS
 =======

  Reference energy                   -129.840495653475
  CCSD singlet pair energy             -0.307119271019
  CCSD triplet pair energy             -0.141096651651
  CCSD correlation energy              -0.448215922669

  Triples (T) contribution             -0.020667784587
  Total correlation energy             -0.468883707256

  CCSD total energy                  -130.288711576143
  CCSD[T] energy                     -130.310413381855
  CCSD-T energy                      -130.308984184445
 !CCSD(T) total energy               -130.309379360730

 Timing summary (sec):

 STEP                 CPU(USER)    SYS     CPU(TOT)    WALL
 Transformation          0.21      0.04      0.25      0.26
 CCSD iterations         6.53      0.47      7.00      7.00
 Triples                 1.92      0.04      1.96      1.96

 Program statistics:

 Available memory in ccsd:               994999756
 Min. memory needed in ccsd:                389120
 Max. memory used in ccsd:                  473124
 Max. memory used in cckext:                599488 (26 integral passes)



 **********************************************************************************************************************************
 DATASETS  * FILE   NREC   LENGTH (MB)   RECORD NAMES
              1      20      128.20       500      610      700      900      950      970     1000      129      960     1100   
                                          VAR    BASINP    GEOM    SYMINP    ZMAT    AOBASIS   BASIS     P2S    ABASIS      S 
                                         1400     1410     1200     1210     1080     1600     1650     1300     1700     1380   
                                           T        V       H0       H01     AOSYM     SMH    MOLCAS    ERIS     OPER     JKOP   

              2       4        2.94       700     1000      520     2100   
                                         GEOM     BASIS   MCVARS     RHF  

 PROGRAMS   *        TOTAL   CCSD(T)        HF       INT
 CPU TIMES  *        11.74      8.70      1.28      1.66
 REAL TIME  *        13.30 SEC
 DISK USED  *       327.55 MB      
 **********************************************************************************************************************************

 CCSD(T)/aug-cc-pVTZ energy=   -130.309379360730

        CCSD(T)         HF-SCF  
   -130.30937936   -129.84049565
 **********************************************************************************************************************************
 Molpro calculation terminated
 Variable memory released
