
 Primary working directories    : /tmp/r2666/234956.maple
 Secondary working directories  : /tmp/r2666/234956.maple
 Wavefunction directory         : /ddn/home4/r2666/wfu/
 Main file repository           : /tmp/r2666/234956.maple/

 SHA1      : d5ffa45e93fdbca01ffc919aa182cfdae0147319
 NAME      : 2015.1.35
 ARCHNAME  : linux/x86_64
 FC        : /opt/intel/composer_xe_2015.1.133/bin/intel64/ifort
 BLASLIB   : -Wl,-_start-group /opt/intel/mkl/lib/intel64/libmkl_intel_ilp64.a /opt/intel/mkl/lib/intel64/libmkl_intel_thread.a /opt/intel/mkl/lib/intel64/libmkl_core.a -Wl,-_end-group
 id        : olemiss

 Nodes     nprocs
 cn034        1

 Using customized tuning parameters: mindgm=1; mindgv=20; mindgc=4; mindgr=1; noblas=0; minvec=7
 default implementation of scratch files=df  

 ***,hno CCSD(T)/TZ-F12 QFF
 memory, 995, m;
 gthresh,energy=1.d-12,zero=1.d-22,oneint=1.d-22,twoint=1.d-22;
 gthresh,optgrad=1.d-8,optstep=1.d-8;
 nocompress;
 geomtyp=xyz
 bohr
 geometry={
 3
         70        70
 N        0.0000000000       -0.1511468112       -1.1330719104
 H        0.0000000000        1.6659320368       -1.9396650417
 O        0.0000000000        0.0269825644        1.1221473612
 }
 
 basis=avtz
   {hf,maxit=500;accu,20;}
 {ccsd(t),nocheck,maxit=250;orbital,IGNORE_ERROR;}

 Variables initialized (889), CPU time= 0.00 sec
 Commands  initialized (702), CPU time= 0.01 sec, 572 directives.
 Default parameters read. Elapsed time= 0.05 sec

 Checking input...
 Passed
1


                                         ***  PROGRAM SYSTEM MOLPRO  ***
                                       Copyright, TTI GmbH Stuttgart, 2015
                                    Version 2015.1 linked Jul  9 2018 13:16:40


 **********************************************************************************************************************************
 LABEL *   hno CCSD(T)/TZ-F12 QFF                                                        
  64 bit serial version                                                                  DATE: 08-Feb-20          TIME: 17:56:32  
 **********************************************************************************************************************************

 SHA1:             d5ffa45e93fdbca01ffc919aa182cfdae0147319
 **********************************************************************************************************************************

 THRESHOLDS:

 ZERO    =  1.00D-22  ONEINT  =  1.00D-22  TWOINT  =  1.00D-22  PREFAC  =  1.00D-14  LOCALI  =  1.00D-09  EORDER  =  1.00D-04
 ENERGY  =  1.00D-12  ETEST   =  0.00D+00  EDENS   =  0.00D+00  THRDEDEF=  1.00D-06  GRADIENT=  1.00D-02  STEP    =  1.00D-03
 ORBITAL =  1.00D-05  CIVEC   =  1.00D-05  COEFF   =  1.00D-04  PRINTCI =  5.00D-02  PUNCHCI =  9.90D+01  OPTGRAD =  3.00D-04
 OPTENERG=  1.00D-06  OPTSTEP =  3.00D-04  THRGRAD =  1.00D-10  COMPRESS=  1.00D-11  VARMIN  =  1.00D-07  VARMAX  =  1.00D-03
 THRDOUB =  0.00D+00  THRDIV  =  1.00D-05  THRRED  =  1.00D-07  THRPSP  =  1.00D+00  THRDC   =  1.00D-10  THRCS   =  1.00D-10
 THRNRM  =  1.00D-08  THREQ   =  0.00D+00  THRDE   =  1.00D+00  THRREF  =  1.00D-05  SPARFAC =  1.00D+00  THRDLP  =  1.00D-07
 THRDIA  =  1.00D-10  THRDLS  =  1.00D-07  THRGPS  =  0.00D+00  THRKEX  =  0.00D+00  THRDIS  =  2.00D-01  THRVAR  =  1.00D-10
 THRLOC  =  1.00D-06  THRGAP  =  1.00D-06  THRLOCT = -1.00D+00  THRGAPT = -1.00D+00  THRORB  =  1.00D-06  THRMLTP =  0.00D+00
 THRCPQCI=  1.00D-10  KEXTA   =  0.00D+00  THRCOARS=  0.00D+00  SYMTOL  =  1.00D-06  GRADTOL =  1.00D-06  THROVL  =  1.00D-08
 THRORTH =  1.00D-08  GRID    =  1.00D-06  GRIDMAX =  1.00D-03  DTMAX   =  0.00D+00  THROCCDE=  1.00D-01  THROCCDE=  1.00D-01



 THRESHOLDS:

 ZERO    =  1.00D-22  ONEINT  =  1.00D-22  TWOINT  =  1.00D-22  PREFAC  =  1.00D-14  LOCALI  =  1.00D-09  EORDER  =  1.00D-04
 ENERGY  =  1.00D-12  ETEST   =  0.00D+00  EDENS   =  0.00D+00  THRDEDEF=  1.00D-06  GRADIENT=  1.00D-02  STEP    =  1.00D-03
 ORBITAL =  1.00D-05  CIVEC   =  1.00D-05  COEFF   =  1.00D-04  PRINTCI =  5.00D-02  PUNCHCI =  9.90D+01  OPTGRAD =  1.00D-08
 OPTENERG=  1.00D-06  OPTSTEP =  1.00D-08  THRGRAD =  1.00D-10  COMPRESS=  1.00D-11  VARMIN  =  1.00D-07  VARMAX  =  1.00D-03
 THRDOUB =  0.00D+00  THRDIV  =  1.00D-05  THRRED  =  1.00D-07  THRPSP  =  1.00D+00  THRDC   =  1.00D-10  THRCS   =  1.00D-10
 THRNRM  =  1.00D-08  THREQ   =  0.00D+00  THRDE   =  1.00D+00  THRREF  =  1.00D-05  SPARFAC =  1.00D+00  THRDLP  =  1.00D-07
 THRDIA  =  1.00D-10  THRDLS  =  1.00D-07  THRGPS  =  0.00D+00  THRKEX  =  0.00D+00  THRDIS  =  2.00D-01  THRVAR  =  1.00D-10
 THRLOC  =  1.00D-06  THRGAP  =  1.00D-06  THRLOCT = -1.00D+00  THRGAPT = -1.00D+00  THRORB  =  1.00D-06  THRMLTP =  0.00D+00
 THRCPQCI=  1.00D-10  KEXTA   =  0.00D+00  THRCOARS=  0.00D+00  SYMTOL  =  1.00D-06  GRADTOL =  1.00D-06  THROVL  =  1.00D-08
 THRORTH =  1.00D-08  GRID    =  1.00D-06  GRIDMAX =  1.00D-03  DTMAX   =  0.00D+00  THROCCDE=  1.00D-01  THROCCDE=  1.00D-01



 Input parameters for SORTINT:

 COMPRESS =    0.000000
 C_FINAL  =    1.000000
 DEBUG    =   -1.000000
 C_SORT1  =    0.000000
 C_SEWARD =    0.000000
 THRESH   =    0.000000
 IO       =  molpro                                                          
 SPRI     =    0.000000
 SETTING GEOMTYP        =    XYZ
 ZUNIT=BOHR
 

 Variable memory set to  995000000 words,  buffer space   230000 words

 SETTING BASIS          =    AVTZ


 Recomputing integrals since basis changed


 Using spherical harmonics

 Library entry N      S aug-cc-pVTZ          selected for orbital group  1
 Library entry N      P aug-cc-pVTZ          selected for orbital group  1
 Library entry N      D aug-cc-pVTZ          selected for orbital group  1
 Library entry N      F aug-cc-pVTZ          selected for orbital group  1
 Library entry H      S aug-cc-pVTZ          selected for orbital group  2
 Library entry H      P aug-cc-pVTZ          selected for orbital group  2
 Library entry H      D aug-cc-pVTZ          selected for orbital group  2
 Library entry O      S aug-cc-pVTZ          selected for orbital group  3
 Library entry O      P aug-cc-pVTZ          selected for orbital group  3
 Library entry O      D aug-cc-pVTZ          selected for orbital group  3
 Library entry O      F aug-cc-pVTZ          selected for orbital group  3


 PROGRAM * SEWARD (Integral evaluation for generally contracted gaussian basis sets)     Author: Roland Lindh, 1990

 Geometry written to block  1 of record 700


 Point group  Cs  



 ATOMIC COORDINATES

 NR  ATOM    CHARGE       X              Y              Z

   1  N       7.00    0.000000000   -0.151146811   -1.133071910
   2  H       1.00    0.000000000    1.665932037   -1.939665042
   3  O       8.00    0.000000000    0.026982564    1.122147361

 Bond lengths in Bohr (Angstrom)

 1-2  1.988056342  1-3  2.262243143
     ( 1.052034110)     ( 1.197127517)

 Bond angles

  2-1-3  109.42006613

 NUCLEAR CHARGE:                   16
 NUMBER OF PRIMITIVE AOS:         161
 NUMBER OF SYMMETRY AOS:          141
 NUMBER OF CONTRACTIONS:          115   (  76A'  +  39A"  )
 NUMBER OF CORE ORBITALS:           2   (   2A'  +   0A"  )
 NUMBER OF VALENCE ORBITALS:        9   (   7A'  +   2A"  )


 NUCLEAR REPULSION ENERGY   30.57878638

 Eigenvalues of metric

         1 0.229E-03 0.490E-03 0.180E-02 0.210E-02 0.244E-02 0.341E-02 0.430E-02 0.506E-02
         2 0.382E-02 0.100E-01 0.257E-01 0.366E-01 0.506E-01 0.619E-01 0.792E-01 0.119E+00


 Contracted 2-electron integrals neglected if value below      1.0D-22

       10790064. INTEGRALS WRITTEN OUT IN    2635 BLOCKS ON RECORD 1290 OF FILE 1


 NUMBER OF SORTED TWO-ELECTRON INTEGRALS:   11433631.     BUFFER LENGTH:  32768
 NUMBER OF SEGMENTS:   1  SEGMENT LENGTH:   11433631      RECORD LENGTH: 524288

 Memory used in sort:      11.99 MW

 SORT1 READ    10790064. AND WROTE    10943632. INTEGRALS IN     32 RECORDS. CPU TIME:     0.28 SEC, REAL TIME:     0.36 SEC
 SORT2 READ    10943632. AND WROTE    11433631. INTEGRALS IN      1 RECORDS. CPU TIME:     0.18 SEC, REAL TIME:     0.25 SEC

 FILE SIZES:   FILE 1:   193.0 MBYTE,  FILE 4:   134.3 MBYTE,   TOTAL:    327.2 MBYTE

 OPERATOR DM      FOR CENTER  0  COORDINATES:    0.000000    0.000000    0.000000


 **********************************************************************************************************************************
 DATASETS  * FILE   NREC   LENGTH (MB)   RECORD NAMES
              1      19      111.05       500      610      700      900      950      970     1000      129      960     1100   
                                          VAR    BASINP    GEOM    SYMINP    ZMAT    AOBASIS   BASIS     P2S    ABASIS      S 
                                         1400     1410     1200     1210     1080     1600     1650     1300     1700   
                                           T        V       H0       H01     AOSYM     SMH    MOLCAS    ERIS     OPER   

 PROGRAMS   *        TOTAL       INT
 CPU TIMES  *         1.58      1.50
 REAL TIME  *         2.34 SEC
 DISK USED  *       327.55 MB      
 **********************************************************************************************************************************


 PROGRAM * RHF-SCF (CLOSED SHELL)       Authors: W. Meyer, H.-J. Werner


 NUMBER OF ELECTRONS:       8+    8-
 CONVERGENCE THRESHOLDS:    1.00E-10 (Density)    1.00E-13 (Energy)
 MAX. NUMBER OF ITERATIONS:      500
 INTERPOLATION TYPE:            DIIS
 INTERPOLATION STEPS:              2 (START)      1 (STEP)
 LEVEL SHIFTS:                  0.00 (CLOSED)  0.00 (OPEN) 



 Orbital guess generated from atomic densities. Full valence occupancy:    9   2

 Molecular orbital dump at record        2100.2

 Initial occupancy:   7   1

 ITERATION    DDIFF          GRAD             ENERGY        2-EL.EN.            DIPOLE MOMENTS         DIIS   ORB.
    1      0.000D+00      0.000D+00      -129.79128771    154.265010    0.00000    0.59739   -0.98863    0    start
    2      0.000D+00      0.106D-01      -129.81901172    155.561045    0.00000    0.60323   -0.21924    1    diag
    3      0.116D-01      0.790D-02      -129.83981251    155.646617    0.00000    0.55676   -0.58095    2    diag
    4      0.573D-02      0.126D-02      -129.84058291    155.366280    0.00000    0.56389   -0.52252    3    diag
    5      0.106D-02      0.413D-03      -129.84070396    155.459640    0.00000    0.56959   -0.52564    4    diag
    6      0.441D-03      0.119D-03      -129.84072314    155.444262    0.00000    0.57005   -0.52177    5    diag
    7      0.168D-03      0.583D-04      -129.84072850    155.446869    0.00000    0.57134   -0.51939    6    diag
    8      0.115D-03      0.192D-04      -129.84072902    155.446259    0.00000    0.57137   -0.51848    7    diag
    9      0.408D-04      0.361D-05      -129.84072904    155.446159    0.00000    0.57134   -0.51828    8    diag
   10      0.772D-05      0.850D-06      -129.84072905    155.446140    0.00000    0.57130   -0.51825    9    orth
   11      0.167D-05      0.171D-06      -129.84072905    155.446136    0.00000    0.57130   -0.51825    9    diag
   12      0.332D-06      0.345D-07      -129.84072905    155.446136    0.00000    0.57129   -0.51825    9    diag
   13      0.709D-07      0.850D-08      -129.84072905    155.446136    0.00000    0.57129   -0.51825    9    diag
   14      0.180D-07      0.179D-08      -129.84072905    155.446136    0.00000    0.57129   -0.51825    9    diag
   15      0.371D-08      0.512D-09      -129.84072905    155.446136    0.00000    0.57129   -0.51825    9    diag
   16      0.101D-08      0.145D-09      -129.84072905    155.446136    0.00000    0.57129   -0.51825    9    diag
   17      0.190D-09      0.420D-10      -129.84072905    155.446136    0.00000    0.57129   -0.51825    9    diag
   18      0.544D-10      0.149D-10      -129.84072905    155.446136    0.00000    0.57129   -0.51825    0    orth

 Final occupancy:   7   1

 !RHF STATE 1.1 Energy               -129.840729046183
 Nuclear energy                        30.57878638
 One-electron energy                 -238.14258337
 Two-electron energy                   77.72306794
 Virial quotient                       -1.00185455
 !RHF STATE 1.1 Dipole moment           0.00000000     0.57129262    -0.51824757
 Dipole moment /Debye                   0.00000000     1.45198591    -1.31716767

 Orbital energies:

         1.1          2.1          3.1          4.1          5.1          6.1          7.1          8.1          9.1
    -20.655831   -15.712375    -1.539141    -0.993272    -0.750584    -0.669498    -0.426231     0.029233     0.092138

         1.2          2.2          3.2
     -0.601291     0.067679     0.130471

 HOMO      7.1    -0.426231 =     -11.5983eV
 LUMO      8.1     0.029233 =       0.7955eV
 LUMO-HOMO         0.455464 =      12.3938eV


 **********************************************************************************************************************************
 DATASETS  * FILE   NREC   LENGTH (MB)   RECORD NAMES
              1      19      111.05       500      610      700      900      950      970     1000      129      960     1100   
                                          VAR    BASINP    GEOM    SYMINP    ZMAT    AOBASIS   BASIS     P2S    ABASIS      S 
                                         1400     1410     1200     1210     1080     1600     1650     1300     1700   
                                           T        V       H0       H01     AOSYM     SMH    MOLCAS    ERIS     OPER   

              2       4        2.94       700     1000      520     2100   
                                         GEOM     BASIS   MCVARS     RHF  

 PROGRAMS   *        TOTAL        HF       INT
 CPU TIMES  *         2.66      1.08      1.50
 REAL TIME  *         3.75 SEC
 DISK USED  *       327.55 MB      
 **********************************************************************************************************************************


 PROGRAM * CCSD (Closed-shell coupled cluster)     Authors: C. Hampel, H.-J. Werner, 1991, M. Deegan, P.J. Knowles, 1992


 Convergence thresholds:  THRVAR = 1.00D-08  THRDEN = 1.00D-12

 CCSD(T)     terms to be evaluated (factor= 1.000)


 Number of core orbitals:           2 (   2   0 )
 Number of closed-shell orbitals:   6 (   5   1 )
 Number of external orbitals:     107 (  69  38 )

 Molecular orbitals read from record     2100.2  Type=RHF/CANONICAL (state 1.1)

 Number of N-1 electron functions:               6
 Number of N-2 electron functions:              21
 Number of singly external CSFs:               383
 Number of doubly external CSFs:            107206
 Total number of CSFs:                      107590

 Length of J-op  integral file:               0.00 MB
 Length of K-op  integral file:               0.54 MB
 Length of 3-ext integral record:             0.00 MB

 Memory could be reduced to 5.94 Mwords without degradation in triples

 Integral transformation finished. Total CPU:   0.19 sec, npass=  1  Memory used:   1.65 MW

 Reference energy:                   -129.84072905

 MP2 singlet pair energy:              -0.27831230
 MP2 triplet pair energy:              -0.16444084
 MP2 correlation energy:               -0.44275314
 MP2 total energy:                   -130.28348218

 SCS-MP2 correlation energy:           -0.43629350   (PS=  1.200000  PT=  0.333333)
 SCS-MP2 total energy:               -130.27702255

 ITER.      SQ.NORM     CORR.ENERGY   TOTAL ENERGY   ENERGY CHANGE        DEN1      VAR(S)    VAR(P)  DIIS     TIME  TIME/IT
   1      1.11981006    -0.44727102  -130.28800006    -0.00451788     0.01113100  0.30D-02  0.30D-02  1  1     0.38     0.21
   2      1.13069059    -0.44754339  -130.28827244    -0.00027238    -0.01219861  0.95D-04  0.50D-03  2  2     0.57     0.21
   3      1.13698099    -0.44792908  -130.28865812    -0.00038568    -0.00293315  0.52D-04  0.49D-04  3  3     0.76     0.22
   4      1.13975507    -0.44793901  -130.28866806    -0.00000994    -0.00094497  0.40D-05  0.90D-05  4  4     0.95     0.22
   5      1.14076037    -0.44796614  -130.28869519    -0.00002713    -0.00021299  0.11D-05  0.17D-05  5  5     1.16     0.22
   6      1.14109483    -0.44795046  -130.28867950     0.00001568    -0.00004022  0.99D-07  0.41D-06  6  6     1.36     0.22
   7      1.14117217    -0.44795139  -130.28868044    -0.00000093    -0.00000228  0.20D-07  0.92D-07  6  1     1.55     0.22
   8      1.14119423    -0.44795222  -130.28868127    -0.00000083     0.00000138  0.39D-08  0.16D-07  6  2     1.74     0.22
   9      1.14119967    -0.44795179  -130.28868084     0.00000043     0.00000047  0.27D-08  0.17D-08  6  4     1.94     0.22
  10      1.14120186    -0.44795226  -130.28868131    -0.00000047    -0.00000069  0.44D-09  0.20D-09  6  3     2.14     0.22
  11      1.14120131    -0.44795229  -130.28868134    -0.00000003    -0.00000005  0.15D-09  0.32D-10  6  5     2.33     0.22
  12      1.14120025    -0.44795244  -130.28868148    -0.00000014     0.00000033  0.18D-10  0.10D-10  6  6     2.53     0.22
  13      1.14119942    -0.44795247  -130.28868152    -0.00000004     0.00000021  0.63D-11  0.21D-11  6  1     2.73     0.22
  14      1.14119890    -0.44795250  -130.28868154    -0.00000003     0.00000013  0.10D-11  0.66D-12  6  2     2.95     0.22
  15      1.14119868    -0.44795251  -130.28868155    -0.00000001     0.00000003  0.27D-12  0.21D-12  6  4     3.15     0.22
  16      1.14119856    -0.44795251  -130.28868155    -0.00000000     0.00000002  0.37D-13  0.26D-13  6  5     3.35     0.22
  17      1.14119852    -0.44795251  -130.28868156    -0.00000000     0.00000000  0.69D-15  0.19D-14  6  3     3.56     0.22
  18      1.14119852    -0.44795251  -130.28868156     0.00000000    -0.00000000  0.25D-15  0.26D-15  6  6     3.77     0.22
  19      1.14119852    -0.44795251  -130.28868156     0.00000000    -0.00000000  0.77D-16  0.39D-16  6  1     3.96     0.22
  20      1.14119852    -0.44795251  -130.28868156     0.00000000    -0.00000000  0.21D-16  0.72D-17  6  2     4.15     0.22
  21      1.14119852    -0.44795251  -130.28868156     0.00000000    -0.00000000  0.34D-17  0.20D-17  6  5     4.35     0.22
  22      1.14119852    -0.44795251  -130.28868156    -0.00000000     0.00000000  0.39D-18  0.22D-18  6  4     4.55     0.22
  23      1.14119852    -0.44795251  -130.28868156     0.00000000     0.00000000  0.14D-18  0.47D-19  6  3     4.76     0.22
  24      1.14119852    -0.44795251  -130.28868156     0.00000000     0.00000000  0.27D-19  0.91D-20  6  6     4.95     0.22
  25      1.14119852    -0.44795251  -130.28868156     0.00000000    -0.00000000  0.34D-20  0.12D-20  6  1     5.17     0.22
  26      1.14119852    -0.44795251  -130.28868156     0.00000000    -0.00000000  0.84D-21  0.23D-21  6  2     5.35     0.22
  27      1.14119852    -0.44795251  -130.28868156    -0.00000000     0.00000000  0.17D-21  0.60D-22  6  5     5.53     0.22

 Norm of t1 vector:      0.07705920      S-energy:     0.00000000      T1 diagnostic:  0.01572964
                                                                       D1 diagnostic:  0.04076953

 Doubles amplitudes (print threshold =  0.500E-01):

         I         J         SYM. A    SYM. B    A         B      T(IJ, AB)

         6         6         2         2         1         1     -0.10404746


 Total CPU time for triples:      1.60 sec


 RESULTS
 =======

  Reference energy                   -129.840729046183
  CCSD singlet pair energy             -0.306886102200
  CCSD triplet pair energy             -0.141066407391
  CCSD correlation energy              -0.447952509589

  Triples (T) contribution             -0.020596016690
  Total correlation energy             -0.468548526279

  CCSD total energy                  -130.288681555772
  CCSD[T] energy                     -130.310305275050
  CCSD-T energy                      -130.308882502885
 !CCSD(T) total energy               -130.309277572462

 Timing summary (sec):

 STEP                 CPU(USER)    SYS     CPU(TOT)    WALL
 Transformation          0.20      0.03      0.23      0.23
 CCSD iterations         5.33      0.65      5.98      5.99
 Triples                 1.60      0.02      1.62      1.62

 Program statistics:

 Available memory in ccsd:               994999756
 Min. memory needed in ccsd:                389120
 Max. memory used in ccsd:                  473124
 Max. memory used in cckext:                599488 (27 integral passes)



 **********************************************************************************************************************************
 DATASETS  * FILE   NREC   LENGTH (MB)   RECORD NAMES
              1      20      128.20       500      610      700      900      950      970     1000      129      960     1100   
                                          VAR    BASINP    GEOM    SYMINP    ZMAT    AOBASIS   BASIS     P2S    ABASIS      S 
                                         1400     1410     1200     1210     1080     1600     1650     1300     1700     1380   
                                           T        V       H0       H01     AOSYM     SMH    MOLCAS    ERIS     OPER     JKOP   

              2       4        2.94       700     1000      520     2100   
                                         GEOM     BASIS   MCVARS     RHF  

 PROGRAMS   *        TOTAL   CCSD(T)        HF       INT
 CPU TIMES  *         9.81      7.15      1.08      1.50
 REAL TIME  *        11.62 SEC
 DISK USED  *       327.55 MB      
 **********************************************************************************************************************************

 CCSD(T)/aug-cc-pVTZ energy=   -130.309277572462

        CCSD(T)         HF-SCF  
   -130.30927757   -129.84072905
 **********************************************************************************************************************************
 Molpro calculation terminated
 Variable memory released
