
 Primary working directories    : /tmp/r2666/234905.maple
 Secondary working directories  : /tmp/r2666/234905.maple
 Wavefunction directory         : /ddn/home4/r2666/wfu/
 Main file repository           : /tmp/r2666/234905.maple/

 SHA1      : d5ffa45e93fdbca01ffc919aa182cfdae0147319
 NAME      : 2015.1.35
 ARCHNAME  : linux/x86_64
 FC        : /opt/intel/composer_xe_2015.1.133/bin/intel64/ifort
 BLASLIB   : -Wl,-_start-group /opt/intel/mkl/lib/intel64/libmkl_intel_ilp64.a /opt/intel/mkl/lib/intel64/libmkl_intel_thread.a /opt/intel/mkl/lib/intel64/libmkl_core.a -Wl,-_end-group
 id        : olemiss

 Nodes     nprocs
 cn034        1

 Using customized tuning parameters: mindgm=1; mindgv=20; mindgc=4; mindgr=1; noblas=0; minvec=7
 default implementation of scratch files=df  

 ***,hno CCSD(T)/TZ-F12 QFF
 memory, 995, m;
 gthresh,energy=1.d-12,zero=1.d-22,oneint=1.d-22,twoint=1.d-22;
 gthresh,optgrad=1.d-8,optstep=1.d-8;
 nocompress;
 geomtyp=xyz
 bohr
 geometry={
 3
         19        19
 N        0.0000000000       -0.1522406718       -1.1594244221
 H        0.0000000000        1.6598853463       -1.9300000417
 O        0.0000000000        0.0341231154        1.1388348728
 }
 
 basis=avtz
   {hf,maxit=500;accu,20;}
 {ccsd(t),nocheck,maxit=250;orbital,IGNORE_ERROR;}

 Variables initialized (889), CPU time= 0.00 sec
 Commands  initialized (702), CPU time= 0.01 sec, 572 directives.
 Default parameters read. Elapsed time= 0.05 sec

 Checking input...
 Passed
1


                                         ***  PROGRAM SYSTEM MOLPRO  ***
                                       Copyright, TTI GmbH Stuttgart, 2015
                                    Version 2015.1 linked Jul  9 2018 13:16:40


 **********************************************************************************************************************************
 LABEL *   hno CCSD(T)/TZ-F12 QFF                                                        
  64 bit serial version                                                                  DATE: 08-Feb-20          TIME: 17:56:02  
 **********************************************************************************************************************************

 SHA1:             d5ffa45e93fdbca01ffc919aa182cfdae0147319
 **********************************************************************************************************************************

 THRESHOLDS:

 ZERO    =  1.00D-22  ONEINT  =  1.00D-22  TWOINT  =  1.00D-22  PREFAC  =  1.00D-14  LOCALI  =  1.00D-09  EORDER  =  1.00D-04
 ENERGY  =  1.00D-12  ETEST   =  0.00D+00  EDENS   =  0.00D+00  THRDEDEF=  1.00D-06  GRADIENT=  1.00D-02  STEP    =  1.00D-03
 ORBITAL =  1.00D-05  CIVEC   =  1.00D-05  COEFF   =  1.00D-04  PRINTCI =  5.00D-02  PUNCHCI =  9.90D+01  OPTGRAD =  3.00D-04
 OPTENERG=  1.00D-06  OPTSTEP =  3.00D-04  THRGRAD =  1.00D-10  COMPRESS=  1.00D-11  VARMIN  =  1.00D-07  VARMAX  =  1.00D-03
 THRDOUB =  0.00D+00  THRDIV  =  1.00D-05  THRRED  =  1.00D-07  THRPSP  =  1.00D+00  THRDC   =  1.00D-10  THRCS   =  1.00D-10
 THRNRM  =  1.00D-08  THREQ   =  0.00D+00  THRDE   =  1.00D+00  THRREF  =  1.00D-05  SPARFAC =  1.00D+00  THRDLP  =  1.00D-07
 THRDIA  =  1.00D-10  THRDLS  =  1.00D-07  THRGPS  =  0.00D+00  THRKEX  =  0.00D+00  THRDIS  =  2.00D-01  THRVAR  =  1.00D-10
 THRLOC  =  1.00D-06  THRGAP  =  1.00D-06  THRLOCT = -1.00D+00  THRGAPT = -1.00D+00  THRORB  =  1.00D-06  THRMLTP =  0.00D+00
 THRCPQCI=  1.00D-10  KEXTA   =  0.00D+00  THRCOARS=  0.00D+00  SYMTOL  =  1.00D-06  GRADTOL =  1.00D-06  THROVL  =  1.00D-08
 THRORTH =  1.00D-08  GRID    =  1.00D-06  GRIDMAX =  1.00D-03  DTMAX   =  0.00D+00  THROCCDE=  1.00D-01  THROCCDE=  1.00D-01



 THRESHOLDS:

 ZERO    =  1.00D-22  ONEINT  =  1.00D-22  TWOINT  =  1.00D-22  PREFAC  =  1.00D-14  LOCALI  =  1.00D-09  EORDER  =  1.00D-04
 ENERGY  =  1.00D-12  ETEST   =  0.00D+00  EDENS   =  0.00D+00  THRDEDEF=  1.00D-06  GRADIENT=  1.00D-02  STEP    =  1.00D-03
 ORBITAL =  1.00D-05  CIVEC   =  1.00D-05  COEFF   =  1.00D-04  PRINTCI =  5.00D-02  PUNCHCI =  9.90D+01  OPTGRAD =  1.00D-08
 OPTENERG=  1.00D-06  OPTSTEP =  1.00D-08  THRGRAD =  1.00D-10  COMPRESS=  1.00D-11  VARMIN  =  1.00D-07  VARMAX  =  1.00D-03
 THRDOUB =  0.00D+00  THRDIV  =  1.00D-05  THRRED  =  1.00D-07  THRPSP  =  1.00D+00  THRDC   =  1.00D-10  THRCS   =  1.00D-10
 THRNRM  =  1.00D-08  THREQ   =  0.00D+00  THRDE   =  1.00D+00  THRREF  =  1.00D-05  SPARFAC =  1.00D+00  THRDLP  =  1.00D-07
 THRDIA  =  1.00D-10  THRDLS  =  1.00D-07  THRGPS  =  0.00D+00  THRKEX  =  0.00D+00  THRDIS  =  2.00D-01  THRVAR  =  1.00D-10
 THRLOC  =  1.00D-06  THRGAP  =  1.00D-06  THRLOCT = -1.00D+00  THRGAPT = -1.00D+00  THRORB  =  1.00D-06  THRMLTP =  0.00D+00
 THRCPQCI=  1.00D-10  KEXTA   =  0.00D+00  THRCOARS=  0.00D+00  SYMTOL  =  1.00D-06  GRADTOL =  1.00D-06  THROVL  =  1.00D-08
 THRORTH =  1.00D-08  GRID    =  1.00D-06  GRIDMAX =  1.00D-03  DTMAX   =  0.00D+00  THROCCDE=  1.00D-01  THROCCDE=  1.00D-01



 Input parameters for SORTINT:

 COMPRESS =    0.000000
 C_FINAL  =    1.000000
 DEBUG    =   -1.000000
 C_SORT1  =    0.000000
 C_SEWARD =    0.000000
 THRESH   =    0.000000
 IO       =  molpro                                                          
 SPRI     =    0.000000
 SETTING GEOMTYP        =    XYZ
 ZUNIT=BOHR
 

 Variable memory set to  995000000 words,  buffer space   230000 words

 SETTING BASIS          =    AVTZ


 Recomputing integrals since basis changed


 Using spherical harmonics

 Library entry N      S aug-cc-pVTZ          selected for orbital group  1
 Library entry N      P aug-cc-pVTZ          selected for orbital group  1
 Library entry N      D aug-cc-pVTZ          selected for orbital group  1
 Library entry N      F aug-cc-pVTZ          selected for orbital group  1
 Library entry H      S aug-cc-pVTZ          selected for orbital group  2
 Library entry H      P aug-cc-pVTZ          selected for orbital group  2
 Library entry H      D aug-cc-pVTZ          selected for orbital group  2
 Library entry O      S aug-cc-pVTZ          selected for orbital group  3
 Library entry O      P aug-cc-pVTZ          selected for orbital group  3
 Library entry O      D aug-cc-pVTZ          selected for orbital group  3
 Library entry O      F aug-cc-pVTZ          selected for orbital group  3


 PROGRAM * SEWARD (Integral evaluation for generally contracted gaussian basis sets)     Author: Roland Lindh, 1990

 Geometry written to block  1 of record 700


 Point group  Cs  



 ATOMIC COORDINATES

 NR  ATOM    CHARGE       X              Y              Z

   1  N       7.00    0.000000000   -0.152240672   -1.159424422
   2  H       1.00    0.000000000    1.659885346   -1.930000042
   3  O       8.00    0.000000000    0.034123115    1.138834873

 Bond lengths in Bohr (Angstrom)

 1-2  1.969159082  1-3  2.305802951
     ( 1.042034111)     ( 1.220178374)

 Bond angles

  2-1-3  108.40087407

 NUCLEAR CHARGE:                   16
 NUMBER OF PRIMITIVE AOS:         161
 NUMBER OF SYMMETRY AOS:          141
 NUMBER OF CONTRACTIONS:          115   (  76A'  +  39A"  )
 NUMBER OF CORE ORBITALS:           2   (   2A'  +   0A"  )
 NUMBER OF VALENCE ORBITALS:        9   (   7A'  +   2A"  )


 NUCLEAR REPULSION ENERGY   30.14493540

 Eigenvalues of metric

         1 0.234E-03 0.499E-03 0.182E-02 0.213E-02 0.263E-02 0.376E-02 0.431E-02 0.510E-02
         2 0.408E-02 0.994E-02 0.266E-01 0.370E-01 0.514E-01 0.620E-01 0.830E-01 0.120E+00


 Contracted 2-electron integrals neglected if value below      1.0D-22

       10790064. INTEGRALS WRITTEN OUT IN    2635 BLOCKS ON RECORD 1290 OF FILE 1


 NUMBER OF SORTED TWO-ELECTRON INTEGRALS:   11433631.     BUFFER LENGTH:  32768
 NUMBER OF SEGMENTS:   1  SEGMENT LENGTH:   11433631      RECORD LENGTH: 524288

 Memory used in sort:      11.99 MW

 SORT1 READ    10790064. AND WROTE    10943632. INTEGRALS IN     32 RECORDS. CPU TIME:     0.28 SEC, REAL TIME:     0.36 SEC
 SORT2 READ    10943632. AND WROTE    11433631. INTEGRALS IN      1 RECORDS. CPU TIME:     0.19 SEC, REAL TIME:     0.26 SEC

 FILE SIZES:   FILE 1:   193.0 MBYTE,  FILE 4:   134.3 MBYTE,   TOTAL:    327.2 MBYTE

 OPERATOR DM      FOR CENTER  0  COORDINATES:    0.000000    0.000000    0.000000


 **********************************************************************************************************************************
 DATASETS  * FILE   NREC   LENGTH (MB)   RECORD NAMES
              1      19      111.05       500      610      700      900      950      970     1000      129      960     1100   
                                          VAR    BASINP    GEOM    SYMINP    ZMAT    AOBASIS   BASIS     P2S    ABASIS      S 
                                         1400     1410     1200     1210     1080     1600     1650     1300     1700   
                                           T        V       H0       H01     AOSYM     SMH    MOLCAS    ERIS     OPER   

 PROGRAMS   *        TOTAL       INT
 CPU TIMES  *         1.64      1.56
 REAL TIME  *         2.47 SEC
 DISK USED  *       327.55 MB      
 **********************************************************************************************************************************


 PROGRAM * RHF-SCF (CLOSED SHELL)       Authors: W. Meyer, H.-J. Werner


 NUMBER OF ELECTRONS:       8+    8-
 CONVERGENCE THRESHOLDS:    1.00E-10 (Density)    1.00E-13 (Energy)
 MAX. NUMBER OF ITERATIONS:      500
 INTERPOLATION TYPE:            DIIS
 INTERPOLATION STEPS:              2 (START)      1 (STEP)
 LEVEL SHIFTS:                  0.00 (CLOSED)  0.00 (OPEN) 



 Orbital guess generated from atomic densities. Full valence occupancy:    9   2

 Molecular orbital dump at record        2100.2

 Initial occupancy:   7   1

 ITERATION    DDIFF          GRAD             ENERGY        2-EL.EN.            DIPOLE MOMENTS         DIIS   ORB.
    1      0.000D+00      0.000D+00      -129.78552434    153.500136    0.00000    0.60535   -1.05932    0    start
    2      0.000D+00      0.108D-01      -129.81256537    154.732443    0.00000    0.61862   -0.20819    1    diag
    3      0.121D-01      0.848D-02      -129.83678120    154.874642    0.00000    0.56675   -0.61230    2    diag
    4      0.608D-02      0.130D-02      -129.83759759    154.578096    0.00000    0.57385   -0.55034    3    diag
    5      0.109D-02      0.427D-03      -129.83772626    154.672439    0.00000    0.57932   -0.55290    4    diag
    6      0.456D-03      0.122D-03      -129.83774668    154.656842    0.00000    0.57964   -0.54863    5    diag
    7      0.173D-03      0.614D-04      -129.83775275    154.659189    0.00000    0.58082   -0.54591    6    diag
    8      0.121D-03      0.217D-04      -129.83775347    154.658501    0.00000    0.58084   -0.54482    7    diag
    9      0.482D-04      0.415D-05      -129.83775351    154.658386    0.00000    0.58080   -0.54458    8    diag
   10      0.948D-05      0.921D-06      -129.83775351    154.658367    0.00000    0.58077   -0.54456    9    orth
   11      0.181D-05      0.180D-06      -129.83775351    154.658365    0.00000    0.58076   -0.54456    9    diag
   12      0.337D-06      0.380D-07      -129.83775351    154.658364    0.00000    0.58076   -0.54455    9    diag
   13      0.720D-07      0.990D-08      -129.83775351    154.658364    0.00000    0.58076   -0.54455    9    diag
   14      0.195D-07      0.204D-08      -129.83775351    154.658364    0.00000    0.58076   -0.54455    9    diag
   15      0.372D-08      0.561D-09      -129.83775351    154.658364    0.00000    0.58076   -0.54455    9    diag
   16      0.103D-08      0.148D-09      -129.83775351    154.658364    0.00000    0.58076   -0.54455    9    diag
   17      0.168D-09      0.394D-10      -129.83775351    154.658364    0.00000    0.58076   -0.54455    9    diag
   18      0.463D-10      0.136D-10      -129.83775351    154.658364    0.00000    0.58076   -0.54455    0    orth

 Final occupancy:   7   1

 !RHF STATE 1.1 Energy               -129.837753507199
 Nuclear energy                        30.14493540
 One-electron energy                 -237.31187109
 Two-electron energy                   77.32918219
 Virial quotient                       -1.00240059
 !RHF STATE 1.1 Dipole moment           0.00000000     0.58075743    -0.54455366
 Dipole moment /Debye                   0.00000000     1.47604146    -1.38402669

 Orbital energies:

         1.1          2.1          3.1          4.1          5.1          6.1          7.1          8.1          9.1
    -20.657636   -15.715204    -1.520938    -1.000608    -0.744737    -0.662671    -0.434606     0.029005     0.092107

         1.2          2.2          3.2
     -0.590353     0.061397     0.129702

 HOMO      7.1    -0.434606 =     -11.8262eV
 LUMO      8.1     0.029005 =       0.7893eV
 LUMO-HOMO         0.463611 =      12.6155eV


 **********************************************************************************************************************************
 DATASETS  * FILE   NREC   LENGTH (MB)   RECORD NAMES
              1      19      111.05       500      610      700      900      950      970     1000      129      960     1100   
                                          VAR    BASINP    GEOM    SYMINP    ZMAT    AOBASIS   BASIS     P2S    ABASIS      S 
                                         1400     1410     1200     1210     1080     1600     1650     1300     1700   
                                           T        V       H0       H01     AOSYM     SMH    MOLCAS    ERIS     OPER   

              2       4        2.94       700     1000      520     2100   
                                         GEOM     BASIS   MCVARS     RHF  

 PROGRAMS   *        TOTAL        HF       INT
 CPU TIMES  *         2.67      1.03      1.56
 REAL TIME  *         3.99 SEC
 DISK USED  *       327.55 MB      
 **********************************************************************************************************************************


 PROGRAM * CCSD (Closed-shell coupled cluster)     Authors: C. Hampel, H.-J. Werner, 1991, M. Deegan, P.J. Knowles, 1992


 Convergence thresholds:  THRVAR = 1.00D-08  THRDEN = 1.00D-12

 CCSD(T)     terms to be evaluated (factor= 1.000)


 Number of core orbitals:           2 (   2   0 )
 Number of closed-shell orbitals:   6 (   5   1 )
 Number of external orbitals:     107 (  69  38 )

 Molecular orbitals read from record     2100.2  Type=RHF/CANONICAL (state 1.1)

 Number of N-1 electron functions:               6
 Number of N-2 electron functions:              21
 Number of singly external CSFs:               383
 Number of doubly external CSFs:            107206
 Total number of CSFs:                      107590

 Length of J-op  integral file:               0.00 MB
 Length of K-op  integral file:               0.54 MB
 Length of 3-ext integral record:             0.00 MB

 Memory could be reduced to 5.94 Mwords without degradation in triples

 Integral transformation finished. Total CPU:   0.18 sec, npass=  1  Memory used:   1.65 MW

 Reference energy:                   -129.83775351

 MP2 singlet pair energy:              -0.28050500
 MP2 triplet pair energy:              -0.16591681
 MP2 correlation energy:               -0.44642180
 MP2 total energy:                   -130.28417531

 SCS-MP2 correlation energy:           -0.43984312   (PS=  1.200000  PT=  0.333333)
 SCS-MP2 total energy:               -130.27759663

 ITER.      SQ.NORM     CORR.ENERGY   TOTAL ENERGY   ENERGY CHANGE        DEN1      VAR(S)    VAR(P)  DIIS     TIME  TIME/IT
   1      1.12196674    -0.45007660  -130.28783011    -0.00365480     0.01285469  0.33D-02  0.33D-02  1  1     0.39     0.21
   2      1.13334307    -0.45018075  -130.28793425    -0.00010414    -0.01269917  0.11D-03  0.53D-03  2  2     0.60     0.22
   3      1.14005309    -0.45059650  -130.28835001    -0.00041576    -0.00306583  0.56D-04  0.54D-04  3  3     0.79     0.22
   4      1.14308501    -0.45061008  -130.28836358    -0.00001357    -0.00101291  0.45D-05  0.97D-05  4  4     0.99     0.22
   5      1.14420604    -0.45064077  -130.28839428    -0.00003069    -0.00023615  0.11D-05  0.17D-05  5  5     1.18     0.22
   6      1.14456648    -0.45062225  -130.28837576     0.00001852    -0.00004442  0.97D-07  0.41D-06  6  6     1.38     0.22
   7      1.14464063    -0.45062386  -130.28837737    -0.00000161    -0.00000126  0.17D-07  0.98D-07  6  1     1.59     0.22
   8      1.14466189    -0.45062446  -130.28837797    -0.00000059     0.00000173  0.36D-08  0.18D-07  6  2     1.79     0.22
   9      1.14467065    -0.45062386  -130.28837736     0.00000060    -0.00000093  0.27D-08  0.19D-08  6  3     2.00     0.22
  10      1.14467082    -0.45062439  -130.28837790    -0.00000054    -0.00000001  0.55D-09  0.28D-09  6  4     2.20     0.22
  11      1.14466916    -0.45062452  -130.28837802    -0.00000012     0.00000053  0.16D-09  0.35D-10  6  5     2.41     0.23
  12      1.14466780    -0.45062471  -130.28837822    -0.00000020     0.00000044  0.16D-10  0.98D-11  6  6     2.61     0.23
  13      1.14466704    -0.45062474  -130.28837824    -0.00000002     0.00000018  0.57D-11  0.19D-11  6  1     2.81     0.23
  14      1.14466657    -0.45062476  -130.28837827    -0.00000002     0.00000010  0.84D-12  0.62D-12  6  2     3.00     0.23
  15      1.14466638    -0.45062477  -130.28837827    -0.00000001     0.00000002  0.24D-12  0.19D-12  6  3     3.19     0.23
  16      1.14466629    -0.45062477  -130.28837827    -0.00000000     0.00000001  0.40D-13  0.66D-13  6  4     3.40     0.23
  17      1.14466623    -0.45062477  -130.28837828    -0.00000000     0.00000001  0.29D-14  0.15D-13  6  5     3.59     0.23
  18      1.14466622    -0.45062477  -130.28837828     0.00000000     0.00000000  0.12D-14  0.34D-14  6  6     3.79     0.23
  19      1.14466622    -0.45062477  -130.28837828     0.00000000    -0.00000000  0.16D-15  0.24D-15  6  5     3.99     0.23
  20      1.14466622    -0.45062477  -130.28837828    -0.00000000    -0.00000000  0.63D-16  0.40D-16  6  1     4.19     0.23
  21      1.14466622    -0.45062477  -130.28837828     0.00000000     0.00000000  0.14D-16  0.89D-17  6  2     4.37     0.23
  22      1.14466622    -0.45062477  -130.28837828    -0.00000000     0.00000000  0.39D-17  0.10D-17  6  3     4.58     0.23
  23      1.14466622    -0.45062477  -130.28837828     0.00000000     0.00000000  0.97D-18  0.32D-18  6  4     4.79     0.23
  24      1.14466622    -0.45062477  -130.28837828    -0.00000000     0.00000000  0.27D-18  0.62D-19  6  6     5.01     0.23
  25      1.14466622    -0.45062477  -130.28837828     0.00000000    -0.00000000  0.44D-19  0.29D-19  6  5     5.23     0.23
  26      1.14466622    -0.45062477  -130.28837828     0.00000000    -0.00000000  0.63D-20  0.11D-19  6  1     5.44     0.23
  27      1.14466622    -0.45062477  -130.28837828    -0.00000000    -0.00000000  0.29D-21  0.15D-20  6  3     5.65     0.23
  28      1.14466622    -0.45062477  -130.28837828     0.00000000     0.00000000  0.75D-22  0.19D-21  6  2     5.85     0.23

 Norm of t1 vector:      0.08013319      S-energy:     0.00000000      T1 diagnostic:  0.01635712
                                                                       D1 diagnostic:  0.04375801

 Doubles amplitudes (print threshold =  0.500E-01):

         I         J         SYM. A    SYM. B    A         B      T(IJ, AB)

         6         6         2         2         1         1     -0.11436691


 Total CPU time for triples:      1.65 sec


 RESULTS
 =======

  Reference energy                   -129.837753507199
  CCSD singlet pair energy             -0.309195289245
  CCSD triplet pair energy             -0.141429481196
  CCSD correlation energy              -0.450624770438

  Triples (T) contribution             -0.021235131728
  Total correlation energy             -0.471859902166

  CCSD total energy                  -130.288378277637
  CCSD[T] energy                     -130.310725794230
  CCSD-T energy                      -130.309199939480
 !CCSD(T) total energy               -130.309613409365

 Timing summary (sec):

 STEP                 CPU(USER)    SYS     CPU(TOT)    WALL
 Transformation          0.19      0.05      0.24      0.28
 CCSD iterations         5.66      0.69      6.35      6.35
 Triples                 1.65      0.07      1.72      1.72

 Program statistics:

 Available memory in ccsd:               994999756
 Min. memory needed in ccsd:                389120
 Max. memory used in ccsd:                  473124
 Max. memory used in cckext:                599488 (28 integral passes)



 **********************************************************************************************************************************
 DATASETS  * FILE   NREC   LENGTH (MB)   RECORD NAMES
              1      20      128.20       500      610      700      900      950      970     1000      129      960     1100   
                                          VAR    BASINP    GEOM    SYMINP    ZMAT    AOBASIS   BASIS     P2S    ABASIS      S 
                                         1400     1410     1200     1210     1080     1600     1650     1300     1700     1380   
                                           T        V       H0       H01     AOSYM     SMH    MOLCAS    ERIS     OPER     JKOP   

              2       4        2.94       700     1000      520     2100   
                                         GEOM     BASIS   MCVARS     RHF  

 PROGRAMS   *        TOTAL   CCSD(T)        HF       INT
 CPU TIMES  *        10.19      7.51      1.03      1.56
 REAL TIME  *        12.38 SEC
 DISK USED  *       327.55 MB      
 **********************************************************************************************************************************

 CCSD(T)/aug-cc-pVTZ energy=   -130.309613409365

        CCSD(T)         HF-SCF  
   -130.30961341   -129.83775351
 **********************************************************************************************************************************
 Molpro calculation terminated
 Variable memory released
