
 Primary working directories    : /tmp/r2666/234894.maple
 Secondary working directories  : /tmp/r2666/234894.maple
 Wavefunction directory         : /ddn/home4/r2666/wfu/
 Main file repository           : /tmp/r2666/234894.maple/

 SHA1      : d5ffa45e93fdbca01ffc919aa182cfdae0147319
 NAME      : 2015.1.35
 ARCHNAME  : linux/x86_64
 FC        : /opt/intel/composer_xe_2015.1.133/bin/intel64/ifort
 BLASLIB   : -Wl,-_start-group /opt/intel/mkl/lib/intel64/libmkl_intel_ilp64.a /opt/intel/mkl/lib/intel64/libmkl_intel_thread.a /opt/intel/mkl/lib/intel64/libmkl_core.a -Wl,-_end-group
 id        : olemiss

 Nodes     nprocs
 cn035        1

 Using customized tuning parameters: mindgm=1; mindgv=20; mindgc=4; mindgr=1; noblas=0; minvec=7
 default implementation of scratch files=df  

 ***,hno CCSD(T)/TZ-F12 QFF
 memory, 995, m;
 gthresh,energy=1.d-12,zero=1.d-22,oneint=1.d-22,twoint=1.d-22;
 gthresh,optgrad=1.d-8,optstep=1.d-8;
 nocompress;
 geomtyp=xyz
 bohr
 geometry={
 3
          8         8
 N        0.0000000000       -0.1529641933       -1.1465440676
 H        0.0000000000        1.6570373235       -1.9220967739
 O        0.0000000000        0.0376946598        1.1180512504
 }
 
 basis=avtz
   {hf,maxit=500;accu,20;}
 {ccsd(t),nocheck,maxit=250;orbital,IGNORE_ERROR;}

 Variables initialized (889), CPU time= 0.00 sec
 Commands  initialized (702), CPU time= 0.01 sec, 572 directives.
 Default parameters read. Elapsed time= 0.05 sec

 Checking input...
 Passed
1


                                         ***  PROGRAM SYSTEM MOLPRO  ***
                                       Copyright, TTI GmbH Stuttgart, 2015
                                    Version 2015.1 linked Jul  9 2018 13:16:40


 **********************************************************************************************************************************
 LABEL *   hno CCSD(T)/TZ-F12 QFF                                                        
  64 bit serial version                                                                  DATE: 08-Feb-20          TIME: 17:55:48  
 **********************************************************************************************************************************

 SHA1:             d5ffa45e93fdbca01ffc919aa182cfdae0147319
 **********************************************************************************************************************************

 THRESHOLDS:

 ZERO    =  1.00D-22  ONEINT  =  1.00D-22  TWOINT  =  1.00D-22  PREFAC  =  1.00D-14  LOCALI  =  1.00D-09  EORDER  =  1.00D-04
 ENERGY  =  1.00D-12  ETEST   =  0.00D+00  EDENS   =  0.00D+00  THRDEDEF=  1.00D-06  GRADIENT=  1.00D-02  STEP    =  1.00D-03
 ORBITAL =  1.00D-05  CIVEC   =  1.00D-05  COEFF   =  1.00D-04  PRINTCI =  5.00D-02  PUNCHCI =  9.90D+01  OPTGRAD =  3.00D-04
 OPTENERG=  1.00D-06  OPTSTEP =  3.00D-04  THRGRAD =  1.00D-10  COMPRESS=  1.00D-11  VARMIN  =  1.00D-07  VARMAX  =  1.00D-03
 THRDOUB =  0.00D+00  THRDIV  =  1.00D-05  THRRED  =  1.00D-07  THRPSP  =  1.00D+00  THRDC   =  1.00D-10  THRCS   =  1.00D-10
 THRNRM  =  1.00D-08  THREQ   =  0.00D+00  THRDE   =  1.00D+00  THRREF  =  1.00D-05  SPARFAC =  1.00D+00  THRDLP  =  1.00D-07
 THRDIA  =  1.00D-10  THRDLS  =  1.00D-07  THRGPS  =  0.00D+00  THRKEX  =  0.00D+00  THRDIS  =  2.00D-01  THRVAR  =  1.00D-10
 THRLOC  =  1.00D-06  THRGAP  =  1.00D-06  THRLOCT = -1.00D+00  THRGAPT = -1.00D+00  THRORB  =  1.00D-06  THRMLTP =  0.00D+00
 THRCPQCI=  1.00D-10  KEXTA   =  0.00D+00  THRCOARS=  0.00D+00  SYMTOL  =  1.00D-06  GRADTOL =  1.00D-06  THROVL  =  1.00D-08
 THRORTH =  1.00D-08  GRID    =  1.00D-06  GRIDMAX =  1.00D-03  DTMAX   =  0.00D+00  THROCCDE=  1.00D-01  THROCCDE=  1.00D-01



 THRESHOLDS:

 ZERO    =  1.00D-22  ONEINT  =  1.00D-22  TWOINT  =  1.00D-22  PREFAC  =  1.00D-14  LOCALI  =  1.00D-09  EORDER  =  1.00D-04
 ENERGY  =  1.00D-12  ETEST   =  0.00D+00  EDENS   =  0.00D+00  THRDEDEF=  1.00D-06  GRADIENT=  1.00D-02  STEP    =  1.00D-03
 ORBITAL =  1.00D-05  CIVEC   =  1.00D-05  COEFF   =  1.00D-04  PRINTCI =  5.00D-02  PUNCHCI =  9.90D+01  OPTGRAD =  1.00D-08
 OPTENERG=  1.00D-06  OPTSTEP =  1.00D-08  THRGRAD =  1.00D-10  COMPRESS=  1.00D-11  VARMIN  =  1.00D-07  VARMAX  =  1.00D-03
 THRDOUB =  0.00D+00  THRDIV  =  1.00D-05  THRRED  =  1.00D-07  THRPSP  =  1.00D+00  THRDC   =  1.00D-10  THRCS   =  1.00D-10
 THRNRM  =  1.00D-08  THREQ   =  0.00D+00  THRDE   =  1.00D+00  THRREF  =  1.00D-05  SPARFAC =  1.00D+00  THRDLP  =  1.00D-07
 THRDIA  =  1.00D-10  THRDLS  =  1.00D-07  THRGPS  =  0.00D+00  THRKEX  =  0.00D+00  THRDIS  =  2.00D-01  THRVAR  =  1.00D-10
 THRLOC  =  1.00D-06  THRGAP  =  1.00D-06  THRLOCT = -1.00D+00  THRGAPT = -1.00D+00  THRORB  =  1.00D-06  THRMLTP =  0.00D+00
 THRCPQCI=  1.00D-10  KEXTA   =  0.00D+00  THRCOARS=  0.00D+00  SYMTOL  =  1.00D-06  GRADTOL =  1.00D-06  THROVL  =  1.00D-08
 THRORTH =  1.00D-08  GRID    =  1.00D-06  GRIDMAX =  1.00D-03  DTMAX   =  0.00D+00  THROCCDE=  1.00D-01  THROCCDE=  1.00D-01



 Input parameters for SORTINT:

 COMPRESS =    0.000000
 C_FINAL  =    1.000000
 DEBUG    =   -1.000000
 C_SORT1  =    0.000000
 C_SEWARD =    0.000000
 THRESH   =    0.000000
 IO       =  molpro                                                          
 SPRI     =    0.000000
 SETTING GEOMTYP        =    XYZ
 ZUNIT=BOHR
 

 Variable memory set to  995000000 words,  buffer space   230000 words

 SETTING BASIS          =    AVTZ


 Recomputing integrals since basis changed


 Using spherical harmonics

 Library entry N      S aug-cc-pVTZ          selected for orbital group  1
 Library entry N      P aug-cc-pVTZ          selected for orbital group  1
 Library entry N      D aug-cc-pVTZ          selected for orbital group  1
 Library entry N      F aug-cc-pVTZ          selected for orbital group  1
 Library entry H      S aug-cc-pVTZ          selected for orbital group  2
 Library entry H      P aug-cc-pVTZ          selected for orbital group  2
 Library entry H      D aug-cc-pVTZ          selected for orbital group  2
 Library entry O      S aug-cc-pVTZ          selected for orbital group  3
 Library entry O      P aug-cc-pVTZ          selected for orbital group  3
 Library entry O      D aug-cc-pVTZ          selected for orbital group  3
 Library entry O      F aug-cc-pVTZ          selected for orbital group  3


 PROGRAM * SEWARD (Integral evaluation for generally contracted gaussian basis sets)     Author: Roland Lindh, 1990

 Geometry written to block  1 of record 700


 Point group  Cs  



 ATOMIC COORDINATES

 NR  ATOM    CHARGE       X              Y              Z

   1  N       7.00    0.000000000   -0.152964193   -1.146544068
   2  H       1.00    0.000000000    1.657037323   -1.922096774
   3  O       8.00    0.000000000    0.037694660    1.118051250

 Bond lengths in Bohr (Angstrom)

 1-2  1.969159082  1-3  2.272607039
     ( 1.042034111)     ( 1.202611854)

 Bond angles

  2-1-3  108.38180410

 NUCLEAR CHARGE:                   16
 NUMBER OF PRIMITIVE AOS:         161
 NUMBER OF SYMMETRY AOS:          141
 NUMBER OF CONTRACTIONS:          115   (  76A'  +  39A"  )
 NUMBER OF CORE ORBITALS:           2   (   2A'  +   0A"  )
 NUMBER OF VALENCE ORBITALS:        9   (   7A'  +   2A"  )


 NUCLEAR REPULSION ENERGY   30.51864505

 Eigenvalues of metric

         1 0.229E-03 0.491E-03 0.178E-02 0.208E-02 0.248E-02 0.349E-02 0.425E-02 0.501E-02
         2 0.388E-02 0.985E-02 0.258E-01 0.366E-01 0.509E-01 0.615E-01 0.801E-01 0.118E+00


 Contracted 2-electron integrals neglected if value below      1.0D-22

       10790064. INTEGRALS WRITTEN OUT IN    2635 BLOCKS ON RECORD 1290 OF FILE 1


 NUMBER OF SORTED TWO-ELECTRON INTEGRALS:   11433631.     BUFFER LENGTH:  32768
 NUMBER OF SEGMENTS:   1  SEGMENT LENGTH:   11433631      RECORD LENGTH: 524288

 Memory used in sort:      11.99 MW

 SORT1 READ    10790064. AND WROTE    10943632. INTEGRALS IN     32 RECORDS. CPU TIME:     0.27 SEC, REAL TIME:     0.36 SEC
 SORT2 READ    10943632. AND WROTE    11433631. INTEGRALS IN      1 RECORDS. CPU TIME:     0.19 SEC, REAL TIME:     0.27 SEC

 FILE SIZES:   FILE 1:   193.0 MBYTE,  FILE 4:   134.3 MBYTE,   TOTAL:    327.2 MBYTE

 OPERATOR DM      FOR CENTER  0  COORDINATES:    0.000000    0.000000    0.000000


 **********************************************************************************************************************************
 DATASETS  * FILE   NREC   LENGTH (MB)   RECORD NAMES
              1      19      111.05       500      610      700      900      950      970     1000      129      960     1100   
                                          VAR    BASINP    GEOM    SYMINP    ZMAT    AOBASIS   BASIS     P2S    ABASIS      S 
                                         1400     1410     1200     1210     1080     1600     1650     1300     1700   
                                           T        V       H0       H01     AOSYM     SMH    MOLCAS    ERIS     OPER   

 PROGRAMS   *        TOTAL       INT
 CPU TIMES  *         1.57      1.48
 REAL TIME  *         2.38 SEC
 DISK USED  *       327.55 MB      
 **********************************************************************************************************************************


 PROGRAM * RHF-SCF (CLOSED SHELL)       Authors: W. Meyer, H.-J. Werner


 NUMBER OF ELECTRONS:       8+    8-
 CONVERGENCE THRESHOLDS:    1.00E-10 (Density)    1.00E-13 (Energy)
 MAX. NUMBER OF ITERATIONS:      500
 INTERPOLATION TYPE:            DIIS
 INTERPOLATION STEPS:              2 (START)      1 (STEP)
 LEVEL SHIFTS:                  0.00 (CLOSED)  0.00 (OPEN) 



 Orbital guess generated from atomic densities. Full valence occupancy:    9   2

 Molecular orbital dump at record        2100.2

 Initial occupancy:   7   1

 ITERATION    DDIFF          GRAD             ENERGY        2-EL.EN.            DIPOLE MOMENTS         DIIS   ORB.
    1      0.000D+00      0.000D+00      -129.79058359    154.170363    0.00000    0.59761   -1.00296    0    start
    2      0.000D+00      0.106D-01      -129.81819846    155.438821    0.00000    0.60827   -0.21716    1    diag
    3      0.117D-01      0.799D-02      -129.83949737    155.540686    0.00000    0.55895   -0.58648    2    diag
    4      0.579D-02      0.127D-02      -129.84027576    155.257874    0.00000    0.56651   -0.52739    3    diag
    5      0.107D-02      0.416D-03      -129.84039746    155.350599    0.00000    0.57196   -0.53025    4    diag
    6      0.443D-03      0.119D-03      -129.84041669    155.335245    0.00000    0.57237   -0.52629    5    diag
    7      0.168D-03      0.589D-04      -129.84042216    155.337754    0.00000    0.57360   -0.52381    6    diag
    8      0.116D-03      0.196D-04      -129.84042272    155.337127    0.00000    0.57362   -0.52286    7    diag
    9      0.422D-04      0.369D-05      -129.84042275    155.337027    0.00000    0.57359   -0.52266    8    diag
   10      0.801D-05      0.851D-06      -129.84042275    155.337010    0.00000    0.57356   -0.52263    9    orth
   11      0.167D-05      0.170D-06      -129.84042275    155.337007    0.00000    0.57355   -0.52263    9    diag
   12      0.324D-06      0.346D-07      -129.84042275    155.337007    0.00000    0.57355   -0.52263    9    diag
   13      0.696D-07      0.858D-08      -129.84042275    155.337007    0.00000    0.57355   -0.52263    9    diag
   14      0.178D-07      0.178D-08      -129.84042275    155.337006    0.00000    0.57355   -0.52263    9    diag
   15      0.357D-08      0.500D-09      -129.84042275    155.337007    0.00000    0.57355   -0.52263    9    diag
   16      0.974D-09      0.139D-09      -129.84042275    155.337006    0.00000    0.57355   -0.52263    9    diag
   17      0.179D-09      0.393D-10      -129.84042275    155.337006    0.00000    0.57355   -0.52263    9    diag
   18      0.497D-10      0.139D-10      -129.84042275    155.337006    0.00000    0.57355   -0.52263    9    diag
   19      0.251D-10      0.313D-11      -129.84042275    155.337006    0.00000    0.57355   -0.52263    9    fixocc
   20      0.601D-11      0.541D-12      -129.84042275    155.337006    0.00000    0.57355   -0.52263    0    orth

 Final occupancy:   7   1

 !RHF STATE 1.1 Energy               -129.840422748411
 Nuclear energy                        30.51864505
 One-electron energy                 -238.02757104
 Two-electron energy                   77.66850324
 Virial quotient                       -1.00187495
 !RHF STATE 1.1 Dipole moment           0.00000000     0.57354717    -0.52262781
 Dipole moment /Debye                   0.00000000     1.45771603    -1.32830040

 Orbital energies:

         1.1          2.1          3.1          4.1          5.1          6.1          7.1          8.1          9.1
    -20.655893   -15.712145    -1.535200    -0.996476    -0.750023    -0.667676    -0.429258     0.029247     0.092181

         1.2          2.2          3.2
     -0.598611     0.066317     0.130149

 HOMO      7.1    -0.429258 =     -11.6807eV
 LUMO      8.1     0.029247 =       0.7958eV
 LUMO-HOMO         0.458505 =      12.4766eV


 **********************************************************************************************************************************
 DATASETS  * FILE   NREC   LENGTH (MB)   RECORD NAMES
              1      19      111.05       500      610      700      900      950      970     1000      129      960     1100   
                                          VAR    BASINP    GEOM    SYMINP    ZMAT    AOBASIS   BASIS     P2S    ABASIS      S 
                                         1400     1410     1200     1210     1080     1600     1650     1300     1700   
                                           T        V       H0       H01     AOSYM     SMH    MOLCAS    ERIS     OPER   

              2       4        2.94       700     1000      520     2100   
                                         GEOM     BASIS   MCVARS     RHF  

 PROGRAMS   *        TOTAL        HF       INT
 CPU TIMES  *         2.70      1.13      1.48
 REAL TIME  *         3.94 SEC
 DISK USED  *       327.55 MB      
 **********************************************************************************************************************************


 PROGRAM * CCSD (Closed-shell coupled cluster)     Authors: C. Hampel, H.-J. Werner, 1991, M. Deegan, P.J. Knowles, 1992


 Convergence thresholds:  THRVAR = 1.00D-08  THRDEN = 1.00D-12

 CCSD(T)     terms to be evaluated (factor= 1.000)


 Number of core orbitals:           2 (   2   0 )
 Number of closed-shell orbitals:   6 (   5   1 )
 Number of external orbitals:     107 (  69  38 )

 Molecular orbitals read from record     2100.2  Type=RHF/CANONICAL (state 1.1)

 Number of N-1 electron functions:               6
 Number of N-2 electron functions:              21
 Number of singly external CSFs:               383
 Number of doubly external CSFs:            107206
 Total number of CSFs:                      107590

 Length of J-op  integral file:               0.00 MB
 Length of K-op  integral file:               0.54 MB
 Length of 3-ext integral record:             0.00 MB

 Memory could be reduced to 5.94 Mwords without degradation in triples

 Integral transformation finished. Total CPU:   0.18 sec, npass=  1  Memory used:   1.65 MW

 Reference energy:                   -129.84042275

 MP2 singlet pair energy:              -0.27864445
 MP2 triplet pair energy:              -0.16467227
 MP2 correlation energy:               -0.44331672
 MP2 total energy:                   -130.28373947

 SCS-MP2 correlation energy:           -0.43683609   (PS=  1.200000  PT=  0.333333)
 SCS-MP2 total energy:               -130.27725883

 ITER.      SQ.NORM     CORR.ENERGY   TOTAL ENERGY   ENERGY CHANGE        DEN1      VAR(S)    VAR(P)  DIIS     TIME  TIME/IT
   1      1.12003111    -0.44765562  -130.28807837    -0.00433891     0.01142429  0.30D-02  0.31D-02  1  1     0.38     0.21
   2      1.13096365    -0.44789800  -130.28832075    -0.00024238    -0.01226456  0.97D-04  0.50D-03  2  2     0.59     0.22
   3      1.13728928    -0.44828341  -130.28870616    -0.00038541    -0.00294569  0.51D-04  0.50D-04  3  3     0.79     0.22
   4      1.14009779    -0.44829586  -130.28871861    -0.00001245    -0.00095341  0.39D-05  0.89D-05  4  4     0.97     0.22
   5      1.14110426    -0.44832310  -130.28874585    -0.00002724    -0.00021297  0.10D-05  0.16D-05  5  5     1.16     0.22
   6      1.14143604    -0.44830695  -130.28872970     0.00001615    -0.00004040  0.90D-07  0.40D-06  6  6     1.38     0.22
   7      1.14150955    -0.44830823  -130.28873098    -0.00000128    -0.00000182  0.18D-07  0.92D-07  6  1     1.56     0.22
   8      1.14153043    -0.44830899  -130.28873174    -0.00000076     0.00000165  0.37D-08  0.16D-07  6  2     1.78     0.23
   9      1.14153550    -0.44830859  -130.28873134     0.00000040     0.00000037  0.27D-08  0.17D-08  6  4     1.97     0.23
  10      1.14153770    -0.44830905  -130.28873180    -0.00000047    -0.00000067  0.44D-09  0.20D-09  6  3     2.17     0.23
  11      1.14153719    -0.44830908  -130.28873183    -0.00000002    -0.00000007  0.15D-09  0.31D-10  6  5     2.38     0.23
  12      1.14153617    -0.44830922  -130.28873197    -0.00000015     0.00000033  0.17D-10  0.10D-10  6  6     2.61     0.23
  13      1.14153536    -0.44830926  -130.28873200    -0.00000003     0.00000021  0.58D-11  0.21D-11  6  1     2.83     0.23
  14      1.14153484    -0.44830928  -130.28873203    -0.00000003     0.00000013  0.90D-12  0.66D-12  6  2     3.05     0.24
  15      1.14153462    -0.44830929  -130.28873204    -0.00000001     0.00000003  0.24D-12  0.21D-12  6  4     3.25     0.23
  16      1.14153450    -0.44830929  -130.28873204    -0.00000000     0.00000002  0.35D-13  0.25D-13  6  5     3.45     0.23
  17      1.14153447    -0.44830930  -130.28873204    -0.00000000     0.00000000  0.64D-15  0.18D-14  6  3     3.66     0.23
  18      1.14153447    -0.44830930  -130.28873204     0.00000000    -0.00000000  0.22D-15  0.25D-15  6  6     3.87     0.23
  19      1.14153447    -0.44830930  -130.28873204     0.00000000    -0.00000000  0.65D-16  0.33D-16  6  1     4.07     0.23
  20      1.14153447    -0.44830930  -130.28873204     0.00000000    -0.00000000  0.17D-16  0.60D-17  6  2     4.26     0.23
  21      1.14153447    -0.44830930  -130.28873204     0.00000000    -0.00000000  0.32D-17  0.16D-17  6  5     4.47     0.23
  22      1.14153447    -0.44830930  -130.28873204    -0.00000000     0.00000000  0.31D-18  0.18D-18  6  4     4.66     0.23
  23      1.14153447    -0.44830930  -130.28873204     0.00000000     0.00000000  0.11D-18  0.35D-19  6  3     4.85     0.23
  24      1.14153447    -0.44830930  -130.28873204     0.00000000     0.00000000  0.11D-19  0.46D-20  6  2     5.05     0.23
  25      1.14153447    -0.44830930  -130.28873204     0.00000000    -0.00000000  0.20D-20  0.74D-21  6  6     5.25     0.23
  26      1.14153447    -0.44830930  -130.28873204     0.00000000    -0.00000000  0.42D-21  0.19D-21  6  1     5.45     0.23

 Norm of t1 vector:      0.07718516      S-energy:     0.00000000      T1 diagnostic:  0.01575535
                                                                       D1 diagnostic:  0.04137186

 Doubles amplitudes (print threshold =  0.500E-01):

         I         J         SYM. A    SYM. B    A         B      T(IJ, AB)

         6         6         2         2         1         1     -0.10660617


 Total CPU time for triples:      1.71 sec


 RESULTS
 =======

  Reference energy                   -129.840422748411
  CCSD singlet pair energy             -0.307199959058
  CCSD triplet pair energy             -0.141109336414
  CCSD correlation energy              -0.448309295471

  Triples (T) contribution             -0.020684438688
  Total correlation energy             -0.468993734159

  CCSD total energy                  -130.288732043883
  CCSD[T] energy                     -130.310450954092
  CCSD-T energy                      -130.309021203841
 !CCSD(T) total energy               -130.309416482571

 Timing summary (sec):

 STEP                 CPU(USER)    SYS     CPU(TOT)    WALL
 Transformation          0.19      0.05      0.24      0.25
 CCSD iterations         5.26      0.76      6.02      6.04
 Triples                 1.71      0.04      1.75      1.75

 Program statistics:

 Available memory in ccsd:               994999756
 Min. memory needed in ccsd:                389120
 Max. memory used in ccsd:                  473124
 Max. memory used in cckext:                599488 (26 integral passes)



 **********************************************************************************************************************************
 DATASETS  * FILE   NREC   LENGTH (MB)   RECORD NAMES
              1      20      128.20       500      610      700      900      950      970     1000      129      960     1100   
                                          VAR    BASINP    GEOM    SYMINP    ZMAT    AOBASIS   BASIS     P2S    ABASIS      S 
                                         1400     1410     1200     1210     1080     1600     1650     1300     1700     1380   
                                           T        V       H0       H01     AOSYM     SMH    MOLCAS    ERIS     OPER     JKOP   

              2       4        2.94       700     1000      520     2100   
                                         GEOM     BASIS   MCVARS     RHF  

 PROGRAMS   *        TOTAL   CCSD(T)        HF       INT
 CPU TIMES  *         9.88      7.18      1.13      1.48
 REAL TIME  *        12.01 SEC
 DISK USED  *       327.55 MB      
 **********************************************************************************************************************************

 CCSD(T)/aug-cc-pVTZ energy=   -130.309416482571

        CCSD(T)         HF-SCF  
   -130.30941648   -129.84042275
 **********************************************************************************************************************************
 Molpro calculation terminated
 Variable memory released
