
 Primary working directories    : /tmp/r2666/234962.maple
 Secondary working directories  : /tmp/r2666/234962.maple
 Wavefunction directory         : /ddn/home4/r2666/wfu/
 Main file repository           : /tmp/r2666/234962.maple/

 SHA1      : d5ffa45e93fdbca01ffc919aa182cfdae0147319
 NAME      : 2015.1.35
 ARCHNAME  : linux/x86_64
 FC        : /opt/intel/composer_xe_2015.1.133/bin/intel64/ifort
 BLASLIB   : -Wl,-_start-group /opt/intel/mkl/lib/intel64/libmkl_intel_ilp64.a /opt/intel/mkl/lib/intel64/libmkl_intel_thread.a /opt/intel/mkl/lib/intel64/libmkl_core.a -Wl,-_end-group
 id        : olemiss

 Nodes     nprocs
 cn091        1

 Using customized tuning parameters: mindgm=1; mindgv=20; mindgc=4; mindgr=1; noblas=0; minvec=7
 default implementation of scratch files=df  

 ***,hno CCSD(T)/TZ-F12 QFF
 memory, 995, m;
 gthresh,energy=1.d-12,zero=1.d-22,oneint=1.d-22,twoint=1.d-22;
 gthresh,optgrad=1.d-8,optstep=1.d-8;
 nocompress;
 geomtyp=xyz
 bohr
 geometry={
 3
         76        76
 N        0.0000000000       -0.1685886750       -1.1672069937
 H        0.0000000000        1.6691604811       -1.9255249076
 O        0.0000000000        0.0411959839        1.1421423103
 }
 
 basis=avtz
   {hf,maxit=500;accu,20;}
 {ccsd(t),nocheck,maxit=250;orbital,IGNORE_ERROR;}

 Variables initialized (889), CPU time= 0.01 sec
 Commands  initialized (702), CPU time= 0.01 sec, 572 directives.
 Default parameters read. Elapsed time= 0.05 sec

 Checking input...
 Passed
1


                                         ***  PROGRAM SYSTEM MOLPRO  ***
                                       Copyright, TTI GmbH Stuttgart, 2015
                                    Version 2015.1 linked Jul  9 2018 13:16:40


 **********************************************************************************************************************************
 LABEL *   hno CCSD(T)/TZ-F12 QFF                                                        
  64 bit serial version                                                                  DATE: 08-Feb-20          TIME: 17:56:35  
 **********************************************************************************************************************************

 SHA1:             d5ffa45e93fdbca01ffc919aa182cfdae0147319
 **********************************************************************************************************************************

 THRESHOLDS:

 ZERO    =  1.00D-22  ONEINT  =  1.00D-22  TWOINT  =  1.00D-22  PREFAC  =  1.00D-14  LOCALI  =  1.00D-09  EORDER  =  1.00D-04
 ENERGY  =  1.00D-12  ETEST   =  0.00D+00  EDENS   =  0.00D+00  THRDEDEF=  1.00D-06  GRADIENT=  1.00D-02  STEP    =  1.00D-03
 ORBITAL =  1.00D-05  CIVEC   =  1.00D-05  COEFF   =  1.00D-04  PRINTCI =  5.00D-02  PUNCHCI =  9.90D+01  OPTGRAD =  3.00D-04
 OPTENERG=  1.00D-06  OPTSTEP =  3.00D-04  THRGRAD =  1.00D-10  COMPRESS=  1.00D-11  VARMIN  =  1.00D-07  VARMAX  =  1.00D-03
 THRDOUB =  0.00D+00  THRDIV  =  1.00D-05  THRRED  =  1.00D-07  THRPSP  =  1.00D+00  THRDC   =  1.00D-10  THRCS   =  1.00D-10
 THRNRM  =  1.00D-08  THREQ   =  0.00D+00  THRDE   =  1.00D+00  THRREF  =  1.00D-05  SPARFAC =  1.00D+00  THRDLP  =  1.00D-07
 THRDIA  =  1.00D-10  THRDLS  =  1.00D-07  THRGPS  =  0.00D+00  THRKEX  =  0.00D+00  THRDIS  =  2.00D-01  THRVAR  =  1.00D-10
 THRLOC  =  1.00D-06  THRGAP  =  1.00D-06  THRLOCT = -1.00D+00  THRGAPT = -1.00D+00  THRORB  =  1.00D-06  THRMLTP =  0.00D+00
 THRCPQCI=  1.00D-10  KEXTA   =  0.00D+00  THRCOARS=  0.00D+00  SYMTOL  =  1.00D-06  GRADTOL =  1.00D-06  THROVL  =  1.00D-08
 THRORTH =  1.00D-08  GRID    =  1.00D-06  GRIDMAX =  1.00D-03  DTMAX   =  0.00D+00  THROCCDE=  1.00D-01  THROCCDE=  1.00D-01



 THRESHOLDS:

 ZERO    =  1.00D-22  ONEINT  =  1.00D-22  TWOINT  =  1.00D-22  PREFAC  =  1.00D-14  LOCALI  =  1.00D-09  EORDER  =  1.00D-04
 ENERGY  =  1.00D-12  ETEST   =  0.00D+00  EDENS   =  0.00D+00  THRDEDEF=  1.00D-06  GRADIENT=  1.00D-02  STEP    =  1.00D-03
 ORBITAL =  1.00D-05  CIVEC   =  1.00D-05  COEFF   =  1.00D-04  PRINTCI =  5.00D-02  PUNCHCI =  9.90D+01  OPTGRAD =  1.00D-08
 OPTENERG=  1.00D-06  OPTSTEP =  1.00D-08  THRGRAD =  1.00D-10  COMPRESS=  1.00D-11  VARMIN  =  1.00D-07  VARMAX  =  1.00D-03
 THRDOUB =  0.00D+00  THRDIV  =  1.00D-05  THRRED  =  1.00D-07  THRPSP  =  1.00D+00  THRDC   =  1.00D-10  THRCS   =  1.00D-10
 THRNRM  =  1.00D-08  THREQ   =  0.00D+00  THRDE   =  1.00D+00  THRREF  =  1.00D-05  SPARFAC =  1.00D+00  THRDLP  =  1.00D-07
 THRDIA  =  1.00D-10  THRDLS  =  1.00D-07  THRGPS  =  0.00D+00  THRKEX  =  0.00D+00  THRDIS  =  2.00D-01  THRVAR  =  1.00D-10
 THRLOC  =  1.00D-06  THRGAP  =  1.00D-06  THRLOCT = -1.00D+00  THRGAPT = -1.00D+00  THRORB  =  1.00D-06  THRMLTP =  0.00D+00
 THRCPQCI=  1.00D-10  KEXTA   =  0.00D+00  THRCOARS=  0.00D+00  SYMTOL  =  1.00D-06  GRADTOL =  1.00D-06  THROVL  =  1.00D-08
 THRORTH =  1.00D-08  GRID    =  1.00D-06  GRIDMAX =  1.00D-03  DTMAX   =  0.00D+00  THROCCDE=  1.00D-01  THROCCDE=  1.00D-01



 Input parameters for SORTINT:

 COMPRESS =    0.000000
 C_FINAL  =    1.000000
 DEBUG    =   -1.000000
 C_SORT1  =    0.000000
 C_SEWARD =    0.000000
 THRESH   =    0.000000
 IO       =  molpro                                                          
 SPRI     =    0.000000
 SETTING GEOMTYP        =    XYZ
 ZUNIT=BOHR
 

 Variable memory set to  995000000 words,  buffer space   230000 words

 SETTING BASIS          =    AVTZ


 Recomputing integrals since basis changed


 Using spherical harmonics

 Library entry N      S aug-cc-pVTZ          selected for orbital group  1
 Library entry N      P aug-cc-pVTZ          selected for orbital group  1
 Library entry N      D aug-cc-pVTZ          selected for orbital group  1
 Library entry N      F aug-cc-pVTZ          selected for orbital group  1
 Library entry H      S aug-cc-pVTZ          selected for orbital group  2
 Library entry H      P aug-cc-pVTZ          selected for orbital group  2
 Library entry H      D aug-cc-pVTZ          selected for orbital group  2
 Library entry O      S aug-cc-pVTZ          selected for orbital group  3
 Library entry O      P aug-cc-pVTZ          selected for orbital group  3
 Library entry O      D aug-cc-pVTZ          selected for orbital group  3
 Library entry O      F aug-cc-pVTZ          selected for orbital group  3


 PROGRAM * SEWARD (Integral evaluation for generally contracted gaussian basis sets)     Author: Roland Lindh, 1990

 Geometry written to block  1 of record 700


 Point group  Cs  



 ATOMIC COORDINATES

 NR  ATOM    CHARGE       X              Y              Z

   1  N       7.00    0.000000000   -0.168588675   -1.167206994
   2  H       1.00    0.000000000    1.669160481   -1.925524908
   3  O       8.00    0.000000000    0.041195984    1.142142310

 Bond lengths in Bohr (Angstrom)

 1-2  1.988056342  1-3  2.318858299
     ( 1.052034110)     ( 1.227086967)

 Bond angles

  2-1-3  107.23212621

 NUCLEAR CHARGE:                   16
 NUMBER OF PRIMITIVE AOS:         161
 NUMBER OF SYMMETRY AOS:          141
 NUMBER OF CONTRACTIONS:          115   (  76A'  +  39A"  )
 NUMBER OF CORE ORBITALS:           2   (   2A'  +   0A"  )
 NUMBER OF VALENCE ORBITALS:        9   (   7A'  +   2A"  )


 NUCLEAR REPULSION ENERGY   29.97441033

 Eigenvalues of metric

         1 0.237E-03 0.511E-03 0.184E-02 0.218E-02 0.270E-02 0.388E-02 0.436E-02 0.528E-02
         2 0.418E-02 0.103E-01 0.271E-01 0.377E-01 0.520E-01 0.627E-01 0.854E-01 0.121E+00


 Contracted 2-electron integrals neglected if value below      1.0D-22

       10790064. INTEGRALS WRITTEN OUT IN    2635 BLOCKS ON RECORD 1290 OF FILE 1


 NUMBER OF SORTED TWO-ELECTRON INTEGRALS:   11433631.     BUFFER LENGTH:  32768
 NUMBER OF SEGMENTS:   1  SEGMENT LENGTH:   11433631      RECORD LENGTH: 524288

 Memory used in sort:      11.99 MW

 SORT1 READ    10790064. AND WROTE    10943632. INTEGRALS IN     32 RECORDS. CPU TIME:     0.18 SEC, REAL TIME:     0.24 SEC
 SORT2 READ    10943632. AND WROTE    11433631. INTEGRALS IN      1 RECORDS. CPU TIME:     0.17 SEC, REAL TIME:     0.24 SEC

 FILE SIZES:   FILE 1:   193.0 MBYTE,  FILE 4:   134.3 MBYTE,   TOTAL:    327.2 MBYTE

 OPERATOR DM      FOR CENTER  0  COORDINATES:    0.000000    0.000000    0.000000


 **********************************************************************************************************************************
 DATASETS  * FILE   NREC   LENGTH (MB)   RECORD NAMES
              1      19      111.05       500      610      700      900      950      970     1000      129      960     1100   
                                          VAR    BASINP    GEOM    SYMINP    ZMAT    AOBASIS   BASIS     P2S    ABASIS      S 
                                         1400     1410     1200     1210     1080     1600     1650     1300     1700   
                                           T        V       H0       H01     AOSYM     SMH    MOLCAS    ERIS     OPER   

 PROGRAMS   *        TOTAL       INT
 CPU TIMES  *         1.33      1.25
 REAL TIME  *         2.11 SEC
 DISK USED  *       327.55 MB      
 **********************************************************************************************************************************


 PROGRAM * RHF-SCF (CLOSED SHELL)       Authors: W. Meyer, H.-J. Werner


 NUMBER OF ELECTRONS:       8+    8-
 CONVERGENCE THRESHOLDS:    1.00E-10 (Density)    1.00E-13 (Energy)
 MAX. NUMBER OF ITERATIONS:      500
 INTERPOLATION TYPE:            DIIS
 INTERPOLATION STEPS:              2 (START)      1 (STEP)
 LEVEL SHIFTS:                  0.00 (CLOSED)  0.00 (OPEN) 



 Orbital guess generated from atomic densities. Full valence occupancy:    9   2

 Molecular orbital dump at record        2100.2

 Initial occupancy:   7   1

 ITERATION    DDIFF          GRAD             ENERGY        2-EL.EN.            DIPOLE MOMENTS         DIIS   ORB.
    1      0.000D+00      0.000D+00      -129.78234567    153.194975    0.00000    0.59161   -1.08131    0    start
    2      0.000D+00      0.110D-01      -129.80905795    154.415586    0.00000    0.62334   -0.19449    1    diag
    3      0.124D-01      0.879D-02      -129.83517714    154.573179    0.00000    0.56204   -0.61683    2    diag
    4      0.626D-02      0.130D-02      -129.83600622    154.270637    0.00000    0.56946   -0.55417    3    diag
    5      0.110D-02      0.434D-03      -129.83614001    154.366079    0.00000    0.57495   -0.55657    4    diag
    6      0.465D-03      0.125D-03      -129.83616149    154.350204    0.00000    0.57522   -0.55213    5    diag
    7      0.178D-03      0.632D-04      -129.83616798    154.352533    0.00000    0.57641   -0.54928    6    diag
    8      0.125D-03      0.228D-04      -129.83616880    154.351800    0.00000    0.57642   -0.54813    7    diag
    9      0.515D-04      0.439D-05      -129.83616884    154.351676    0.00000    0.57638   -0.54788    8    diag
   10      0.102D-04      0.953D-06      -129.83616884    154.351656    0.00000    0.57635   -0.54785    9    orth
   11      0.187D-05      0.187D-06      -129.83616884    154.351654    0.00000    0.57634   -0.54785    9    diag
   12      0.346D-06      0.404D-07      -129.83616884    154.351654    0.00000    0.57634   -0.54785    9    diag
   13      0.754D-07      0.108D-07      -129.83616884    154.351653    0.00000    0.57634   -0.54785    9    diag
   14      0.211D-07      0.222D-08      -129.83616884    154.351653    0.00000    0.57634   -0.54785    9    diag
   15      0.396D-08      0.610D-09      -129.83616884    154.351653    0.00000    0.57634   -0.54785    9    diag
   16      0.111D-08      0.160D-09      -129.83616884    154.351653    0.00000    0.57634   -0.54785    9    diag
   17      0.180D-09      0.439D-10      -129.83616884    154.351653    0.00000    0.57634   -0.54785    9    diag
   18      0.532D-10      0.156D-10      -129.83616884    154.351653    0.00000    0.57634   -0.54785    0    orth

 Final occupancy:   7   1

 !RHF STATE 1.1 Energy               -129.836168836861
 Nuclear energy                        29.97441033
 One-electron energy                 -236.98640587
 Two-electron energy                   77.17582670
 Virial quotient                       -1.00268270
 !RHF STATE 1.1 Dipole moment           0.00000000     0.57633819    -0.54785132
 Dipole moment /Debye                   0.00000000     1.46480962    -1.39240795

 Orbital energies:

         1.1          2.1          3.1          4.1          5.1          6.1          7.1          8.1          9.1
    -20.658167   -15.717944    -1.515910    -0.998948    -0.741591    -0.660517    -0.436837     0.028999     0.092137

         1.2          2.2          3.2
     -0.587463     0.059639     0.129785

 HOMO      7.1    -0.436837 =     -11.8869eV
 LUMO      8.1     0.028999 =       0.7891eV
 LUMO-HOMO         0.465836 =      12.6760eV


 **********************************************************************************************************************************
 DATASETS  * FILE   NREC   LENGTH (MB)   RECORD NAMES
              1      19      111.05       500      610      700      900      950      970     1000      129      960     1100   
                                          VAR    BASINP    GEOM    SYMINP    ZMAT    AOBASIS   BASIS     P2S    ABASIS      S 
                                         1400     1410     1200     1210     1080     1600     1650     1300     1700   
                                           T        V       H0       H01     AOSYM     SMH    MOLCAS    ERIS     OPER   

              2       4        2.94       700     1000      520     2100   
                                         GEOM     BASIS   MCVARS     RHF  

 PROGRAMS   *        TOTAL        HF       INT
 CPU TIMES  *         2.24      0.90      1.25
 REAL TIME  *         3.39 SEC
 DISK USED  *       327.55 MB      
 **********************************************************************************************************************************


 PROGRAM * CCSD (Closed-shell coupled cluster)     Authors: C. Hampel, H.-J. Werner, 1991, M. Deegan, P.J. Knowles, 1992


 Convergence thresholds:  THRVAR = 1.00D-08  THRDEN = 1.00D-12

 CCSD(T)     terms to be evaluated (factor= 1.000)


 Number of core orbitals:           2 (   2   0 )
 Number of closed-shell orbitals:   6 (   5   1 )
 Number of external orbitals:     107 (  69  38 )

 Molecular orbitals read from record     2100.2  Type=RHF/CANONICAL (state 1.1)

 Number of N-1 electron functions:               6
 Number of N-2 electron functions:              21
 Number of singly external CSFs:               383
 Number of doubly external CSFs:            107206
 Total number of CSFs:                      107590

 Length of J-op  integral file:               0.00 MB
 Length of K-op  integral file:               0.54 MB
 Length of 3-ext integral record:             0.00 MB

 Memory could be reduced to 5.94 Mwords without degradation in triples

 Integral transformation finished. Total CPU:   0.13 sec, npass=  1  Memory used:   1.65 MW

 Reference energy:                   -129.83616884

 MP2 singlet pair energy:              -0.28148529
 MP2 triplet pair energy:              -0.16655690
 MP2 correlation energy:               -0.44804219
 MP2 total energy:                   -130.28421103

 SCS-MP2 correlation energy:           -0.44141775   (PS=  1.200000  PT=  0.333333)
 SCS-MP2 total energy:               -130.27758659

 ITER.      SQ.NORM     CORR.ENERGY   TOTAL ENERGY   ENERGY CHANGE        DEN1      VAR(S)    VAR(P)  DIIS     TIME  TIME/IT
   1      1.12303794    -0.45139067  -130.28755951    -0.00334848     0.01353144  0.34D-02  0.34D-02  1  1     0.29     0.17
   2      1.13463862    -0.45143291  -130.28760175    -0.00004224    -0.01291851  0.11D-03  0.54D-03  2  2     0.43     0.17
   3      1.14154043    -0.45186478  -130.28803361    -0.00043186    -0.00313234  0.59D-04  0.56D-04  3  3     0.58     0.17
   4      1.14466611    -0.45187811  -130.28804695    -0.00001334    -0.00104004  0.48D-05  0.10D-04  4  4     0.72     0.17
   5      1.14583638    -0.45191078  -130.28807961    -0.00003266    -0.00024671  0.12D-05  0.17D-05  5  5     0.87     0.18
   6      1.14620762    -0.45189116  -130.28806000     0.00001962    -0.00004612  0.11D-06  0.39D-06  6  6     1.02     0.18
   7      1.14628131    -0.45189274  -130.28806157    -0.00000158    -0.00000102  0.18D-07  0.96D-07  6  1     1.18     0.18
   8      1.14630273    -0.45189317  -130.28806201    -0.00000044     0.00000165  0.33D-08  0.18D-07  6  2     1.33     0.18
   9      1.14631162    -0.45189253  -130.28806137     0.00000064    -0.00000090  0.27D-08  0.20D-08  6  3     1.49     0.18
  10      1.14631186    -0.45189308  -130.28806191    -0.00000055    -0.00000002  0.54D-09  0.30D-09  6  4     1.64     0.18
  11      1.14631022    -0.45189320  -130.28806203    -0.00000012     0.00000052  0.17D-09  0.37D-10  6  5     1.79     0.18
  12      1.14630883    -0.45189340  -130.28806224    -0.00000020     0.00000044  0.17D-10  0.10D-10  6  6     1.94     0.18
  13      1.14630805    -0.45189342  -130.28806226    -0.00000002     0.00000018  0.59D-11  0.20D-11  6  1     2.11     0.18
  14      1.14630757    -0.45189345  -130.28806228    -0.00000003     0.00000010  0.86D-12  0.63D-12  6  2     2.26     0.18
  15      1.14630737    -0.45189345  -130.28806229    -0.00000001     0.00000002  0.26D-12  0.18D-12  6  3     2.41     0.18
  16      1.14630727    -0.45189346  -130.28806229    -0.00000000     0.00000002  0.43D-13  0.64D-13  6  4     2.55     0.18
  17      1.14630721    -0.45189346  -130.28806230    -0.00000000     0.00000001  0.30D-14  0.14D-13  6  5     2.71     0.18
  18      1.14630720    -0.45189346  -130.28806230     0.00000000     0.00000000  0.11D-14  0.34D-14  6  6     2.86     0.18
  19      1.14630720    -0.45189346  -130.28806230     0.00000000    -0.00000000  0.13D-15  0.23D-15  6  5     3.01     0.18
  20      1.14630720    -0.45189346  -130.28806230    -0.00000000    -0.00000000  0.54D-16  0.37D-16  6  1     3.16     0.18
  21      1.14630720    -0.45189346  -130.28806230     0.00000000     0.00000000  0.13D-16  0.80D-17  6  2     3.30     0.18
  22      1.14630720    -0.45189346  -130.28806230    -0.00000000     0.00000000  0.36D-17  0.96D-18  6  3     3.45     0.18
  23      1.14630720    -0.45189346  -130.28806230     0.00000000     0.00000000  0.95D-18  0.31D-18  6  4     3.60     0.18
  24      1.14630720    -0.45189346  -130.28806230    -0.00000000     0.00000000  0.26D-18  0.58D-19  6  6     3.75     0.18
  25      1.14630720    -0.45189346  -130.28806230     0.00000000    -0.00000000  0.43D-19  0.26D-19  6  5     3.88     0.18
  26      1.14630720    -0.45189346  -130.28806230     0.00000000    -0.00000000  0.67D-20  0.10D-19  6  1     4.06     0.18
  27      1.14630720    -0.45189346  -130.28806230    -0.00000000    -0.00000000  0.29D-21  0.13D-20  6  3     4.21     0.18
  28      1.14630720    -0.45189346  -130.28806230     0.00000000     0.00000000  0.68D-22  0.17D-21  6  2     4.37     0.18

 Norm of t1 vector:      0.08143164      S-energy:     0.00000000      T1 diagnostic:  0.01662216
                                                                       D1 diagnostic:  0.04464457

 Doubles amplitudes (print threshold =  0.500E-01):

         I         J         SYM. A    SYM. B    A         B      T(IJ, AB)

         6         6         2         2         1         1     -0.11722159


 Total CPU time for triples:      1.29 sec


 RESULTS
 =======

  Reference energy                   -129.836168836861
  CCSD singlet pair energy             -0.310283657172
  CCSD triplet pair energy             -0.141609801705
  CCSD correlation energy              -0.451893458874

  Triples (T) contribution             -0.021509593574
  Total correlation energy             -0.473403052448

  CCSD total energy                  -130.288062295735
  CCSD[T] energy                     -130.310720805350
  CCSD-T energy                      -130.309148887604
 !CCSD(T) total energy               -130.309571889310

 Timing summary (sec):

 STEP                 CPU(USER)    SYS     CPU(TOT)    WALL
 Transformation          0.14      0.06      0.20      0.19
 CCSD iterations         4.23      0.76      4.99      5.02
 Triples                 1.29      0.06      1.35      1.35

 Program statistics:

 Available memory in ccsd:               994999756
 Min. memory needed in ccsd:                389120
 Max. memory used in ccsd:                  473124
 Max. memory used in cckext:                599488 (28 integral passes)



 **********************************************************************************************************************************
 DATASETS  * FILE   NREC   LENGTH (MB)   RECORD NAMES
              1      20      128.20       500      610      700      900      950      970     1000      129      960     1100   
                                          VAR    BASINP    GEOM    SYMINP    ZMAT    AOBASIS   BASIS     P2S    ABASIS      S 
                                         1400     1410     1200     1210     1080     1600     1650     1300     1700     1380   
                                           T        V       H0       H01     AOSYM     SMH    MOLCAS    ERIS     OPER     JKOP   

              2       4        2.94       700     1000      520     2100   
                                         GEOM     BASIS   MCVARS     RHF  

 PROGRAMS   *        TOTAL   CCSD(T)        HF       INT
 CPU TIMES  *         7.93      5.69      0.90      1.25
 REAL TIME  *         9.99 SEC
 DISK USED  *       327.55 MB      
 **********************************************************************************************************************************

 CCSD(T)/aug-cc-pVTZ energy=   -130.309571889310

        CCSD(T)         HF-SCF  
   -130.30957189   -129.83616884
 **********************************************************************************************************************************
 Molpro calculation terminated
 Variable memory released
