
 Primary working directories    : /tmp/r2666/234938.maple
 Secondary working directories  : /tmp/r2666/234938.maple
 Wavefunction directory         : /ddn/home4/r2666/wfu/
 Main file repository           : /tmp/r2666/234938.maple/

 SHA1      : d5ffa45e93fdbca01ffc919aa182cfdae0147319
 NAME      : 2015.1.35
 ARCHNAME  : linux/x86_64
 FC        : /opt/intel/composer_xe_2015.1.133/bin/intel64/ifort
 BLASLIB   : -Wl,-_start-group /opt/intel/mkl/lib/intel64/libmkl_intel_ilp64.a /opt/intel/mkl/lib/intel64/libmkl_intel_thread.a /opt/intel/mkl/lib/intel64/libmkl_core.a -Wl,-_end-group
 id        : olemiss

 Nodes     nprocs
 cn025        1

 Using customized tuning parameters: mindgm=1; mindgv=20; mindgc=4; mindgr=1; noblas=0; minvec=7
 default implementation of scratch files=df  

 ***,hno CCSD(T)/TZ-F12 QFF
 memory, 995, m;
 gthresh,energy=1.d-12,zero=1.d-22,oneint=1.d-22,twoint=1.d-22;
 gthresh,optgrad=1.d-8,optstep=1.d-8;
 nocompress;
 geomtyp=xyz
 bohr
 geometry={
 3
         52        52
 N        0.0000000000       -0.1635860590       -1.1429023852
 H        0.0000000000        1.6653064426       -1.9223382306
 O        0.0000000000        0.0400474064        1.1146510248
 }
 
 basis=avtz
   {hf,maxit=500;accu,20;}
 {ccsd(t),nocheck,maxit=250;orbital,IGNORE_ERROR;}

 Variables initialized (889), CPU time= 0.00 sec
 Commands  initialized (702), CPU time= 0.01 sec, 572 directives.
 Default parameters read. Elapsed time= 0.05 sec

 Checking input...
 Passed
1


                                         ***  PROGRAM SYSTEM MOLPRO  ***
                                       Copyright, TTI GmbH Stuttgart, 2015
                                    Version 2015.1 linked Jul  9 2018 13:16:40


 **********************************************************************************************************************************
 LABEL *   hno CCSD(T)/TZ-F12 QFF                                                        
  64 bit serial version                                                                  DATE: 08-Feb-20          TIME: 17:56:24  
 **********************************************************************************************************************************

 SHA1:             d5ffa45e93fdbca01ffc919aa182cfdae0147319
 **********************************************************************************************************************************

 THRESHOLDS:

 ZERO    =  1.00D-22  ONEINT  =  1.00D-22  TWOINT  =  1.00D-22  PREFAC  =  1.00D-14  LOCALI  =  1.00D-09  EORDER  =  1.00D-04
 ENERGY  =  1.00D-12  ETEST   =  0.00D+00  EDENS   =  0.00D+00  THRDEDEF=  1.00D-06  GRADIENT=  1.00D-02  STEP    =  1.00D-03
 ORBITAL =  1.00D-05  CIVEC   =  1.00D-05  COEFF   =  1.00D-04  PRINTCI =  5.00D-02  PUNCHCI =  9.90D+01  OPTGRAD =  3.00D-04
 OPTENERG=  1.00D-06  OPTSTEP =  3.00D-04  THRGRAD =  1.00D-10  COMPRESS=  1.00D-11  VARMIN  =  1.00D-07  VARMAX  =  1.00D-03
 THRDOUB =  0.00D+00  THRDIV  =  1.00D-05  THRRED  =  1.00D-07  THRPSP  =  1.00D+00  THRDC   =  1.00D-10  THRCS   =  1.00D-10
 THRNRM  =  1.00D-08  THREQ   =  0.00D+00  THRDE   =  1.00D+00  THRREF  =  1.00D-05  SPARFAC =  1.00D+00  THRDLP  =  1.00D-07
 THRDIA  =  1.00D-10  THRDLS  =  1.00D-07  THRGPS  =  0.00D+00  THRKEX  =  0.00D+00  THRDIS  =  2.00D-01  THRVAR  =  1.00D-10
 THRLOC  =  1.00D-06  THRGAP  =  1.00D-06  THRLOCT = -1.00D+00  THRGAPT = -1.00D+00  THRORB  =  1.00D-06  THRMLTP =  0.00D+00
 THRCPQCI=  1.00D-10  KEXTA   =  0.00D+00  THRCOARS=  0.00D+00  SYMTOL  =  1.00D-06  GRADTOL =  1.00D-06  THROVL  =  1.00D-08
 THRORTH =  1.00D-08  GRID    =  1.00D-06  GRIDMAX =  1.00D-03  DTMAX   =  0.00D+00  THROCCDE=  1.00D-01  THROCCDE=  1.00D-01



 THRESHOLDS:

 ZERO    =  1.00D-22  ONEINT  =  1.00D-22  TWOINT  =  1.00D-22  PREFAC  =  1.00D-14  LOCALI  =  1.00D-09  EORDER  =  1.00D-04
 ENERGY  =  1.00D-12  ETEST   =  0.00D+00  EDENS   =  0.00D+00  THRDEDEF=  1.00D-06  GRADIENT=  1.00D-02  STEP    =  1.00D-03
 ORBITAL =  1.00D-05  CIVEC   =  1.00D-05  COEFF   =  1.00D-04  PRINTCI =  5.00D-02  PUNCHCI =  9.90D+01  OPTGRAD =  1.00D-08
 OPTENERG=  1.00D-06  OPTSTEP =  1.00D-08  THRGRAD =  1.00D-10  COMPRESS=  1.00D-11  VARMIN  =  1.00D-07  VARMAX  =  1.00D-03
 THRDOUB =  0.00D+00  THRDIV  =  1.00D-05  THRRED  =  1.00D-07  THRPSP  =  1.00D+00  THRDC   =  1.00D-10  THRCS   =  1.00D-10
 THRNRM  =  1.00D-08  THREQ   =  0.00D+00  THRDE   =  1.00D+00  THRREF  =  1.00D-05  SPARFAC =  1.00D+00  THRDLP  =  1.00D-07
 THRDIA  =  1.00D-10  THRDLS  =  1.00D-07  THRGPS  =  0.00D+00  THRKEX  =  0.00D+00  THRDIS  =  2.00D-01  THRVAR  =  1.00D-10
 THRLOC  =  1.00D-06  THRGAP  =  1.00D-06  THRLOCT = -1.00D+00  THRGAPT = -1.00D+00  THRORB  =  1.00D-06  THRMLTP =  0.00D+00
 THRCPQCI=  1.00D-10  KEXTA   =  0.00D+00  THRCOARS=  0.00D+00  SYMTOL  =  1.00D-06  GRADTOL =  1.00D-06  THROVL  =  1.00D-08
 THRORTH =  1.00D-08  GRID    =  1.00D-06  GRIDMAX =  1.00D-03  DTMAX   =  0.00D+00  THROCCDE=  1.00D-01  THROCCDE=  1.00D-01



 Input parameters for SORTINT:

 COMPRESS =    0.000000
 C_FINAL  =    1.000000
 DEBUG    =   -1.000000
 C_SORT1  =    0.000000
 C_SEWARD =    0.000000
 THRESH   =    0.000000
 IO       =  molpro                                                          
 SPRI     =    0.000000
 SETTING GEOMTYP        =    XYZ
 ZUNIT=BOHR
 

 Variable memory set to  995000000 words,  buffer space   230000 words

 SETTING BASIS          =    AVTZ


 Recomputing integrals since basis changed


 Using spherical harmonics

 Library entry N      S aug-cc-pVTZ          selected for orbital group  1
 Library entry N      P aug-cc-pVTZ          selected for orbital group  1
 Library entry N      D aug-cc-pVTZ          selected for orbital group  1
 Library entry N      F aug-cc-pVTZ          selected for orbital group  1
 Library entry H      S aug-cc-pVTZ          selected for orbital group  2
 Library entry H      P aug-cc-pVTZ          selected for orbital group  2
 Library entry H      D aug-cc-pVTZ          selected for orbital group  2
 Library entry O      S aug-cc-pVTZ          selected for orbital group  3
 Library entry O      P aug-cc-pVTZ          selected for orbital group  3
 Library entry O      D aug-cc-pVTZ          selected for orbital group  3
 Library entry O      F aug-cc-pVTZ          selected for orbital group  3


 PROGRAM * SEWARD (Integral evaluation for generally contracted gaussian basis sets)     Author: Roland Lindh, 1990

 Geometry written to block  1 of record 700


 Point group  Cs  



 ATOMIC COORDINATES

 NR  ATOM    CHARGE       X              Y              Z

   1  N       7.00    0.000000000   -0.163586059   -1.142902385
   2  H       1.00    0.000000000    1.665306443   -1.922338231
   3  O       8.00    0.000000000    0.040047406    1.114651025

 Bond lengths in Bohr (Angstrom)

 1-2  1.988056342  1-3  2.266718771
     ( 1.052034110)     ( 1.199495917)

 Bond angles

  2-1-3  107.92850623

 NUCLEAR CHARGE:                   16
 NUMBER OF PRIMITIVE AOS:         161
 NUMBER OF SYMMETRY AOS:          141
 NUMBER OF CONTRACTIONS:          115   (  76A'  +  39A"  )
 NUMBER OF CORE ORBITALS:           2   (   2A'  +   0A"  )
 NUMBER OF VALENCE ORBITALS:        9   (   7A'  +   2A"  )


 NUCLEAR REPULSION ENERGY   30.54886596

 Eigenvalues of metric

         1 0.229E-03 0.496E-03 0.178E-02 0.210E-02 0.246E-02 0.345E-02 0.428E-02 0.511E-02
         2 0.386E-02 0.101E-01 0.258E-01 0.369E-01 0.511E-01 0.620E-01 0.804E-01 0.119E+00


 Contracted 2-electron integrals neglected if value below      1.0D-22

       10790060. INTEGRALS WRITTEN OUT IN    2635 BLOCKS ON RECORD 1290 OF FILE 1


 NUMBER OF SORTED TWO-ELECTRON INTEGRALS:   11433631.     BUFFER LENGTH:  32768
 NUMBER OF SEGMENTS:   1  SEGMENT LENGTH:   11433631      RECORD LENGTH: 524288

 Memory used in sort:      11.99 MW

 SORT1 READ    10790060. AND WROTE    10943631. INTEGRALS IN     32 RECORDS. CPU TIME:     0.24 SEC, REAL TIME:     0.30 SEC
 SORT2 READ    10943631. AND WROTE    11433631. INTEGRALS IN      1 RECORDS. CPU TIME:     0.21 SEC, REAL TIME:     0.26 SEC

 FILE SIZES:   FILE 1:   193.0 MBYTE,  FILE 4:   134.3 MBYTE,   TOTAL:    327.2 MBYTE

 OPERATOR DM      FOR CENTER  0  COORDINATES:    0.000000    0.000000    0.000000


 **********************************************************************************************************************************
 DATASETS  * FILE   NREC   LENGTH (MB)   RECORD NAMES
              1      19      111.05       500      610      700      900      950      970     1000      129      960     1100   
                                          VAR    BASINP    GEOM    SYMINP    ZMAT    AOBASIS   BASIS     P2S    ABASIS      S 
                                         1400     1410     1200     1210     1080     1600     1650     1300     1700   
                                           T        V       H0       H01     AOSYM     SMH    MOLCAS    ERIS     OPER   

 PROGRAMS   *        TOTAL       INT
 CPU TIMES  *         1.63      1.54
 REAL TIME  *         2.44 SEC
 DISK USED  *       327.55 MB      
 **********************************************************************************************************************************


 PROGRAM * RHF-SCF (CLOSED SHELL)       Authors: W. Meyer, H.-J. Werner


 NUMBER OF ELECTRONS:       8+    8-
 CONVERGENCE THRESHOLDS:    1.00E-10 (Density)    1.00E-13 (Energy)
 MAX. NUMBER OF ITERATIONS:      500
 INTERPOLATION TYPE:            DIIS
 INTERPOLATION STEPS:              2 (START)      1 (STEP)
 LEVEL SHIFTS:                  0.00 (CLOSED)  0.00 (OPEN) 



 Orbital guess generated from atomic densities. Full valence occupancy:    9   2

 Molecular orbital dump at record        2100.2

 Initial occupancy:   7   1

 ITERATION    DDIFF          GRAD             ENERGY        2-EL.EN.            DIPOLE MOMENTS         DIIS   ORB.
    1      0.000D+00      0.000D+00      -129.79059146    154.218666    0.00000    0.58589   -0.99310    0    start
    2      0.000D+00      0.106D-01      -129.81829405    155.502997    0.00000    0.60560   -0.21229    1    diag
    3      0.117D-01      0.799D-02      -129.83958155    155.595633    0.00000    0.55227   -0.57881    2    diag
    4      0.579D-02      0.126D-02      -129.84035383    155.314079    0.00000    0.56006   -0.52038    3    diag
    5      0.106D-02      0.416D-03      -129.84047627    155.407201    0.00000    0.56561   -0.52332    4    diag
    6      0.443D-03      0.120D-03      -129.84049575    155.391757    0.00000    0.56603   -0.51939    5    diag
    7      0.169D-03      0.590D-04      -129.84050123    155.394346    0.00000    0.56730   -0.51695    6    diag
    8      0.116D-03      0.195D-04      -129.84050178    155.393719    0.00000    0.56733   -0.51602    7    diag
    9      0.416D-04      0.366D-05      -129.84050180    155.393618    0.00000    0.56729   -0.51582    8    diag
   10      0.787D-05      0.848D-06      -129.84050180    155.393600    0.00000    0.56726   -0.51579    9    orth
   11      0.166D-05      0.171D-06      -129.84050180    155.393597    0.00000    0.56725   -0.51579    9    diag
   12      0.329D-06      0.349D-07      -129.84050180    155.393596    0.00000    0.56725   -0.51579    9    diag
   13      0.714D-07      0.867D-08      -129.84050180    155.393596    0.00000    0.56725   -0.51579    9    diag
   14      0.183D-07      0.182D-08      -129.84050180    155.393596    0.00000    0.56725   -0.51579    9    diag
   15      0.372D-08      0.518D-09      -129.84050180    155.393596    0.00000    0.56725   -0.51579    9    diag
   16      0.101D-08      0.147D-09      -129.84050180    155.393596    0.00000    0.56725   -0.51579    9    diag
   17      0.191D-09      0.429D-10      -129.84050180    155.393596    0.00000    0.56725   -0.51579    9    diag
   18      0.553D-10      0.152D-10      -129.84050180    155.393596    0.00000    0.56725   -0.51579    0    orth

 Final occupancy:   7   1

 !RHF STATE 1.1 Energy               -129.840501800270
 Nuclear energy                        30.54886596
 One-electron energy                 -238.08616582
 Two-electron energy                   77.69679805
 Virial quotient                       -1.00188600
 !RHF STATE 1.1 Dipole moment           0.00000000     0.56724981    -0.51579006
 Dipole moment /Debye                   0.00000000     1.44171077    -1.31092170

 Orbital energies:

         1.1          2.1          3.1          4.1          5.1          6.1          7.1          8.1          9.1
    -20.655671   -15.713055    -1.537910    -0.992901    -0.749934    -0.668483    -0.428005     0.029323     0.092213

         1.2          2.2          3.2
     -0.600326     0.067257     0.130442

 HOMO      7.1    -0.428005 =     -11.6466eV
 LUMO      8.1     0.029323 =       0.7979eV
 LUMO-HOMO         0.457329 =      12.4445eV


 **********************************************************************************************************************************
 DATASETS  * FILE   NREC   LENGTH (MB)   RECORD NAMES
              1      19      111.05       500      610      700      900      950      970     1000      129      960     1100   
                                          VAR    BASINP    GEOM    SYMINP    ZMAT    AOBASIS   BASIS     P2S    ABASIS      S 
                                         1400     1410     1200     1210     1080     1600     1650     1300     1700   
                                           T        V       H0       H01     AOSYM     SMH    MOLCAS    ERIS     OPER   

              2       4        2.94       700     1000      520     2100   
                                         GEOM     BASIS   MCVARS     RHF  

 PROGRAMS   *        TOTAL        HF       INT
 CPU TIMES  *         2.82      1.19      1.54
 REAL TIME  *         3.83 SEC
 DISK USED  *       327.55 MB      
 **********************************************************************************************************************************


 PROGRAM * CCSD (Closed-shell coupled cluster)     Authors: C. Hampel, H.-J. Werner, 1991, M. Deegan, P.J. Knowles, 1992


 Convergence thresholds:  THRVAR = 1.00D-08  THRDEN = 1.00D-12

 CCSD(T)     terms to be evaluated (factor= 1.000)


 Number of core orbitals:           2 (   2   0 )
 Number of closed-shell orbitals:   6 (   5   1 )
 Number of external orbitals:     107 (  69  38 )

 Molecular orbitals read from record     2100.2  Type=RHF/CANONICAL (state 1.1)

 Number of N-1 electron functions:               6
 Number of N-2 electron functions:              21
 Number of singly external CSFs:               383
 Number of doubly external CSFs:            107206
 Total number of CSFs:                      107590

 Length of J-op  integral file:               0.00 MB
 Length of K-op  integral file:               0.54 MB
 Length of 3-ext integral record:             0.00 MB

 Memory could be reduced to 5.94 Mwords without degradation in triples

 Integral transformation finished. Total CPU:   0.20 sec, npass=  1  Memory used:   1.65 MW

 Reference energy:                   -129.84050180

 MP2 singlet pair energy:              -0.27855472
 MP2 triplet pair energy:              -0.16459226
 MP2 correlation energy:               -0.44314698
 MP2 total energy:                   -130.28364878

 SCS-MP2 correlation energy:           -0.43667863   (PS=  1.200000  PT=  0.333333)
 SCS-MP2 total energy:               -130.27718043

 ITER.      SQ.NORM     CORR.ENERGY   TOTAL ENERGY   ENERGY CHANGE        DEN1      VAR(S)    VAR(P)  DIIS     TIME  TIME/IT
   1      1.12001898    -0.44758016  -130.28808196    -0.00443318     0.01127895  0.30D-02  0.30D-02  1  1     0.43     0.24
   2      1.13093211    -0.44784174  -130.28834354    -0.00026158    -0.01223845  0.96D-04  0.50D-03  2  2     0.66     0.24
   3      1.13724241    -0.44822738  -130.28872918    -0.00038564    -0.00294534  0.51D-04  0.49D-04  3  3     0.90     0.25
   4      1.14002489    -0.44823844  -130.28874025    -0.00001107    -0.00094825  0.39D-05  0.88D-05  4  4     1.12     0.25
   5      1.14102239    -0.44826564  -130.28876744    -0.00002720    -0.00021161  0.11D-05  0.16D-05  5  5     1.35     0.25
   6      1.14135163    -0.44824976  -130.28875156     0.00001589    -0.00004000  0.97D-07  0.39D-06  6  6     1.59     0.25
   7      1.14142571    -0.44825078  -130.28875258    -0.00000102    -0.00000199  0.19D-07  0.89D-07  6  1     1.81     0.25
   8      1.14144699    -0.44825152  -130.28875332    -0.00000074     0.00000147  0.37D-08  0.16D-07  6  2     2.04     0.25
   9      1.14145221    -0.44825110  -130.28875290     0.00000042     0.00000041  0.26D-08  0.17D-08  6  4     2.27     0.25
  10      1.14145438    -0.44825157  -130.28875337    -0.00000046    -0.00000067  0.42D-09  0.20D-09  6  3     2.50     0.25
  11      1.14145386    -0.44825159  -130.28875339    -0.00000003    -0.00000006  0.14D-09  0.30D-10  6  5     2.74     0.25
  12      1.14145284    -0.44825173  -130.28875353    -0.00000014     0.00000033  0.17D-10  0.98D-11  6  6     2.99     0.25
  13      1.14145204    -0.44825177  -130.28875357    -0.00000003     0.00000021  0.59D-11  0.20D-11  6  1     3.24     0.25
  14      1.14145153    -0.44825179  -130.28875359    -0.00000003     0.00000013  0.95D-12  0.62D-12  6  2     3.48     0.25
  15      1.14145131    -0.44825180  -130.28875360    -0.00000001     0.00000003  0.26D-12  0.20D-12  6  4     3.75     0.25
  16      1.14145120    -0.44825180  -130.28875360    -0.00000000     0.00000002  0.34D-13  0.23D-13  6  5     3.98     0.25
  17      1.14145116    -0.44825180  -130.28875360    -0.00000000     0.00000000  0.63D-15  0.17D-14  6  3     4.21     0.25
  18      1.14145116    -0.44825180  -130.28875360     0.00000000    -0.00000000  0.21D-15  0.23D-15  6  6     4.45     0.25
  19      1.14145116    -0.44825180  -130.28875360     0.00000000    -0.00000000  0.61D-16  0.32D-16  6  1     4.69     0.25
  20      1.14145117    -0.44825180  -130.28875360     0.00000000    -0.00000000  0.16D-16  0.55D-17  6  2     4.92     0.25
  21      1.14145117    -0.44825180  -130.28875360     0.00000000    -0.00000000  0.28D-17  0.15D-17  6  5     5.16     0.25
  22      1.14145117    -0.44825180  -130.28875360    -0.00000000     0.00000000  0.28D-18  0.17D-18  6  4     5.41     0.25
  23      1.14145117    -0.44825180  -130.28875360     0.00000000     0.00000000  0.10D-18  0.34D-19  6  3     5.64     0.25
  24      1.14145117    -0.44825180  -130.28875360     0.00000000     0.00000000  0.10D-19  0.47D-20  6  2     5.88     0.25
  25      1.14145117    -0.44825180  -130.28875360     0.00000000    -0.00000000  0.18D-20  0.77D-21  6  6     6.10     0.25
  26      1.14145117    -0.44825180  -130.28875360     0.00000000    -0.00000000  0.41D-21  0.19D-21  6  1     6.32     0.25

 Norm of t1 vector:      0.07700490      S-energy:     0.00000000      T1 diagnostic:  0.01571856
                                                                       D1 diagnostic:  0.04094564

 Doubles amplitudes (print threshold =  0.500E-01):

         I         J         SYM. A    SYM. B    A         B      T(IJ, AB)

         6         6         2         2         1         1     -0.10512379


 Total CPU time for triples:      1.81 sec


 RESULTS
 =======

  Reference energy                   -129.840501800270
  CCSD singlet pair energy             -0.307146628476
  CCSD triplet pair energy             -0.141105175918
  CCSD correlation energy              -0.448251804392

  Triples (T) contribution             -0.020649746818
  Total correlation energy             -0.468901551210

  CCSD total energy                  -130.288753604662
  CCSD[T] energy                     -130.310432669133
  CCSD-T energy                      -130.309007920650
 !CCSD(T) total energy               -130.309403351480

 Timing summary (sec):

 STEP                 CPU(USER)    SYS     CPU(TOT)    WALL
 Transformation          0.21      0.03      0.24      0.25
 CCSD iterations         6.11      0.49      6.60      6.59
 Triples                 1.81      0.01      1.82      1.83

 Program statistics:

 Available memory in ccsd:               994999756
 Min. memory needed in ccsd:                389120
 Max. memory used in ccsd:                  473124
 Max. memory used in cckext:                599488 (26 integral passes)



 **********************************************************************************************************************************
 DATASETS  * FILE   NREC   LENGTH (MB)   RECORD NAMES
              1      20      128.20       500      610      700      900      950      970     1000      129      960     1100   
                                          VAR    BASINP    GEOM    SYMINP    ZMAT    AOBASIS   BASIS     P2S    ABASIS      S 
                                         1400     1410     1200     1210     1080     1600     1650     1300     1700     1380   
                                           T        V       H0       H01     AOSYM     SMH    MOLCAS    ERIS     OPER     JKOP   

              2       4        2.94       700     1000      520     2100   
                                         GEOM     BASIS   MCVARS     RHF  

 PROGRAMS   *        TOTAL   CCSD(T)        HF       INT
 CPU TIMES  *        10.98      8.16      1.19      1.54
 REAL TIME  *        12.55 SEC
 DISK USED  *       327.55 MB      
 **********************************************************************************************************************************

 CCSD(T)/aug-cc-pVTZ energy=   -130.309403351480

        CCSD(T)         HF-SCF  
   -130.30940335   -129.84050180
 **********************************************************************************************************************************
 Molpro calculation terminated
 Variable memory released
