
 Primary working directories    : /tmp/r2666/234925.maple
 Secondary working directories  : /tmp/r2666/234925.maple
 Wavefunction directory         : /ddn/home4/r2666/wfu/
 Main file repository           : /tmp/r2666/234925.maple/

 SHA1      : d5ffa45e93fdbca01ffc919aa182cfdae0147319
 NAME      : 2015.1.35
 ARCHNAME  : linux/x86_64
 FC        : /opt/intel/composer_xe_2015.1.133/bin/intel64/ifort
 BLASLIB   : -Wl,-_start-group /opt/intel/mkl/lib/intel64/libmkl_intel_ilp64.a /opt/intel/mkl/lib/intel64/libmkl_intel_thread.a /opt/intel/mkl/lib/intel64/libmkl_core.a -Wl,-_end-group
 id        : olemiss

 Nodes     nprocs
 cn034        1

 Using customized tuning parameters: mindgm=1; mindgv=20; mindgc=4; mindgr=1; noblas=0; minvec=7
 default implementation of scratch files=df  

 ***,hno CCSD(T)/TZ-F12 QFF
 memory, 995, m;
 gthresh,energy=1.d-12,zero=1.d-22,oneint=1.d-22,twoint=1.d-22;
 gthresh,optgrad=1.d-8,optstep=1.d-8;
 nocompress;
 geomtyp=xyz
 bohr
 geometry={
 3
         39        39
 N        0.0000000000       -0.1546592722       -1.1519403594
 H        0.0000000000        1.6634878931       -1.9324718219
 O        0.0000000000        0.0329391691        1.1338225903
 }
 
 basis=avtz
   {hf,maxit=500;accu,20;}
 {ccsd(t),nocheck,maxit=250;orbital,IGNORE_ERROR;}

 Variables initialized (889), CPU time= 0.00 sec
 Commands  initialized (702), CPU time= 0.01 sec, 572 directives.
 Default parameters read. Elapsed time= 0.05 sec

 Checking input...
 Passed
1


                                         ***  PROGRAM SYSTEM MOLPRO  ***
                                       Copyright, TTI GmbH Stuttgart, 2015
                                    Version 2015.1 linked Jul  9 2018 13:16:40


 **********************************************************************************************************************************
 LABEL *   hno CCSD(T)/TZ-F12 QFF                                                        
  64 bit serial version                                                                  DATE: 08-Feb-20          TIME: 17:56:17  
 **********************************************************************************************************************************

 SHA1:             d5ffa45e93fdbca01ffc919aa182cfdae0147319
 **********************************************************************************************************************************

 THRESHOLDS:

 ZERO    =  1.00D-22  ONEINT  =  1.00D-22  TWOINT  =  1.00D-22  PREFAC  =  1.00D-14  LOCALI  =  1.00D-09  EORDER  =  1.00D-04
 ENERGY  =  1.00D-12  ETEST   =  0.00D+00  EDENS   =  0.00D+00  THRDEDEF=  1.00D-06  GRADIENT=  1.00D-02  STEP    =  1.00D-03
 ORBITAL =  1.00D-05  CIVEC   =  1.00D-05  COEFF   =  1.00D-04  PRINTCI =  5.00D-02  PUNCHCI =  9.90D+01  OPTGRAD =  3.00D-04
 OPTENERG=  1.00D-06  OPTSTEP =  3.00D-04  THRGRAD =  1.00D-10  COMPRESS=  1.00D-11  VARMIN  =  1.00D-07  VARMAX  =  1.00D-03
 THRDOUB =  0.00D+00  THRDIV  =  1.00D-05  THRRED  =  1.00D-07  THRPSP  =  1.00D+00  THRDC   =  1.00D-10  THRCS   =  1.00D-10
 THRNRM  =  1.00D-08  THREQ   =  0.00D+00  THRDE   =  1.00D+00  THRREF  =  1.00D-05  SPARFAC =  1.00D+00  THRDLP  =  1.00D-07
 THRDIA  =  1.00D-10  THRDLS  =  1.00D-07  THRGPS  =  0.00D+00  THRKEX  =  0.00D+00  THRDIS  =  2.00D-01  THRVAR  =  1.00D-10
 THRLOC  =  1.00D-06  THRGAP  =  1.00D-06  THRLOCT = -1.00D+00  THRGAPT = -1.00D+00  THRORB  =  1.00D-06  THRMLTP =  0.00D+00
 THRCPQCI=  1.00D-10  KEXTA   =  0.00D+00  THRCOARS=  0.00D+00  SYMTOL  =  1.00D-06  GRADTOL =  1.00D-06  THROVL  =  1.00D-08
 THRORTH =  1.00D-08  GRID    =  1.00D-06  GRIDMAX =  1.00D-03  DTMAX   =  0.00D+00  THROCCDE=  1.00D-01  THROCCDE=  1.00D-01



 THRESHOLDS:

 ZERO    =  1.00D-22  ONEINT  =  1.00D-22  TWOINT  =  1.00D-22  PREFAC  =  1.00D-14  LOCALI  =  1.00D-09  EORDER  =  1.00D-04
 ENERGY  =  1.00D-12  ETEST   =  0.00D+00  EDENS   =  0.00D+00  THRDEDEF=  1.00D-06  GRADIENT=  1.00D-02  STEP    =  1.00D-03
 ORBITAL =  1.00D-05  CIVEC   =  1.00D-05  COEFF   =  1.00D-04  PRINTCI =  5.00D-02  PUNCHCI =  9.90D+01  OPTGRAD =  1.00D-08
 OPTENERG=  1.00D-06  OPTSTEP =  1.00D-08  THRGRAD =  1.00D-10  COMPRESS=  1.00D-11  VARMIN  =  1.00D-07  VARMAX  =  1.00D-03
 THRDOUB =  0.00D+00  THRDIV  =  1.00D-05  THRRED  =  1.00D-07  THRPSP  =  1.00D+00  THRDC   =  1.00D-10  THRCS   =  1.00D-10
 THRNRM  =  1.00D-08  THREQ   =  0.00D+00  THRDE   =  1.00D+00  THRREF  =  1.00D-05  SPARFAC =  1.00D+00  THRDLP  =  1.00D-07
 THRDIA  =  1.00D-10  THRDLS  =  1.00D-07  THRGPS  =  0.00D+00  THRKEX  =  0.00D+00  THRDIS  =  2.00D-01  THRVAR  =  1.00D-10
 THRLOC  =  1.00D-06  THRGAP  =  1.00D-06  THRLOCT = -1.00D+00  THRGAPT = -1.00D+00  THRORB  =  1.00D-06  THRMLTP =  0.00D+00
 THRCPQCI=  1.00D-10  KEXTA   =  0.00D+00  THRCOARS=  0.00D+00  SYMTOL  =  1.00D-06  GRADTOL =  1.00D-06  THROVL  =  1.00D-08
 THRORTH =  1.00D-08  GRID    =  1.00D-06  GRIDMAX =  1.00D-03  DTMAX   =  0.00D+00  THROCCDE=  1.00D-01  THROCCDE=  1.00D-01



 Input parameters for SORTINT:

 COMPRESS =    0.000000
 C_FINAL  =    1.000000
 DEBUG    =   -1.000000
 C_SORT1  =    0.000000
 C_SEWARD =    0.000000
 THRESH   =    0.000000
 IO       =  molpro                                                          
 SPRI     =    0.000000
 SETTING GEOMTYP        =    XYZ
 ZUNIT=BOHR
 

 Variable memory set to  995000000 words,  buffer space   230000 words

 SETTING BASIS          =    AVTZ


 Recomputing integrals since basis changed


 Using spherical harmonics

 Library entry N      S aug-cc-pVTZ          selected for orbital group  1
 Library entry N      P aug-cc-pVTZ          selected for orbital group  1
 Library entry N      D aug-cc-pVTZ          selected for orbital group  1
 Library entry N      F aug-cc-pVTZ          selected for orbital group  1
 Library entry H      S aug-cc-pVTZ          selected for orbital group  2
 Library entry H      P aug-cc-pVTZ          selected for orbital group  2
 Library entry H      D aug-cc-pVTZ          selected for orbital group  2
 Library entry O      S aug-cc-pVTZ          selected for orbital group  3
 Library entry O      P aug-cc-pVTZ          selected for orbital group  3
 Library entry O      D aug-cc-pVTZ          selected for orbital group  3
 Library entry O      F aug-cc-pVTZ          selected for orbital group  3


 PROGRAM * SEWARD (Integral evaluation for generally contracted gaussian basis sets)     Author: Roland Lindh, 1990

 Geometry written to block  1 of record 700


 Point group  Cs  



 ATOMIC COORDINATES

 NR  ATOM    CHARGE       X              Y              Z

   1  N       7.00    0.000000000   -0.154659272   -1.151940359
   2  H       1.00    0.000000000    1.663487893   -1.932471822
   3  O       8.00    0.000000000    0.032939169    1.133822590

 Bond lengths in Bohr (Angstrom)

 1-2  1.978607712  1-3  2.293448373
     ( 1.047034111)     ( 1.213640613)

 Bond angles

  2-1-3  108.54197524

 NUCLEAR CHARGE:                   16
 NUMBER OF PRIMITIVE AOS:         161
 NUMBER OF SYMMETRY AOS:          141
 NUMBER OF CONTRACTIONS:          115   (  76A'  +  39A"  )
 NUMBER OF CORE ORBITALS:           2   (   2A'  +   0A"  )
 NUMBER OF VALENCE ORBITALS:        9   (   7A'  +   2A"  )


 NUCLEAR REPULSION ENERGY   30.25878898

 Eigenvalues of metric

         1 0.233E-03 0.498E-03 0.182E-02 0.213E-02 0.257E-02 0.366E-02 0.431E-02 0.512E-02
         2 0.401E-02 0.100E-01 0.264E-01 0.370E-01 0.512E-01 0.620E-01 0.821E-01 0.120E+00


 Contracted 2-electron integrals neglected if value below      1.0D-22

       10790064. INTEGRALS WRITTEN OUT IN    2635 BLOCKS ON RECORD 1290 OF FILE 1


 NUMBER OF SORTED TWO-ELECTRON INTEGRALS:   11433631.     BUFFER LENGTH:  32768
 NUMBER OF SEGMENTS:   1  SEGMENT LENGTH:   11433631      RECORD LENGTH: 524288

 Memory used in sort:      11.99 MW

 SORT1 READ    10790064. AND WROTE    10943632. INTEGRALS IN     32 RECORDS. CPU TIME:     0.26 SEC, REAL TIME:     0.36 SEC
 SORT2 READ    10943632. AND WROTE    11433631. INTEGRALS IN      1 RECORDS. CPU TIME:     0.19 SEC, REAL TIME:     0.26 SEC

 FILE SIZES:   FILE 1:   193.0 MBYTE,  FILE 4:   134.3 MBYTE,   TOTAL:    327.2 MBYTE

 OPERATOR DM      FOR CENTER  0  COORDINATES:    0.000000    0.000000    0.000000


 **********************************************************************************************************************************
 DATASETS  * FILE   NREC   LENGTH (MB)   RECORD NAMES
              1      19      111.05       500      610      700      900      950      970     1000      129      960     1100   
                                          VAR    BASINP    GEOM    SYMINP    ZMAT    AOBASIS   BASIS     P2S    ABASIS      S 
                                         1400     1410     1200     1210     1080     1600     1650     1300     1700   
                                           T        V       H0       H01     AOSYM     SMH    MOLCAS    ERIS     OPER   

 PROGRAMS   *        TOTAL       INT
 CPU TIMES  *         1.63      1.53
 REAL TIME  *         2.41 SEC
 DISK USED  *       327.55 MB      
 **********************************************************************************************************************************


 PROGRAM * RHF-SCF (CLOSED SHELL)       Authors: W. Meyer, H.-J. Werner


 NUMBER OF ELECTRONS:       8+    8-
 CONVERGENCE THRESHOLDS:    1.00E-10 (Density)    1.00E-13 (Energy)
 MAX. NUMBER OF ITERATIONS:      500
 INTERPOLATION TYPE:            DIIS
 INTERPOLATION STEPS:              2 (START)      1 (STEP)
 LEVEL SHIFTS:                  0.00 (CLOSED)  0.00 (OPEN) 



 Orbital guess generated from atomic densities. Full valence occupancy:    9   2

 Molecular orbital dump at record        2100.2

 Initial occupancy:   7   1

 ITERATION    DDIFF          GRAD             ENERGY        2-EL.EN.            DIPOLE MOMENTS         DIIS   ORB.
    1      0.000D+00      0.000D+00      -129.78715592    153.700419    0.00000    0.60078   -1.03946    0    start
    2      0.000D+00      0.108D-01      -129.81443364    154.953302    0.00000    0.61445   -0.21060    1    diag
    3      0.120D-01      0.833D-02      -129.83774309    155.078798    0.00000    0.56290   -0.60296    2    diag
    4      0.599D-02      0.129D-02      -129.83854671    154.786512    0.00000    0.57007   -0.54202    3    diag
    5      0.108D-02      0.423D-03      -129.83867372    154.880702    0.00000    0.57562   -0.54474    4    diag
    6      0.453D-03      0.122D-03      -129.83869391    154.865132    0.00000    0.57597   -0.54057    5    diag
    7      0.172D-03      0.607D-04      -129.83869980    154.867563    0.00000    0.57719   -0.53793    6    diag
    8      0.120D-03      0.210D-04      -129.83870047    154.866895    0.00000    0.57721   -0.53690    7    diag
    9      0.461D-04      0.400D-05      -129.83870050    154.866784    0.00000    0.57717   -0.53667    8    diag
   10      0.896D-05      0.903D-06      -129.83870050    154.866765    0.00000    0.57714   -0.53665    9    orth
   11      0.178D-05      0.178D-06      -129.83870050    154.866762    0.00000    0.57713   -0.53664    9    diag
   12      0.336D-06      0.368D-07      -129.83870050    154.866762    0.00000    0.57713   -0.53664    9    diag
   13      0.718D-07      0.941D-08      -129.83870050    154.866762    0.00000    0.57713   -0.53664    9    diag
   14      0.190D-07      0.194D-08      -129.83870050    154.866762    0.00000    0.57713   -0.53664    9    diag
   15      0.369D-08      0.534D-09      -129.83870050    154.866762    0.00000    0.57713   -0.53664    9    diag
   16      0.101D-08      0.141D-09      -129.83870050    154.866762    0.00000    0.57713   -0.53664    9    diag
   17      0.170D-09      0.380D-10      -129.83870050    154.866762    0.00000    0.57713   -0.53664    9    diag
   18      0.450D-10      0.132D-10      -129.83870050    154.866762    0.00000    0.57713   -0.53664    0    orth

 Final occupancy:   7   1

 !RHF STATE 1.1 Energy               -129.838700497226
 Nuclear energy                        30.25878898
 One-electron energy                 -237.53087034
 Two-electron energy                   77.43338086
 Virial quotient                       -1.00227634
 !RHF STATE 1.1 Dipole moment           0.00000000     0.57713054    -0.53664224
 Dipole moment /Debye                   0.00000000     1.46682343    -1.36391918

 Orbital energies:

         1.1          2.1          3.1          4.1          5.1          6.1          7.1          8.1          9.1
    -20.657110   -15.714710    -1.526035    -0.997864    -0.746123    -0.664540    -0.432240     0.029076     0.092128

         1.2          2.2          3.2
     -0.593431     0.063229     0.129947

 HOMO      7.1    -0.432240 =     -11.7619eV
 LUMO      8.1     0.029076 =       0.7912eV
 LUMO-HOMO         0.461317 =      12.5531eV


 **********************************************************************************************************************************
 DATASETS  * FILE   NREC   LENGTH (MB)   RECORD NAMES
              1      19      111.05       500      610      700      900      950      970     1000      129      960     1100   
                                          VAR    BASINP    GEOM    SYMINP    ZMAT    AOBASIS   BASIS     P2S    ABASIS      S 
                                         1400     1410     1200     1210     1080     1600     1650     1300     1700   
                                           T        V       H0       H01     AOSYM     SMH    MOLCAS    ERIS     OPER   

              2       4        2.94       700     1000      520     2100   
                                         GEOM     BASIS   MCVARS     RHF  

 PROGRAMS   *        TOTAL        HF       INT
 CPU TIMES  *         2.71      1.08      1.53
 REAL TIME  *         3.79 SEC
 DISK USED  *       327.55 MB      
 **********************************************************************************************************************************


 PROGRAM * CCSD (Closed-shell coupled cluster)     Authors: C. Hampel, H.-J. Werner, 1991, M. Deegan, P.J. Knowles, 1992


 Convergence thresholds:  THRVAR = 1.00D-08  THRDEN = 1.00D-12

 CCSD(T)     terms to be evaluated (factor= 1.000)


 Number of core orbitals:           2 (   2   0 )
 Number of closed-shell orbitals:   6 (   5   1 )
 Number of external orbitals:     107 (  69  38 )

 Molecular orbitals read from record     2100.2  Type=RHF/CANONICAL (state 1.1)

 Number of N-1 electron functions:               6
 Number of N-2 electron functions:              21
 Number of singly external CSFs:               383
 Number of doubly external CSFs:            107206
 Total number of CSFs:                      107590

 Length of J-op  integral file:               0.00 MB
 Length of K-op  integral file:               0.54 MB
 Length of 3-ext integral record:             0.00 MB

 Memory could be reduced to 5.94 Mwords without degradation in triples

 Integral transformation finished. Total CPU:   0.21 sec, npass=  1  Memory used:   1.65 MW

 Reference energy:                   -129.83870050

 MP2 singlet pair energy:              -0.27992401
 MP2 triplet pair energy:              -0.16551786
 MP2 correlation energy:               -0.44544187
 MP2 total energy:                   -130.28414236

 SCS-MP2 correlation energy:           -0.43889770   (PS=  1.200000  PT=  0.333333)
 SCS-MP2 total energy:               -130.27759820

 ITER.      SQ.NORM     CORR.ENERGY   TOTAL ENERGY   ENERGY CHANGE        DEN1      VAR(S)    VAR(P)  DIIS     TIME  TIME/IT
   1      1.12141309    -0.44934318  -130.28804368    -0.00390132     0.01237010  0.32D-02  0.32D-02  1  1     0.41     0.21
   2      1.13265448    -0.44949709  -130.28819759    -0.00015390    -0.01256208  0.10D-03  0.52D-03  2  2     0.61     0.22
   3      1.13925051    -0.44990496  -130.28860546    -0.00040787    -0.00303183  0.55D-04  0.52D-04  3  3     0.81     0.22
   4      1.14220727    -0.44991725  -130.28861774    -0.00001229    -0.00099386  0.43D-05  0.95D-05  4  4     1.01     0.22
   5      1.14329349    -0.44994693  -130.28864743    -0.00002969    -0.00022934  0.11D-05  0.17D-05  5  5     1.22     0.22
   6      1.14364563    -0.44992924  -130.28862974     0.00001769    -0.00004315  0.98D-07  0.41D-06  6  6     1.43     0.22
   7      1.14372051    -0.44993062  -130.28863111    -0.00000137    -0.00000155  0.18D-07  0.96D-07  6  1     1.61     0.23
   8      1.14374203    -0.44993128  -130.28863177    -0.00000066     0.00000160  0.36D-08  0.18D-07  6  2     1.83     0.23
   9      1.14374741    -0.44993082  -130.28863132     0.00000045     0.00000045  0.29D-08  0.20D-08  6  4     2.02     0.23
  10      1.14374983    -0.44993131  -130.28863181    -0.00000049    -0.00000075  0.48D-09  0.24D-09  6  3     2.23     0.23
  11      1.14374935    -0.44993134  -130.28863183    -0.00000002    -0.00000009  0.17D-09  0.36D-10  6  5     2.43     0.23
  12      1.14374826    -0.44993150  -130.28863199    -0.00000016     0.00000035  0.19D-10  0.11D-10  6  6     2.64     0.23
  13      1.14374738    -0.44993153  -130.28863203    -0.00000004     0.00000022  0.65D-11  0.24D-11  6  1     2.84     0.23
  14      1.14374681    -0.44993156  -130.28863206    -0.00000003     0.00000015  0.98D-12  0.76D-12  6  2     3.04     0.23
  15      1.14374656    -0.44993157  -130.28863207    -0.00000001     0.00000004  0.27D-12  0.24D-12  6  4     3.25     0.23
  16      1.14374646    -0.44993157  -130.28863207    -0.00000000     0.00000001  0.51D-13  0.85D-13  6  3     3.45     0.23
  17      1.14374640    -0.44993158  -130.28863207    -0.00000000     0.00000001  0.40D-14  0.20D-13  6  5     3.66     0.23
  18      1.14374639    -0.44993158  -130.28863207     0.00000000    -0.00000000  0.15D-14  0.42D-14  6  6     3.86     0.23
  19      1.14374639    -0.44993158  -130.28863207    -0.00000000     0.00000000  0.12D-14  0.74D-15  6  1     4.07     0.23
  20      1.14374639    -0.44993158  -130.28863207     0.00000000    -0.00000000  0.24D-15  0.13D-15  6  2     4.27     0.23
  21      1.14374639    -0.44993158  -130.28863207     0.00000000    -0.00000000  0.61D-16  0.32D-16  6  3     4.47     0.23
  22      1.14374639    -0.44993158  -130.28863207     0.00000000     0.00000000  0.67D-17  0.29D-17  6  4     4.66     0.23
  23      1.14374639    -0.44993158  -130.28863207     0.00000000    -0.00000000  0.24D-17  0.61D-18  6  5     4.86     0.23
  24      1.14374639    -0.44993158  -130.28863207     0.00000000     0.00000000  0.17D-18  0.53D-19  6  2     5.08     0.23
  25      1.14374639    -0.44993158  -130.28863207    -0.00000000    -0.00000000  0.26D-19  0.14D-19  6  6     5.28     0.23
  26      1.14374639    -0.44993158  -130.28863207     0.00000000    -0.00000000  0.39D-20  0.25D-20  6  1     5.50     0.23
  27      1.14374639    -0.44993158  -130.28863207    -0.00000000    -0.00000000  0.52D-21  0.60D-21  6  4     5.69     0.23

 Norm of t1 vector:      0.07926843      S-energy:     0.00000000      T1 diagnostic:  0.01618060
                                                                       D1 diagnostic:  0.04288289

 Doubles amplitudes (print threshold =  0.500E-01):

         I         J         SYM. A    SYM. B    A         B      T(IJ, AB)

         6         6         2         2         1         1     -0.11147833


 Total CPU time for triples:      1.68 sec


 RESULTS
 =======

  Reference energy                   -129.838700497226
  CCSD singlet pair energy             -0.308595774023
  CCSD triplet pair energy             -0.141335801101
  CCSD correlation energy              -0.449931575123

  Triples (T) contribution             -0.021061806040
  Total correlation energy             -0.470993381163

  CCSD total energy                  -130.288632072349
  CCSD[T] energy                     -130.310782445823
  CCSD-T energy                      -130.309285055263
 !CCSD(T) total energy               -130.309693878389

 Timing summary (sec):

 STEP                 CPU(USER)    SYS     CPU(TOT)    WALL
 Transformation          0.21      0.02      0.23      0.25
 CCSD iterations         5.48      0.69      6.17      6.17
 Triples                 1.68      0.03      1.71      1.71

 Program statistics:

 Available memory in ccsd:               994999756
 Min. memory needed in ccsd:                389120
 Max. memory used in ccsd:                  473124
 Max. memory used in cckext:                599488 (27 integral passes)



 **********************************************************************************************************************************
 DATASETS  * FILE   NREC   LENGTH (MB)   RECORD NAMES
              1      20      128.20       500      610      700      900      950      970     1000      129      960     1100   
                                          VAR    BASINP    GEOM    SYMINP    ZMAT    AOBASIS   BASIS     P2S    ABASIS      S 
                                         1400     1410     1200     1210     1080     1600     1650     1300     1700     1380   
                                           T        V       H0       H01     AOSYM     SMH    MOLCAS    ERIS     OPER     JKOP   

              2       4        2.94       700     1000      520     2100   
                                         GEOM     BASIS   MCVARS     RHF  

 PROGRAMS   *        TOTAL   CCSD(T)        HF       INT
 CPU TIMES  *        10.10      7.39      1.08      1.53
 REAL TIME  *        11.96 SEC
 DISK USED  *       327.55 MB      
 **********************************************************************************************************************************

 CCSD(T)/aug-cc-pVTZ energy=   -130.309693878389

        CCSD(T)         HF-SCF  
   -130.30969388   -129.83870050
 **********************************************************************************************************************************
 Molpro calculation terminated
 Variable memory released
