
 Primary working directories    : /tmp/r2666/234941.maple
 Secondary working directories  : /tmp/r2666/234941.maple
 Wavefunction directory         : /ddn/home4/r2666/wfu/
 Main file repository           : /tmp/r2666/234941.maple/

 SHA1      : d5ffa45e93fdbca01ffc919aa182cfdae0147319
 NAME      : 2015.1.35
 ARCHNAME  : linux/x86_64
 FC        : /opt/intel/composer_xe_2015.1.133/bin/intel64/ifort
 BLASLIB   : -Wl,-_start-group /opt/intel/mkl/lib/intel64/libmkl_intel_ilp64.a /opt/intel/mkl/lib/intel64/libmkl_intel_thread.a /opt/intel/mkl/lib/intel64/libmkl_core.a -Wl,-_end-group
 id        : olemiss

 Nodes     nprocs
 cn076        1

 Using customized tuning parameters: mindgm=1; mindgv=20; mindgc=4; mindgr=1; noblas=0; minvec=7
 default implementation of scratch files=df  

 ***,hno CCSD(T)/TZ-F12 QFF
 memory, 995, m;
 gthresh,energy=1.d-12,zero=1.d-22,oneint=1.d-22,twoint=1.d-22;
 gthresh,optgrad=1.d-8,optstep=1.d-8;
 nocompress;
 geomtyp=xyz
 bohr
 geometry={
 3
         55        55
 N        0.0000000000       -0.1535827539       -1.1282687689
 H        0.0000000000        1.6644012989       -1.9328195771
 O        0.0000000000        0.0309492450        1.1104987550
 }
 
 basis=avtz
   {hf,maxit=500;accu,20;}
 {ccsd(t),nocheck,maxit=250;orbital,IGNORE_ERROR;}

 Variables initialized (889), CPU time= 0.01 sec
 Commands  initialized (702), CPU time= 0.01 sec, 572 directives.
 Default parameters read. Elapsed time= 0.04 sec

 Checking input...
 Passed
1


                                         ***  PROGRAM SYSTEM MOLPRO  ***
                                       Copyright, TTI GmbH Stuttgart, 2015
                                    Version 2015.1 linked Jul  9 2018 13:16:40


 **********************************************************************************************************************************
 LABEL *   hno CCSD(T)/TZ-F12 QFF                                                        
  64 bit serial version                                                                  DATE: 08-Feb-20          TIME: 17:56:26  
 **********************************************************************************************************************************

 SHA1:             d5ffa45e93fdbca01ffc919aa182cfdae0147319
 **********************************************************************************************************************************

 THRESHOLDS:

 ZERO    =  1.00D-22  ONEINT  =  1.00D-22  TWOINT  =  1.00D-22  PREFAC  =  1.00D-14  LOCALI  =  1.00D-09  EORDER  =  1.00D-04
 ENERGY  =  1.00D-12  ETEST   =  0.00D+00  EDENS   =  0.00D+00  THRDEDEF=  1.00D-06  GRADIENT=  1.00D-02  STEP    =  1.00D-03
 ORBITAL =  1.00D-05  CIVEC   =  1.00D-05  COEFF   =  1.00D-04  PRINTCI =  5.00D-02  PUNCHCI =  9.90D+01  OPTGRAD =  3.00D-04
 OPTENERG=  1.00D-06  OPTSTEP =  3.00D-04  THRGRAD =  1.00D-10  COMPRESS=  1.00D-11  VARMIN  =  1.00D-07  VARMAX  =  1.00D-03
 THRDOUB =  0.00D+00  THRDIV  =  1.00D-05  THRRED  =  1.00D-07  THRPSP  =  1.00D+00  THRDC   =  1.00D-10  THRCS   =  1.00D-10
 THRNRM  =  1.00D-08  THREQ   =  0.00D+00  THRDE   =  1.00D+00  THRREF  =  1.00D-05  SPARFAC =  1.00D+00  THRDLP  =  1.00D-07
 THRDIA  =  1.00D-10  THRDLS  =  1.00D-07  THRGPS  =  0.00D+00  THRKEX  =  0.00D+00  THRDIS  =  2.00D-01  THRVAR  =  1.00D-10
 THRLOC  =  1.00D-06  THRGAP  =  1.00D-06  THRLOCT = -1.00D+00  THRGAPT = -1.00D+00  THRORB  =  1.00D-06  THRMLTP =  0.00D+00
 THRCPQCI=  1.00D-10  KEXTA   =  0.00D+00  THRCOARS=  0.00D+00  SYMTOL  =  1.00D-06  GRADTOL =  1.00D-06  THROVL  =  1.00D-08
 THRORTH =  1.00D-08  GRID    =  1.00D-06  GRIDMAX =  1.00D-03  DTMAX   =  0.00D+00  THROCCDE=  1.00D-01  THROCCDE=  1.00D-01



 THRESHOLDS:

 ZERO    =  1.00D-22  ONEINT  =  1.00D-22  TWOINT  =  1.00D-22  PREFAC  =  1.00D-14  LOCALI  =  1.00D-09  EORDER  =  1.00D-04
 ENERGY  =  1.00D-12  ETEST   =  0.00D+00  EDENS   =  0.00D+00  THRDEDEF=  1.00D-06  GRADIENT=  1.00D-02  STEP    =  1.00D-03
 ORBITAL =  1.00D-05  CIVEC   =  1.00D-05  COEFF   =  1.00D-04  PRINTCI =  5.00D-02  PUNCHCI =  9.90D+01  OPTGRAD =  1.00D-08
 OPTENERG=  1.00D-06  OPTSTEP =  1.00D-08  THRGRAD =  1.00D-10  COMPRESS=  1.00D-11  VARMIN  =  1.00D-07  VARMAX  =  1.00D-03
 THRDOUB =  0.00D+00  THRDIV  =  1.00D-05  THRRED  =  1.00D-07  THRPSP  =  1.00D+00  THRDC   =  1.00D-10  THRCS   =  1.00D-10
 THRNRM  =  1.00D-08  THREQ   =  0.00D+00  THRDE   =  1.00D+00  THRREF  =  1.00D-05  SPARFAC =  1.00D+00  THRDLP  =  1.00D-07
 THRDIA  =  1.00D-10  THRDLS  =  1.00D-07  THRGPS  =  0.00D+00  THRKEX  =  0.00D+00  THRDIS  =  2.00D-01  THRVAR  =  1.00D-10
 THRLOC  =  1.00D-06  THRGAP  =  1.00D-06  THRLOCT = -1.00D+00  THRGAPT = -1.00D+00  THRORB  =  1.00D-06  THRMLTP =  0.00D+00
 THRCPQCI=  1.00D-10  KEXTA   =  0.00D+00  THRCOARS=  0.00D+00  SYMTOL  =  1.00D-06  GRADTOL =  1.00D-06  THROVL  =  1.00D-08
 THRORTH =  1.00D-08  GRID    =  1.00D-06  GRIDMAX =  1.00D-03  DTMAX   =  0.00D+00  THROCCDE=  1.00D-01  THROCCDE=  1.00D-01



 Input parameters for SORTINT:

 COMPRESS =    0.000000
 C_FINAL  =    1.000000
 DEBUG    =   -1.000000
 C_SORT1  =    0.000000
 C_SEWARD =    0.000000
 THRESH   =    0.000000
 IO       =  molpro                                                          
 SPRI     =    0.000000
 SETTING GEOMTYP        =    XYZ
 ZUNIT=BOHR
 

 Variable memory set to  995000000 words,  buffer space   230000 words

 SETTING BASIS          =    AVTZ


 Recomputing integrals since basis changed


 Using spherical harmonics

 Library entry N      S aug-cc-pVTZ          selected for orbital group  1
 Library entry N      P aug-cc-pVTZ          selected for orbital group  1
 Library entry N      D aug-cc-pVTZ          selected for orbital group  1
 Library entry N      F aug-cc-pVTZ          selected for orbital group  1
 Library entry H      S aug-cc-pVTZ          selected for orbital group  2
 Library entry H      P aug-cc-pVTZ          selected for orbital group  2
 Library entry H      D aug-cc-pVTZ          selected for orbital group  2
 Library entry O      S aug-cc-pVTZ          selected for orbital group  3
 Library entry O      P aug-cc-pVTZ          selected for orbital group  3
 Library entry O      D aug-cc-pVTZ          selected for orbital group  3
 Library entry O      F aug-cc-pVTZ          selected for orbital group  3


 PROGRAM * SEWARD (Integral evaluation for generally contracted gaussian basis sets)     Author: Roland Lindh, 1990

 Geometry written to block  1 of record 700


 Point group  Cs  



 ATOMIC COORDINATES

 NR  ATOM    CHARGE       X              Y              Z

   1  N       7.00    0.000000000   -0.153582754   -1.128268769
   2  H       1.00    0.000000000    1.664401299   -1.932819577
   3  O       8.00    0.000000000    0.030949245    1.110498755

 Bond lengths in Bohr (Angstrom)

 1-2  1.988056342  1-3  2.246359741
     ( 1.052034110)     ( 1.188722382)

 Bond angles

  2-1-3  109.15984414

 NUCLEAR CHARGE:                   16
 NUMBER OF PRIMITIVE AOS:         161
 NUMBER OF SYMMETRY AOS:          141
 NUMBER OF CONTRACTIONS:          115   (  76A'  +  39A"  )
 NUMBER OF CORE ORBITALS:           2   (   2A'  +   0A"  )
 NUMBER OF VALENCE ORBITALS:        9   (   7A'  +   2A"  )


 NUCLEAR REPULSION ENERGY   30.76641977

 Eigenvalues of metric

         1 0.226E-03 0.487E-03 0.177E-02 0.207E-02 0.237E-02 0.329E-02 0.428E-02 0.502E-02
         2 0.373E-02 0.998E-02 0.253E-01 0.365E-01 0.504E-01 0.617E-01 0.780E-01 0.118E+00


 Contracted 2-electron integrals neglected if value below      1.0D-22

       10790064. INTEGRALS WRITTEN OUT IN    2635 BLOCKS ON RECORD 1290 OF FILE 1


 NUMBER OF SORTED TWO-ELECTRON INTEGRALS:   11433631.     BUFFER LENGTH:  32768
 NUMBER OF SEGMENTS:   1  SEGMENT LENGTH:   11433631      RECORD LENGTH: 524288

 Memory used in sort:      11.99 MW

 SORT1 READ    10790064. AND WROTE    10943632. INTEGRALS IN     32 RECORDS. CPU TIME:     0.16 SEC, REAL TIME:     0.22 SEC
 SORT2 READ    10943632. AND WROTE    11433631. INTEGRALS IN      1 RECORDS. CPU TIME:     0.17 SEC, REAL TIME:     0.22 SEC

 FILE SIZES:   FILE 1:   193.0 MBYTE,  FILE 4:   134.3 MBYTE,   TOTAL:    327.2 MBYTE

 OPERATOR DM      FOR CENTER  0  COORDINATES:    0.000000    0.000000    0.000000


 **********************************************************************************************************************************
 DATASETS  * FILE   NREC   LENGTH (MB)   RECORD NAMES
              1      19      111.05       500      610      700      900      950      970     1000      129      960     1100   
                                          VAR    BASINP    GEOM    SYMINP    ZMAT    AOBASIS   BASIS     P2S    ABASIS      S 
                                         1400     1410     1200     1210     1080     1600     1650     1300     1700   
                                           T        V       H0       H01     AOSYM     SMH    MOLCAS    ERIS     OPER   

 PROGRAMS   *        TOTAL       INT
 CPU TIMES  *         1.24      1.15
 REAL TIME  *         2.08 SEC
 DISK USED  *       327.55 MB      
 **********************************************************************************************************************************


 PROGRAM * RHF-SCF (CLOSED SHELL)       Authors: W. Meyer, H.-J. Werner


 NUMBER OF ELECTRONS:       8+    8-
 CONVERGENCE THRESHOLDS:    1.00E-10 (Density)    1.00E-13 (Energy)
 MAX. NUMBER OF ITERATIONS:      500
 INTERPOLATION TYPE:            DIIS
 INTERPOLATION STEPS:              2 (START)      1 (STEP)
 LEVEL SHIFTS:                  0.00 (CLOSED)  0.00 (OPEN) 



 Orbital guess generated from atomic densities. Full valence occupancy:    9   2

 Molecular orbital dump at record        2100.2

 Initial occupancy:   7   1

 ITERATION    DDIFF          GRAD             ENERGY        2-EL.EN.            DIPOLE MOMENTS         DIIS   ORB.
    1      0.000D+00      0.000D+00      -129.79322428    154.601840    0.00000    0.59093   -0.96107    0    start
    2      0.000D+00      0.105D-01      -129.82110761    155.911047    0.00000    0.59791   -0.22034    1    diag
    3      0.114D-01      0.769D-02      -129.84069826    155.978646    0.00000    0.55154   -0.56685    2    diag
    4      0.560D-02      0.125D-02      -129.84144908    155.705269    0.00000    0.55901   -0.50993    3    diag
    5      0.105D-02      0.408D-03      -129.84156678    155.797786    0.00000    0.56468   -0.51319    4    diag
    6      0.434D-03      0.117D-03      -129.84158540    155.782526    0.00000    0.56518   -0.50948    5    diag
    7      0.166D-03      0.571D-04      -129.84159048    155.785213    0.00000    0.56649   -0.50722    6    diag
    8      0.112D-03      0.183D-04      -129.84159095    155.784627    0.00000    0.56653   -0.50637    7    diag
    9      0.383D-04      0.341D-05      -129.84159097    155.784533    0.00000    0.56649   -0.50618    8    diag
   10      0.712D-05      0.814D-06      -129.84159097    155.784514    0.00000    0.56646   -0.50615    9    orth
   11      0.160D-05      0.167D-06      -129.84159097    155.784511    0.00000    0.56645   -0.50615    9    diag
   12      0.326D-06      0.335D-07      -129.84159097    155.784510    0.00000    0.56645   -0.50614    9    diag
   13      0.704D-07      0.816D-08      -129.84159097    155.784510    0.00000    0.56645   -0.50614    9    diag
   14      0.176D-07      0.175D-08      -129.84159097    155.784510    0.00000    0.56645   -0.50614    9    diag
   15      0.370D-08      0.508D-09      -129.84159097    155.784510    0.00000    0.56645   -0.50614    9    diag
   16      0.100D-08      0.148D-09      -129.84159097    155.784510    0.00000    0.56645   -0.50614    9    diag
   17      0.196D-09      0.430D-10      -129.84159097    155.784510    0.00000    0.56645   -0.50614    9    diag
   18      0.564D-10      0.149D-10      -129.84159097    155.784510    0.00000    0.56645   -0.50614    9    diag
   19      0.267D-10      0.340D-11      -129.84159097    155.784510    0.00000    0.56645   -0.50614    9    fixocc
   20      0.623D-11      0.520D-12      -129.84159097    155.784510    0.00000    0.56645   -0.50614    0    orth

 Final occupancy:   7   1

 !RHF STATE 1.1 Energy               -129.841590972856
 Nuclear energy                        30.76641977
 One-electron energy                 -238.50026585
 Two-electron energy                   77.89225511
 Virial quotient                       -1.00157248
 !RHF STATE 1.1 Dipole moment           0.00000000     0.56645250    -0.50614328
 Dipole moment /Debye                   0.00000000     1.43968433    -1.28640364

 Orbital energies:

         1.1          2.1          3.1          4.1          5.1          6.1          7.1          8.1          9.1
    -20.654953   -15.710987    -1.546382    -0.991165    -0.753233    -0.671925    -0.423764     0.029378     0.092178

         1.2          2.2          3.2
     -0.605469     0.070002     0.130756

 HOMO      7.1    -0.423764 =     -11.5312eV
 LUMO      8.1     0.029378 =       0.7994eV
 LUMO-HOMO         0.453142 =      12.3306eV


 **********************************************************************************************************************************
 DATASETS  * FILE   NREC   LENGTH (MB)   RECORD NAMES
              1      19      111.05       500      610      700      900      950      970     1000      129      960     1100   
                                          VAR    BASINP    GEOM    SYMINP    ZMAT    AOBASIS   BASIS     P2S    ABASIS      S 
                                         1400     1410     1200     1210     1080     1600     1650     1300     1700   
                                           T        V       H0       H01     AOSYM     SMH    MOLCAS    ERIS     OPER   

              2       4        2.94       700     1000      520     2100   
                                         GEOM     BASIS   MCVARS     RHF  

 PROGRAMS   *        TOTAL        HF       INT
 CPU TIMES  *         2.25      1.01      1.15
 REAL TIME  *         3.36 SEC
 DISK USED  *       327.55 MB      
 **********************************************************************************************************************************


 PROGRAM * CCSD (Closed-shell coupled cluster)     Authors: C. Hampel, H.-J. Werner, 1991, M. Deegan, P.J. Knowles, 1992


 Convergence thresholds:  THRVAR = 1.00D-08  THRDEN = 1.00D-12

 CCSD(T)     terms to be evaluated (factor= 1.000)


 Number of core orbitals:           2 (   2   0 )
 Number of closed-shell orbitals:   6 (   5   1 )
 Number of external orbitals:     107 (  69  38 )

 Molecular orbitals read from record     2100.2  Type=RHF/CANONICAL (state 1.1)

 Number of N-1 electron functions:               6
 Number of N-2 electron functions:              21
 Number of singly external CSFs:               383
 Number of doubly external CSFs:            107206
 Total number of CSFs:                      107590

 Length of J-op  integral file:               0.00 MB
 Length of K-op  integral file:               0.54 MB
 Length of 3-ext integral record:             0.00 MB

 Memory could be reduced to 5.94 Mwords without degradation in triples

 Integral transformation finished. Total CPU:   0.13 sec, npass=  1  Memory used:   1.65 MW

 Reference energy:                   -129.84159097

 MP2 singlet pair energy:              -0.27744561
 MP2 triplet pair energy:              -0.16386658
 MP2 correlation energy:               -0.44131219
 MP2 total energy:                   -130.28290316

 SCS-MP2 correlation energy:           -0.43489616   (PS=  1.200000  PT=  0.333333)
 SCS-MP2 total energy:               -130.27648713

 ITER.      SQ.NORM     CORR.ENERGY   TOTAL ENERGY   ENERGY CHANGE        DEN1      VAR(S)    VAR(P)  DIIS     TIME  TIME/IT
   1      1.11890060    -0.44613959  -130.28773056    -0.00482741     0.01048434  0.29D-02  0.29D-02  1  1     0.28     0.15
   2      1.12957875    -0.44647132  -130.28806229    -0.00033173    -0.01200125  0.91D-04  0.48D-03  2  2     0.42     0.16
   3      1.13569250    -0.44684286  -130.28843383    -0.00037153    -0.00287674  0.49D-04  0.47D-04  3  3     0.57     0.16
   4      1.13836618    -0.44685249  -130.28844346    -0.00000964    -0.00091760  0.37D-05  0.86D-05  4  4     0.73     0.16
   5      1.13932165    -0.44687818  -130.28846915    -0.00002569    -0.00020283  0.11D-05  0.16D-05  5  5     0.88     0.16
   6      1.13964364    -0.44686350  -130.28845447     0.00001468    -0.00003848  0.97D-07  0.40D-06  6  6     1.04     0.17
   7      1.13972046    -0.44686430  -130.28845527    -0.00000080    -0.00000252  0.20D-07  0.88D-07  6  1     1.19     0.17
   8      1.13974221    -0.44686518  -130.28845615    -0.00000088     0.00000136  0.39D-08  0.15D-07  6  2     1.35     0.17
   9      1.13974747    -0.44686477  -130.28845574     0.00000041     0.00000043  0.26D-08  0.16D-08  6  4     1.51     0.17
  10      1.13974950    -0.44686522  -130.28845620    -0.00000045    -0.00000063  0.41D-09  0.18D-09  6  3     1.66     0.17
  11      1.13974893    -0.44686525  -130.28845623    -0.00000003    -0.00000004  0.14D-09  0.29D-10  6  5     1.81     0.17
  12      1.13974791    -0.44686539  -130.28845636    -0.00000013     0.00000032  0.17D-10  0.94D-11  6  6     1.95     0.17
  13      1.13974713    -0.44686542  -130.28845639    -0.00000003     0.00000020  0.59D-11  0.19D-11  6  1     2.10     0.17
  14      1.13974664    -0.44686545  -130.28845642    -0.00000002     0.00000012  0.98D-12  0.59D-12  6  2     2.25     0.17
  15      1.13974644    -0.44686545  -130.28845643    -0.00000001     0.00000003  0.26D-12  0.19D-12  6  4     2.39     0.17
  16      1.13974633    -0.44686545  -130.28845643    -0.00000000     0.00000001  0.34D-13  0.24D-13  6  5     2.52     0.17
  17      1.13974630    -0.44686546  -130.28845643    -0.00000000     0.00000000  0.71D-15  0.18D-14  6  3     2.67     0.17
  18      1.13974630    -0.44686546  -130.28845643    -0.00000000    -0.00000000  0.26D-15  0.25D-15  6  6     2.82     0.17
  19      1.13974630    -0.44686546  -130.28845643     0.00000000    -0.00000000  0.83D-16  0.40D-16  6  1     2.96     0.17
  20      1.13974630    -0.44686546  -130.28845643     0.00000000    -0.00000000  0.22D-16  0.77D-17  6  2     3.09     0.17
  21      1.13974630    -0.44686546  -130.28845643     0.00000000    -0.00000000  0.33D-17  0.21D-17  6  5     3.23     0.17
  22      1.13974630    -0.44686546  -130.28845643    -0.00000000     0.00000000  0.41D-18  0.23D-18  6  4     3.37     0.17
  23      1.13974630    -0.44686546  -130.28845643     0.00000000     0.00000000  0.15D-18  0.49D-19  6  3     3.52     0.17
  24      1.13974630    -0.44686546  -130.28845643     0.00000000    -0.00000000  0.29D-19  0.95D-20  6  6     3.65     0.17
  25      1.13974630    -0.44686546  -130.28845643     0.00000000    -0.00000000  0.36D-20  0.12D-20  6  1     3.79     0.17
  26      1.13974630    -0.44686546  -130.28845643     0.00000000    -0.00000000  0.89D-21  0.24D-21  6  2     3.94     0.17
  27      1.13974630    -0.44686546  -130.28845643    -0.00000000     0.00000000  0.19D-21  0.61D-22  6  5     4.11     0.17

 Norm of t1 vector:      0.07568876      S-energy:     0.00000000      T1 diagnostic:  0.01544990
                                                                       D1 diagnostic:  0.03966328

 Doubles amplitudes (print threshold =  0.500E-01):

         I         J         SYM. A    SYM. B    A         B      T(IJ, AB)

         6         6         2         2         1         1     -0.10015843


 Total CPU time for triples:      1.14 sec


 RESULTS
 =======

  Reference energy                   -129.841590972856
  CCSD singlet pair energy             -0.305950382876
  CCSD triplet pair energy             -0.140915072923
  CCSD correlation energy              -0.446865455799

  Triples (T) contribution             -0.020340806185
  Total correlation energy             -0.467206261984

  CCSD total energy                  -130.288456428654
  CCSD[T] energy                     -130.309789644147
  CCSD-T energy                      -130.308411027696
 !CCSD(T) total energy               -130.308797234840

 Timing summary (sec):

 STEP                 CPU(USER)    SYS     CPU(TOT)    WALL
 Transformation          0.13      0.05      0.18      0.17
 CCSD iterations         3.98      0.57      4.55      4.57
 Triples                 1.14      0.05      1.19      1.17

 Program statistics:

 Available memory in ccsd:               994999756
 Min. memory needed in ccsd:                389120
 Max. memory used in ccsd:                  473124
 Max. memory used in cckext:                599488 (27 integral passes)



 **********************************************************************************************************************************
 DATASETS  * FILE   NREC   LENGTH (MB)   RECORD NAMES
              1      20      128.20       500      610      700      900      950      970     1000      129      960     1100   
                                          VAR    BASINP    GEOM    SYMINP    ZMAT    AOBASIS   BASIS     P2S    ABASIS      S 
                                         1400     1410     1200     1210     1080     1600     1650     1300     1700     1380   
                                           T        V       H0       H01     AOSYM     SMH    MOLCAS    ERIS     OPER     JKOP   

              2       4        2.94       700     1000      520     2100   
                                         GEOM     BASIS   MCVARS     RHF  

 PROGRAMS   *        TOTAL   CCSD(T)        HF       INT
 CPU TIMES  *         7.53      5.28      1.01      1.15
 REAL TIME  *         9.34 SEC
 DISK USED  *       327.55 MB      
 **********************************************************************************************************************************

 CCSD(T)/aug-cc-pVTZ energy=   -130.308797234840

        CCSD(T)         HF-SCF  
   -130.30879723   -129.84159097
 **********************************************************************************************************************************
 Molpro calculation terminated
 Variable memory released
