
 Primary working directories    : /tmp/r2666/234912.maple
 Secondary working directories  : /tmp/r2666/234912.maple
 Wavefunction directory         : /ddn/home4/r2666/wfu/
 Main file repository           : /tmp/r2666/234912.maple/

 SHA1      : d5ffa45e93fdbca01ffc919aa182cfdae0147319
 NAME      : 2015.1.35
 ARCHNAME  : linux/x86_64
 FC        : /opt/intel/composer_xe_2015.1.133/bin/intel64/ifort
 BLASLIB   : -Wl,-_start-group /opt/intel/mkl/lib/intel64/libmkl_intel_ilp64.a /opt/intel/mkl/lib/intel64/libmkl_intel_thread.a /opt/intel/mkl/lib/intel64/libmkl_core.a -Wl,-_end-group
 id        : olemiss

 Nodes     nprocs
 cn026        1

 Using customized tuning parameters: mindgm=1; mindgv=20; mindgc=4; mindgr=1; noblas=0; minvec=7
 default implementation of scratch files=df  

 ***,hno CCSD(T)/TZ-F12 QFF
 memory, 995, m;
 gthresh,energy=1.d-12,zero=1.d-22,oneint=1.d-22,twoint=1.d-22;
 gthresh,optgrad=1.d-8,optstep=1.d-8;
 nocompress;
 geomtyp=xyz
 bohr
 geometry={
 3
         26        26
 N        0.0000000000       -0.1541638920       -1.1414636276
 H        0.0000000000        1.6614004550       -1.9279841806
 O        0.0000000000        0.0345312269        1.1188582172
 }
 
 basis=avtz
   {hf,maxit=500;accu,20;}
 {ccsd(t),nocheck,maxit=250;orbital,IGNORE_ERROR;}

 Variables initialized (889), CPU time= 0.01 sec
 Commands  initialized (702), CPU time= 0.01 sec, 572 directives.
 Default parameters read. Elapsed time= 0.05 sec

 Checking input...
 Passed
1


                                         ***  PROGRAM SYSTEM MOLPRO  ***
                                       Copyright, TTI GmbH Stuttgart, 2015
                                    Version 2015.1 linked Jul  9 2018 13:16:40


 **********************************************************************************************************************************
 LABEL *   hno CCSD(T)/TZ-F12 QFF                                                        
  64 bit serial version                                                                  DATE: 08-Feb-20          TIME: 17:56:08  
 **********************************************************************************************************************************

 SHA1:             d5ffa45e93fdbca01ffc919aa182cfdae0147319
 **********************************************************************************************************************************

 THRESHOLDS:

 ZERO    =  1.00D-22  ONEINT  =  1.00D-22  TWOINT  =  1.00D-22  PREFAC  =  1.00D-14  LOCALI  =  1.00D-09  EORDER  =  1.00D-04
 ENERGY  =  1.00D-12  ETEST   =  0.00D+00  EDENS   =  0.00D+00  THRDEDEF=  1.00D-06  GRADIENT=  1.00D-02  STEP    =  1.00D-03
 ORBITAL =  1.00D-05  CIVEC   =  1.00D-05  COEFF   =  1.00D-04  PRINTCI =  5.00D-02  PUNCHCI =  9.90D+01  OPTGRAD =  3.00D-04
 OPTENERG=  1.00D-06  OPTSTEP =  3.00D-04  THRGRAD =  1.00D-10  COMPRESS=  1.00D-11  VARMIN  =  1.00D-07  VARMAX  =  1.00D-03
 THRDOUB =  0.00D+00  THRDIV  =  1.00D-05  THRRED  =  1.00D-07  THRPSP  =  1.00D+00  THRDC   =  1.00D-10  THRCS   =  1.00D-10
 THRNRM  =  1.00D-08  THREQ   =  0.00D+00  THRDE   =  1.00D+00  THRREF  =  1.00D-05  SPARFAC =  1.00D+00  THRDLP  =  1.00D-07
 THRDIA  =  1.00D-10  THRDLS  =  1.00D-07  THRGPS  =  0.00D+00  THRKEX  =  0.00D+00  THRDIS  =  2.00D-01  THRVAR  =  1.00D-10
 THRLOC  =  1.00D-06  THRGAP  =  1.00D-06  THRLOCT = -1.00D+00  THRGAPT = -1.00D+00  THRORB  =  1.00D-06  THRMLTP =  0.00D+00
 THRCPQCI=  1.00D-10  KEXTA   =  0.00D+00  THRCOARS=  0.00D+00  SYMTOL  =  1.00D-06  GRADTOL =  1.00D-06  THROVL  =  1.00D-08
 THRORTH =  1.00D-08  GRID    =  1.00D-06  GRIDMAX =  1.00D-03  DTMAX   =  0.00D+00  THROCCDE=  1.00D-01  THROCCDE=  1.00D-01



 THRESHOLDS:

 ZERO    =  1.00D-22  ONEINT  =  1.00D-22  TWOINT  =  1.00D-22  PREFAC  =  1.00D-14  LOCALI  =  1.00D-09  EORDER  =  1.00D-04
 ENERGY  =  1.00D-12  ETEST   =  0.00D+00  EDENS   =  0.00D+00  THRDEDEF=  1.00D-06  GRADIENT=  1.00D-02  STEP    =  1.00D-03
 ORBITAL =  1.00D-05  CIVEC   =  1.00D-05  COEFF   =  1.00D-04  PRINTCI =  5.00D-02  PUNCHCI =  9.90D+01  OPTGRAD =  1.00D-08
 OPTENERG=  1.00D-06  OPTSTEP =  1.00D-08  THRGRAD =  1.00D-10  COMPRESS=  1.00D-11  VARMIN  =  1.00D-07  VARMAX  =  1.00D-03
 THRDOUB =  0.00D+00  THRDIV  =  1.00D-05  THRRED  =  1.00D-07  THRPSP  =  1.00D+00  THRDC   =  1.00D-10  THRCS   =  1.00D-10
 THRNRM  =  1.00D-08  THREQ   =  0.00D+00  THRDE   =  1.00D+00  THRREF  =  1.00D-05  SPARFAC =  1.00D+00  THRDLP  =  1.00D-07
 THRDIA  =  1.00D-10  THRDLS  =  1.00D-07  THRGPS  =  0.00D+00  THRKEX  =  0.00D+00  THRDIS  =  2.00D-01  THRVAR  =  1.00D-10
 THRLOC  =  1.00D-06  THRGAP  =  1.00D-06  THRLOCT = -1.00D+00  THRGAPT = -1.00D+00  THRORB  =  1.00D-06  THRMLTP =  0.00D+00
 THRCPQCI=  1.00D-10  KEXTA   =  0.00D+00  THRCOARS=  0.00D+00  SYMTOL  =  1.00D-06  GRADTOL =  1.00D-06  THROVL  =  1.00D-08
 THRORTH =  1.00D-08  GRID    =  1.00D-06  GRIDMAX =  1.00D-03  DTMAX   =  0.00D+00  THROCCDE=  1.00D-01  THROCCDE=  1.00D-01



 Input parameters for SORTINT:

 COMPRESS =    0.000000
 C_FINAL  =    1.000000
 DEBUG    =   -1.000000
 C_SORT1  =    0.000000
 C_SEWARD =    0.000000
 THRESH   =    0.000000
 IO       =  molpro                                                          
 SPRI     =    0.000000
 SETTING GEOMTYP        =    XYZ
 ZUNIT=BOHR
 

 Variable memory set to  995000000 words,  buffer space   230000 words

 SETTING BASIS          =    AVTZ


 Recomputing integrals since basis changed


 Using spherical harmonics

 Library entry N      S aug-cc-pVTZ          selected for orbital group  1
 Library entry N      P aug-cc-pVTZ          selected for orbital group  1
 Library entry N      D aug-cc-pVTZ          selected for orbital group  1
 Library entry N      F aug-cc-pVTZ          selected for orbital group  1
 Library entry H      S aug-cc-pVTZ          selected for orbital group  2
 Library entry H      P aug-cc-pVTZ          selected for orbital group  2
 Library entry H      D aug-cc-pVTZ          selected for orbital group  2
 Library entry O      S aug-cc-pVTZ          selected for orbital group  3
 Library entry O      P aug-cc-pVTZ          selected for orbital group  3
 Library entry O      D aug-cc-pVTZ          selected for orbital group  3
 Library entry O      F aug-cc-pVTZ          selected for orbital group  3


 PROGRAM * SEWARD (Integral evaluation for generally contracted gaussian basis sets)     Author: Roland Lindh, 1990

 Geometry written to block  1 of record 700


 Point group  Cs  



 ATOMIC COORDINATES

 NR  ATOM    CHARGE       X              Y              Z

   1  N       7.00    0.000000000   -0.154163892   -1.141463628
   2  H       1.00    0.000000000    1.661400455   -1.927984181
   3  O       8.00    0.000000000    0.034531227    1.118858217

 Bond lengths in Bohr (Angstrom)

 1-2  1.978607712  1-3  2.268184448
     ( 1.047034111)     ( 1.200271520)

 Bond angles

  2-1-3  108.65066725

 NUCLEAR CHARGE:                   16
 NUMBER OF PRIMITIVE AOS:         161
 NUMBER OF SYMMETRY AOS:          141
 NUMBER OF CONTRACTIONS:          115   (  76A'  +  39A"  )
 NUMBER OF CORE ORBITALS:           2   (   2A'  +   0A"  )
 NUMBER OF VALENCE ORBITALS:        9   (   7A'  +   2A"  )


 NUCLEAR REPULSION ENERGY   30.54336249

 Eigenvalues of metric

         1 0.229E-03 0.492E-03 0.179E-02 0.209E-02 0.246E-02 0.346E-02 0.427E-02 0.504E-02
         2 0.386E-02 0.994E-02 0.258E-01 0.367E-01 0.508E-01 0.617E-01 0.799E-01 0.119E+00


 Contracted 2-electron integrals neglected if value below      1.0D-22

       10790060. INTEGRALS WRITTEN OUT IN    2635 BLOCKS ON RECORD 1290 OF FILE 1


 NUMBER OF SORTED TWO-ELECTRON INTEGRALS:   11433631.     BUFFER LENGTH:  32768
 NUMBER OF SEGMENTS:   1  SEGMENT LENGTH:   11433631      RECORD LENGTH: 524288

 Memory used in sort:      11.99 MW

 SORT1 READ    10790060. AND WROTE    10943631. INTEGRALS IN     32 RECORDS. CPU TIME:     0.25 SEC, REAL TIME:     0.33 SEC
 SORT2 READ    10943631. AND WROTE    11433631. INTEGRALS IN      1 RECORDS. CPU TIME:     0.22 SEC, REAL TIME:     0.29 SEC

 FILE SIZES:   FILE 1:   193.0 MBYTE,  FILE 4:   134.3 MBYTE,   TOTAL:    327.2 MBYTE

 OPERATOR DM      FOR CENTER  0  COORDINATES:    0.000000    0.000000    0.000000


 **********************************************************************************************************************************
 DATASETS  * FILE   NREC   LENGTH (MB)   RECORD NAMES
              1      19      111.05       500      610      700      900      950      970     1000      129      960     1100   
                                          VAR    BASINP    GEOM    SYMINP    ZMAT    AOBASIS   BASIS     P2S    ABASIS      S 
                                         1400     1410     1200     1210     1080     1600     1650     1300     1700   
                                           T        V       H0       H01     AOSYM     SMH    MOLCAS    ERIS     OPER   

 PROGRAMS   *        TOTAL       INT
 CPU TIMES  *         1.75      1.65
 REAL TIME  *         2.59 SEC
 DISK USED  *       327.55 MB      
 **********************************************************************************************************************************


 PROGRAM * RHF-SCF (CLOSED SHELL)       Authors: W. Meyer, H.-J. Werner


 NUMBER OF ELECTRONS:       8+    8-
 CONVERGENCE THRESHOLDS:    1.00E-10 (Density)    1.00E-13 (Energy)
 MAX. NUMBER OF ITERATIONS:      500
 INTERPOLATION TYPE:            DIIS
 INTERPOLATION STEPS:              2 (START)      1 (STEP)
 LEVEL SHIFTS:                  0.00 (CLOSED)  0.00 (OPEN) 



 Orbital guess generated from atomic densities. Full valence occupancy:    9   2

 Molecular orbital dump at record        2100.2

 Initial occupancy:   7   1

 ITERATION    DDIFF          GRAD             ENERGY        2-EL.EN.            DIPOLE MOMENTS         DIIS   ORB.
    1      0.000D+00      0.000D+00      -129.79085073    154.209554    0.00000    0.59565   -0.99667    0    start
    2      0.000D+00      0.106D-01      -129.81851881    155.489730    0.00000    0.60622   -0.21708    1    diag
    3      0.117D-01      0.796D-02      -129.83965224    155.584688    0.00000    0.55717   -0.58342    2    diag
    4      0.577D-02      0.127D-02      -129.84042692    155.302906    0.00000    0.56463   -0.52466    3    diag
    5      0.106D-02      0.415D-03      -129.84054853    155.395906    0.00000    0.57018   -0.52762    4    diag
    6      0.442D-03      0.119D-03      -129.84056779    155.380528    0.00000    0.57060   -0.52370    5    diag
    7      0.168D-03      0.587D-04      -129.84057322    155.383083    0.00000    0.57186   -0.52126    6    diag
    8      0.115D-03      0.195D-04      -129.84057377    155.382462    0.00000    0.57189   -0.52032    7    diag
    9      0.416D-04      0.366D-05      -129.84057379    155.382361    0.00000    0.57185   -0.52012    8    diag
   10      0.789D-05      0.850D-06      -129.84057379    155.382343    0.00000    0.57182   -0.52009    9    orth
   11      0.167D-05      0.171D-06      -129.84057379    155.382340    0.00000    0.57181   -0.52009    9    diag
   12      0.328D-06      0.346D-07      -129.84057379    155.382340    0.00000    0.57181   -0.52009    9    diag
   13      0.703D-07      0.856D-08      -129.84057379    155.382340    0.00000    0.57181   -0.52009    9    diag
   14      0.180D-07      0.179D-08      -129.84057379    155.382339    0.00000    0.57181   -0.52009    9    diag
   15      0.364D-08      0.507D-09      -129.84057379    155.382340    0.00000    0.57181   -0.52009    9    diag
   16      0.991D-09      0.143D-09      -129.84057379    155.382340    0.00000    0.57181   -0.52009    9    diag
   17      0.185D-09      0.408D-10      -129.84057379    155.382340    0.00000    0.57181   -0.52009    9    diag
   18      0.520D-10      0.145D-10      -129.84057379    155.382340    0.00000    0.57181   -0.52009    0    orth

 Final occupancy:   7   1

 !RHF STATE 1.1 Energy               -129.840573793200
 Nuclear energy                        30.54336249
 One-electron energy                 -238.07510603
 Two-electron energy                   77.69116976
 Virial quotient                       -1.00187139
 !RHF STATE 1.1 Dipole moment           0.00000000     0.57180884    -0.52008898
 Dipole moment /Debye                   0.00000000     1.45329790    -1.32184774

 Orbital energies:

         1.1          2.1          3.1          4.1          5.1          6.1          7.1          8.1          9.1
    -20.655830   -15.712374    -1.536945    -0.994805    -0.750188    -0.668411    -0.428051     0.029254     0.092173

         1.2          2.2          3.2
     -0.599779     0.066929     0.130305

 HOMO      7.1    -0.428051 =     -11.6479eV
 LUMO      8.1     0.029254 =       0.7960eV
 LUMO-HOMO         0.457305 =      12.4439eV


 **********************************************************************************************************************************
 DATASETS  * FILE   NREC   LENGTH (MB)   RECORD NAMES
              1      19      111.05       500      610      700      900      950      970     1000      129      960     1100   
                                          VAR    BASINP    GEOM    SYMINP    ZMAT    AOBASIS   BASIS     P2S    ABASIS      S 
                                         1400     1410     1200     1210     1080     1600     1650     1300     1700   
                                           T        V       H0       H01     AOSYM     SMH    MOLCAS    ERIS     OPER   

              2       4        2.94       700     1000      520     2100   
                                         GEOM     BASIS   MCVARS     RHF  

 PROGRAMS   *        TOTAL        HF       INT
 CPU TIMES  *         2.96      1.21      1.65
 REAL TIME  *         4.13 SEC
 DISK USED  *       327.55 MB      
 **********************************************************************************************************************************


 PROGRAM * CCSD (Closed-shell coupled cluster)     Authors: C. Hampel, H.-J. Werner, 1991, M. Deegan, P.J. Knowles, 1992


 Convergence thresholds:  THRVAR = 1.00D-08  THRDEN = 1.00D-12

 CCSD(T)     terms to be evaluated (factor= 1.000)


 Number of core orbitals:           2 (   2   0 )
 Number of closed-shell orbitals:   6 (   5   1 )
 Number of external orbitals:     107 (  69  38 )

 Molecular orbitals read from record     2100.2  Type=RHF/CANONICAL (state 1.1)

 Number of N-1 electron functions:               6
 Number of N-2 electron functions:              21
 Number of singly external CSFs:               383
 Number of doubly external CSFs:            107206
 Total number of CSFs:                      107590

 Length of J-op  integral file:               0.00 MB
 Length of K-op  integral file:               0.54 MB
 Length of 3-ext integral record:             0.00 MB

 Memory could be reduced to 5.94 Mwords without degradation in triples

 Integral transformation finished. Total CPU:   0.21 sec, npass=  1  Memory used:   1.65 MW

 Reference energy:                   -129.84057379

 MP2 singlet pair energy:              -0.27851784
 MP2 triplet pair energy:              -0.16458053
 MP2 correlation energy:               -0.44309837
 MP2 total energy:                   -130.28367216

 SCS-MP2 correlation energy:           -0.43662707   (PS=  1.200000  PT=  0.333333)
 SCS-MP2 total energy:               -130.27720086

 ITER.      SQ.NORM     CORR.ENERGY   TOTAL ENERGY   ENERGY CHANGE        DEN1      VAR(S)    VAR(P)  DIIS     TIME  TIME/IT
   1      1.11995401    -0.44751311  -130.28808690    -0.00441475     0.01130114  0.30D-02  0.30D-02  1  1     0.47     0.25
   2      1.13086540    -0.44776881  -130.28834260    -0.00025570    -0.01223784  0.96D-04  0.50D-03  2  2     0.71     0.26
   3      1.13717617    -0.44815429  -130.28872808    -0.00038548    -0.00294136  0.51D-04  0.49D-04  3  3     0.95     0.26
   4      1.13996848    -0.44816568  -130.28873947    -0.00001139    -0.00094965  0.39D-05  0.89D-05  4  4     1.18     0.26
   5      1.14097275    -0.44819287  -130.28876666    -0.00002719    -0.00021269  0.11D-05  0.16D-05  5  5     1.43     0.26
   6      1.14130487    -0.44817692  -130.28875071     0.00001595    -0.00004027  0.94D-07  0.40D-06  6  6     1.67     0.26
   7      1.14137970    -0.44817804  -130.28875183    -0.00000112    -0.00000200  0.19D-07  0.92D-07  6  1     1.90     0.26
   8      1.14140103    -0.44817882  -130.28875262    -0.00000078     0.00000153  0.38D-08  0.16D-07  6  2     2.16     0.27
   9      1.14140624    -0.44817841  -130.28875220     0.00000042     0.00000041  0.27D-08  0.17D-08  6  4     2.39     0.27
  10      1.14140843    -0.44817887  -130.28875267    -0.00000047    -0.00000068  0.44D-09  0.20D-09  6  3     2.64     0.27
  11      1.14140790    -0.44817890  -130.28875269    -0.00000003    -0.00000006  0.15D-09  0.31D-10  6  5     2.86     0.27
  12      1.14140687    -0.44817904  -130.28875284    -0.00000014     0.00000033  0.17D-10  0.10D-10  6  6     3.11     0.27
  13      1.14140605    -0.44817908  -130.28875287    -0.00000003     0.00000021  0.60D-11  0.20D-11  6  1     3.35     0.27
  14      1.14140553    -0.44817911  -130.28875290    -0.00000003     0.00000013  0.95D-12  0.66D-12  6  2     3.61     0.27
  15      1.14140532    -0.44817911  -130.28875291    -0.00000001     0.00000003  0.26D-12  0.21D-12  6  4     3.85     0.27
  16      1.14140520    -0.44817912  -130.28875291    -0.00000000     0.00000002  0.35D-13  0.25D-13  6  5     4.11     0.27
  17      1.14140516    -0.44817912  -130.28875291    -0.00000000     0.00000000  0.65D-15  0.18D-14  6  3     4.36     0.27
  18      1.14140516    -0.44817912  -130.28875291     0.00000000    -0.00000000  0.22D-15  0.25D-15  6  6     4.61     0.27
  19      1.14140516    -0.44817912  -130.28875291     0.00000000    -0.00000000  0.68D-16  0.35D-16  6  1     4.86     0.27
  20      1.14140516    -0.44817912  -130.28875291     0.00000000    -0.00000000  0.18D-16  0.63D-17  6  2     5.13     0.27
  21      1.14140516    -0.44817912  -130.28875291     0.00000000    -0.00000000  0.32D-17  0.17D-17  6  5     5.38     0.27
  22      1.14140516    -0.44817912  -130.28875291    -0.00000000     0.00000000  0.33D-18  0.19D-18  6  4     5.63     0.27
  23      1.14140516    -0.44817912  -130.28875291     0.00000000     0.00000000  0.12D-18  0.39D-19  6  3     5.89     0.27
  24      1.14140516    -0.44817912  -130.28875291     0.00000000     0.00000000  0.12D-19  0.53D-20  6  2     6.13     0.27
  25      1.14140516    -0.44817912  -130.28875291     0.00000000    -0.00000000  0.20D-20  0.83D-21  6  6     6.37     0.27
  26      1.14140516    -0.44817912  -130.28875291     0.00000000    -0.00000000  0.44D-21  0.21D-21  6  1     6.62     0.27

 Norm of t1 vector:      0.07710692      S-energy:     0.00000000      T1 diagnostic:  0.01573938
                                                                       D1 diagnostic:  0.04110006

 Doubles amplitudes (print threshold =  0.500E-01):

         I         J         SYM. A    SYM. B    A         B      T(IJ, AB)

         6         6         2         2         1         1     -0.10551177


 Total CPU time for triples:      1.91 sec


 RESULTS
 =======

  Reference energy                   -129.840573793201
  CCSD singlet pair energy             -0.307085571408
  CCSD triplet pair energy             -0.141093546224
  CCSD correlation energy              -0.448179117631

  Triples (T) contribution             -0.020648689085
  Total correlation energy             -0.468827806715

  CCSD total energy                  -130.288752910831
  CCSD[T] energy                     -130.310432849863
  CCSD-T energy                      -130.309006388379
 !CCSD(T) total energy               -130.309401599916

 Timing summary (sec):

 STEP                 CPU(USER)    SYS     CPU(TOT)    WALL
 Transformation          0.22      0.05      0.27      0.27
 CCSD iterations         6.40      0.67      7.07      7.07
 Triples                 1.91      0.05      1.96      1.96

 Program statistics:

 Available memory in ccsd:               994999756
 Min. memory needed in ccsd:                389120
 Max. memory used in ccsd:                  473124
 Max. memory used in cckext:                599488 (26 integral passes)



 **********************************************************************************************************************************
 DATASETS  * FILE   NREC   LENGTH (MB)   RECORD NAMES
              1      20      128.20       500      610      700      900      950      970     1000      129      960     1100   
                                          VAR    BASINP    GEOM    SYMINP    ZMAT    AOBASIS   BASIS     P2S    ABASIS      S 
                                         1400     1410     1200     1210     1080     1600     1650     1300     1700     1380   
                                           T        V       H0       H01     AOSYM     SMH    MOLCAS    ERIS     OPER     JKOP   

              2       4        2.94       700     1000      520     2100   
                                         GEOM     BASIS   MCVARS     RHF  

 PROGRAMS   *        TOTAL   CCSD(T)        HF       INT
 CPU TIMES  *        11.52      8.56      1.21      1.65
 REAL TIME  *        13.51 SEC
 DISK USED  *       327.55 MB      
 **********************************************************************************************************************************

 CCSD(T)/aug-cc-pVTZ energy=   -130.309401599916

        CCSD(T)         HF-SCF  
   -130.30940160   -129.84057379
 **********************************************************************************************************************************
 Molpro calculation terminated
 Variable memory released
