
 Primary working directories    : /tmp/r2666/234922.maple
 Secondary working directories  : /tmp/r2666/234922.maple
 Wavefunction directory         : /ddn/home4/r2666/wfu/
 Main file repository           : /tmp/r2666/234922.maple/

 SHA1      : d5ffa45e93fdbca01ffc919aa182cfdae0147319
 NAME      : 2015.1.35
 ARCHNAME  : linux/x86_64
 FC        : /opt/intel/composer_xe_2015.1.133/bin/intel64/ifort
 BLASLIB   : -Wl,-_start-group /opt/intel/mkl/lib/intel64/libmkl_intel_ilp64.a /opt/intel/mkl/lib/intel64/libmkl_intel_thread.a /opt/intel/mkl/lib/intel64/libmkl_core.a -Wl,-_end-group
 id        : olemiss

 Nodes     nprocs
 cn037        1

 Using customized tuning parameters: mindgm=1; mindgv=20; mindgc=4; mindgr=1; noblas=0; minvec=7
 default implementation of scratch files=df  

 ***,hno CCSD(T)/TZ-F12 QFF
 memory, 995, m;
 gthresh,energy=1.d-12,zero=1.d-22,oneint=1.d-22,twoint=1.d-22;
 gthresh,optgrad=1.d-8,optstep=1.d-8;
 nocompress;
 geomtyp=xyz
 bohr
 geometry={
 3
         36        36
 N        0.0000000000       -0.1644539829       -1.1665495552
 H        0.0000000000        1.6642513339       -1.9220132159
 O        0.0000000000        0.0419704390        1.1379731802
 }
 
 basis=avtz
   {hf,maxit=500;accu,20;}
 {ccsd(t),nocheck,maxit=250;orbital,IGNORE_ERROR;}

 Variables initialized (889), CPU time= 0.00 sec
 Commands  initialized (702), CPU time= 0.01 sec, 572 directives.
 Default parameters read. Elapsed time= 0.05 sec

 Checking input...
 Passed
1


                                         ***  PROGRAM SYSTEM MOLPRO  ***
                                       Copyright, TTI GmbH Stuttgart, 2015
                                    Version 2015.1 linked Jul  9 2018 13:16:40


 **********************************************************************************************************************************
 LABEL *   hno CCSD(T)/TZ-F12 QFF                                                        
  64 bit serial version                                                                  DATE: 08-Feb-20          TIME: 17:56:14  
 **********************************************************************************************************************************

 SHA1:             d5ffa45e93fdbca01ffc919aa182cfdae0147319
 **********************************************************************************************************************************

 THRESHOLDS:

 ZERO    =  1.00D-22  ONEINT  =  1.00D-22  TWOINT  =  1.00D-22  PREFAC  =  1.00D-14  LOCALI  =  1.00D-09  EORDER  =  1.00D-04
 ENERGY  =  1.00D-12  ETEST   =  0.00D+00  EDENS   =  0.00D+00  THRDEDEF=  1.00D-06  GRADIENT=  1.00D-02  STEP    =  1.00D-03
 ORBITAL =  1.00D-05  CIVEC   =  1.00D-05  COEFF   =  1.00D-04  PRINTCI =  5.00D-02  PUNCHCI =  9.90D+01  OPTGRAD =  3.00D-04
 OPTENERG=  1.00D-06  OPTSTEP =  3.00D-04  THRGRAD =  1.00D-10  COMPRESS=  1.00D-11  VARMIN  =  1.00D-07  VARMAX  =  1.00D-03
 THRDOUB =  0.00D+00  THRDIV  =  1.00D-05  THRRED  =  1.00D-07  THRPSP  =  1.00D+00  THRDC   =  1.00D-10  THRCS   =  1.00D-10
 THRNRM  =  1.00D-08  THREQ   =  0.00D+00  THRDE   =  1.00D+00  THRREF  =  1.00D-05  SPARFAC =  1.00D+00  THRDLP  =  1.00D-07
 THRDIA  =  1.00D-10  THRDLS  =  1.00D-07  THRGPS  =  0.00D+00  THRKEX  =  0.00D+00  THRDIS  =  2.00D-01  THRVAR  =  1.00D-10
 THRLOC  =  1.00D-06  THRGAP  =  1.00D-06  THRLOCT = -1.00D+00  THRGAPT = -1.00D+00  THRORB  =  1.00D-06  THRMLTP =  0.00D+00
 THRCPQCI=  1.00D-10  KEXTA   =  0.00D+00  THRCOARS=  0.00D+00  SYMTOL  =  1.00D-06  GRADTOL =  1.00D-06  THROVL  =  1.00D-08
 THRORTH =  1.00D-08  GRID    =  1.00D-06  GRIDMAX =  1.00D-03  DTMAX   =  0.00D+00  THROCCDE=  1.00D-01  THROCCDE=  1.00D-01



 THRESHOLDS:

 ZERO    =  1.00D-22  ONEINT  =  1.00D-22  TWOINT  =  1.00D-22  PREFAC  =  1.00D-14  LOCALI  =  1.00D-09  EORDER  =  1.00D-04
 ENERGY  =  1.00D-12  ETEST   =  0.00D+00  EDENS   =  0.00D+00  THRDEDEF=  1.00D-06  GRADIENT=  1.00D-02  STEP    =  1.00D-03
 ORBITAL =  1.00D-05  CIVEC   =  1.00D-05  COEFF   =  1.00D-04  PRINTCI =  5.00D-02  PUNCHCI =  9.90D+01  OPTGRAD =  1.00D-08
 OPTENERG=  1.00D-06  OPTSTEP =  1.00D-08  THRGRAD =  1.00D-10  COMPRESS=  1.00D-11  VARMIN  =  1.00D-07  VARMAX  =  1.00D-03
 THRDOUB =  0.00D+00  THRDIV  =  1.00D-05  THRRED  =  1.00D-07  THRPSP  =  1.00D+00  THRDC   =  1.00D-10  THRCS   =  1.00D-10
 THRNRM  =  1.00D-08  THREQ   =  0.00D+00  THRDE   =  1.00D+00  THRREF  =  1.00D-05  SPARFAC =  1.00D+00  THRDLP  =  1.00D-07
 THRDIA  =  1.00D-10  THRDLS  =  1.00D-07  THRGPS  =  0.00D+00  THRKEX  =  0.00D+00  THRDIS  =  2.00D-01  THRVAR  =  1.00D-10
 THRLOC  =  1.00D-06  THRGAP  =  1.00D-06  THRLOCT = -1.00D+00  THRGAPT = -1.00D+00  THRORB  =  1.00D-06  THRMLTP =  0.00D+00
 THRCPQCI=  1.00D-10  KEXTA   =  0.00D+00  THRCOARS=  0.00D+00  SYMTOL  =  1.00D-06  GRADTOL =  1.00D-06  THROVL  =  1.00D-08
 THRORTH =  1.00D-08  GRID    =  1.00D-06  GRIDMAX =  1.00D-03  DTMAX   =  0.00D+00  THROCCDE=  1.00D-01  THROCCDE=  1.00D-01



 Input parameters for SORTINT:

 COMPRESS =    0.000000
 C_FINAL  =    1.000000
 DEBUG    =   -1.000000
 C_SORT1  =    0.000000
 C_SEWARD =    0.000000
 THRESH   =    0.000000
 IO       =  molpro                                                          
 SPRI     =    0.000000
 SETTING GEOMTYP        =    XYZ
 ZUNIT=BOHR
 

 Variable memory set to  995000000 words,  buffer space   230000 words

 SETTING BASIS          =    AVTZ


 Recomputing integrals since basis changed


 Using spherical harmonics

 Library entry N      S aug-cc-pVTZ          selected for orbital group  1
 Library entry N      P aug-cc-pVTZ          selected for orbital group  1
 Library entry N      D aug-cc-pVTZ          selected for orbital group  1
 Library entry N      F aug-cc-pVTZ          selected for orbital group  1
 Library entry H      S aug-cc-pVTZ          selected for orbital group  2
 Library entry H      P aug-cc-pVTZ          selected for orbital group  2
 Library entry H      D aug-cc-pVTZ          selected for orbital group  2
 Library entry O      S aug-cc-pVTZ          selected for orbital group  3
 Library entry O      P aug-cc-pVTZ          selected for orbital group  3
 Library entry O      D aug-cc-pVTZ          selected for orbital group  3
 Library entry O      F aug-cc-pVTZ          selected for orbital group  3


 PROGRAM * SEWARD (Integral evaluation for generally contracted gaussian basis sets)     Author: Roland Lindh, 1990

 Geometry written to block  1 of record 700


 Point group  Cs  



 ATOMIC COORDINATES

 NR  ATOM    CHARGE       X              Y              Z

   1  N       7.00    0.000000000   -0.164453983   -1.166549555
   2  H       1.00    0.000000000    1.664251334   -1.922013216
   3  O       8.00    0.000000000    0.041970439    1.137973180

 Bond lengths in Bohr (Angstrom)

 1-2  1.978607712  1-3  2.313749355
     ( 1.047034111)     ( 1.224383431)

 Bond angles

  2-1-3  107.32767251

 NUCLEAR CHARGE:                   16
 NUMBER OF PRIMITIVE AOS:         161
 NUMBER OF SYMMETRY AOS:          141
 NUMBER OF CONTRACTIONS:          115   (  76A'  +  39A"  )
 NUMBER OF CORE ORBITALS:           2   (   2A'  +   0A"  )
 NUMBER OF VALENCE ORBITALS:        9   (   7A'  +   2A"  )


 NUCLEAR REPULSION ENERGY   30.05083375

 Eigenvalues of metric

         1 0.236E-03 0.507E-03 0.183E-02 0.215E-02 0.267E-02 0.383E-02 0.433E-02 0.521E-02
         2 0.414E-02 0.101E-01 0.269E-01 0.375E-01 0.518E-01 0.624E-01 0.846E-01 0.120E+00


 Contracted 2-electron integrals neglected if value below      1.0D-22

       10790064. INTEGRALS WRITTEN OUT IN    2635 BLOCKS ON RECORD 1290 OF FILE 1


 NUMBER OF SORTED TWO-ELECTRON INTEGRALS:   11433631.     BUFFER LENGTH:  32768
 NUMBER OF SEGMENTS:   1  SEGMENT LENGTH:   11433631      RECORD LENGTH: 524288

 Memory used in sort:      11.99 MW

 SORT1 READ    10790064. AND WROTE    10943632. INTEGRALS IN     32 RECORDS. CPU TIME:     0.29 SEC, REAL TIME:     0.36 SEC
 SORT2 READ    10943632. AND WROTE    11433631. INTEGRALS IN      1 RECORDS. CPU TIME:     0.21 SEC, REAL TIME:     0.30 SEC

 FILE SIZES:   FILE 1:   193.0 MBYTE,  FILE 4:   134.3 MBYTE,   TOTAL:    327.2 MBYTE

 OPERATOR DM      FOR CENTER  0  COORDINATES:    0.000000    0.000000    0.000000


 **********************************************************************************************************************************
 DATASETS  * FILE   NREC   LENGTH (MB)   RECORD NAMES
              1      19      111.05       500      610      700      900      950      970     1000      129      960     1100   
                                          VAR    BASINP    GEOM    SYMINP    ZMAT    AOBASIS   BASIS     P2S    ABASIS      S 
                                         1400     1410     1200     1210     1080     1600     1650     1300     1700   
                                           T        V       H0       H01     AOSYM     SMH    MOLCAS    ERIS     OPER   

 PROGRAMS   *        TOTAL       INT
 CPU TIMES  *         1.60      1.52
 REAL TIME  *         2.61 SEC
 DISK USED  *       327.55 MB      
 **********************************************************************************************************************************


 PROGRAM * RHF-SCF (CLOSED SHELL)       Authors: W. Meyer, H.-J. Werner


 NUMBER OF ELECTRONS:       8+    8-
 CONVERGENCE THRESHOLDS:    1.00E-10 (Density)    1.00E-13 (Energy)
 MAX. NUMBER OF ITERATIONS:      500
 INTERPOLATION TYPE:            DIIS
 INTERPOLATION STEPS:              2 (START)      1 (STEP)
 LEVEL SHIFTS:                  0.00 (CLOSED)  0.00 (OPEN) 



 Orbital guess generated from atomic densities. Full valence occupancy:    9   2

 Molecular orbital dump at record        2100.2

 Initial occupancy:   7   1

 ITERATION    DDIFF          GRAD             ENERGY        2-EL.EN.            DIPOLE MOMENTS         DIIS   ORB.
    1      0.000D+00      0.000D+00      -129.78368839    153.333996    0.00000    0.59447   -1.07163    0    start
    2      0.000D+00      0.109D-01      -129.81054789    154.556433    0.00000    0.62172   -0.19886    1    diag
    3      0.123D-01      0.867D-02      -129.83588375    154.708673    0.00000    0.56276   -0.61372    2    diag
    4      0.619D-02      0.130D-02      -129.83670691    154.408783    0.00000    0.57024   -0.55141    3    diag
    5      0.109D-02      0.431D-03      -129.83683860    154.503593    0.00000    0.57567   -0.55384    4    diag
    6      0.461D-03      0.124D-03      -129.83685966    154.487834    0.00000    0.57595   -0.54947    5    diag
    7      0.176D-03      0.625D-04      -129.83686600    154.490166    0.00000    0.57714   -0.54666    6    diag
    8      0.123D-03      0.223D-04      -129.83686678    154.489450    0.00000    0.57715   -0.54553    7    diag
    9      0.502D-04      0.428D-05      -129.83686681    154.489330    0.00000    0.57711   -0.54529    8    diag
   10      0.991D-05      0.936D-06      -129.83686681    154.489312    0.00000    0.57708   -0.54526    9    orth
   11      0.184D-05      0.183D-06      -129.83686681    154.489309    0.00000    0.57707   -0.54526    9    diag
   12      0.340D-06      0.393D-07      -129.83686681    154.489309    0.00000    0.57707   -0.54526    9    diag
   13      0.738D-07      0.104D-07      -129.83686681    154.489309    0.00000    0.57707   -0.54526    9    diag
   14      0.204D-07      0.214D-08      -129.83686681    154.489309    0.00000    0.57707   -0.54526    9    diag
   15      0.384D-08      0.586D-09      -129.83686681    154.489309    0.00000    0.57707   -0.54526    9    diag
   16      0.107D-08      0.154D-09      -129.83686681    154.489309    0.00000    0.57707   -0.54526    9    diag
   17      0.174D-09      0.417D-10      -129.83686681    154.489309    0.00000    0.57707   -0.54526    9    diag
   18      0.498D-10      0.146D-10      -129.83686681    154.489309    0.00000    0.57707   -0.54526    9    diag
   19      0.250D-10      0.310D-11      -129.83686681    154.489309    0.00000    0.57707   -0.54526    9    fixocc
   20      0.619D-11      0.501D-12      -129.83686681    154.489309    0.00000    0.57707   -0.54526    0    orth

 Final occupancy:   7   1

 !RHF STATE 1.1 Energy               -129.836866812594
 Nuclear energy                        30.05083375
 One-electron energy                 -237.13235496
 Two-electron energy                   77.24465440
 Virial quotient                       -1.00254986
 !RHF STATE 1.1 Dipole moment           0.00000000     0.57706682    -0.54526178
 Dipole moment /Debye                   0.00000000     1.46666149    -1.38582643

 Orbital energies:

         1.1          2.1          3.1          4.1          5.1          6.1          7.1          8.1          9.1
    -20.657856   -15.716794    -1.518079    -0.999635    -0.742956    -0.661299    -0.436280     0.029035     0.092144

         1.2          2.2          3.2
     -0.588625     0.060378     0.129740

 HOMO      7.1    -0.436280 =     -11.8718eV
 LUMO      8.1     0.029035 =       0.7901eV
 LUMO-HOMO         0.465315 =      12.6619eV


 **********************************************************************************************************************************
 DATASETS  * FILE   NREC   LENGTH (MB)   RECORD NAMES
              1      19      111.05       500      610      700      900      950      970     1000      129      960     1100   
                                          VAR    BASINP    GEOM    SYMINP    ZMAT    AOBASIS   BASIS     P2S    ABASIS      S 
                                         1400     1410     1200     1210     1080     1600     1650     1300     1700   
                                           T        V       H0       H01     AOSYM     SMH    MOLCAS    ERIS     OPER   

              2       4        2.94       700     1000      520     2100   
                                         GEOM     BASIS   MCVARS     RHF  

 PROGRAMS   *        TOTAL        HF       INT
 CPU TIMES  *         2.82      1.22      1.52
 REAL TIME  *         4.25 SEC
 DISK USED  *       327.55 MB      
 **********************************************************************************************************************************


 PROGRAM * CCSD (Closed-shell coupled cluster)     Authors: C. Hampel, H.-J. Werner, 1991, M. Deegan, P.J. Knowles, 1992


 Convergence thresholds:  THRVAR = 1.00D-08  THRDEN = 1.00D-12

 CCSD(T)     terms to be evaluated (factor= 1.000)


 Number of core orbitals:           2 (   2   0 )
 Number of closed-shell orbitals:   6 (   5   1 )
 Number of external orbitals:     107 (  69  38 )

 Molecular orbitals read from record     2100.2  Type=RHF/CANONICAL (state 1.1)

 Number of N-1 electron functions:               6
 Number of N-2 electron functions:              21
 Number of singly external CSFs:               383
 Number of doubly external CSFs:            107206
 Total number of CSFs:                      107590

 Length of J-op  integral file:               0.00 MB
 Length of K-op  integral file:               0.54 MB
 Length of 3-ext integral record:             0.00 MB

 Memory could be reduced to 5.94 Mwords without degradation in triples

 Integral transformation finished. Total CPU:   0.18 sec, npass=  1  Memory used:   1.65 MW

 Reference energy:                   -129.83686681

 MP2 singlet pair energy:              -0.28107541
 MP2 triplet pair energy:              -0.16629046
 MP2 correlation energy:               -0.44736587
 MP2 total energy:                   -130.28423268

 SCS-MP2 correlation energy:           -0.44076011   (PS=  1.200000  PT=  0.333333)
 SCS-MP2 total energy:               -130.27762693

 ITER.      SQ.NORM     CORR.ENERGY   TOTAL ENERGY   ENERGY CHANGE        DEN1      VAR(S)    VAR(P)  DIIS     TIME  TIME/IT
   1      1.12257019    -0.45083676  -130.28770357    -0.00347089     0.01324594  0.33D-02  0.33D-02  1  1     0.38     0.21
   2      1.13406959    -0.45090561  -130.28777242    -0.00006885    -0.01282257  0.11D-03  0.53D-03  2  2     0.55     0.22
   3      1.14088160    -0.45132931  -130.28819613    -0.00042370    -0.00310285  0.57D-04  0.55D-04  3  3     0.75     0.22
   4      1.14396300    -0.45134314  -130.28820995    -0.00001382    -0.00102750  0.46D-05  0.98D-05  4  4     0.96     0.22
   5      1.14510636    -0.45137484  -130.28824165    -0.00003171    -0.00024107  0.12D-05  0.17D-05  5  5     1.16     0.22
   6      1.14547063    -0.45135570  -130.28822252     0.00001914    -0.00004521  0.10D-06  0.40D-06  6  6     1.36     0.22
   7      1.14554356    -0.45135733  -130.28822414    -0.00000162    -0.00000105  0.17D-07  0.96D-07  6  1     1.56     0.22
   8      1.14556464    -0.45135781  -130.28822462    -0.00000048     0.00000173  0.33D-08  0.18D-07  6  2     1.76     0.22
   9      1.14557336    -0.45135719  -130.28822400     0.00000061    -0.00000093  0.27D-08  0.20D-08  6  3     1.96     0.22
  10      1.14557356    -0.45135773  -130.28822454    -0.00000054    -0.00000001  0.54D-09  0.29D-09  6  4     2.14     0.23
  11      1.14557193    -0.45135785  -130.28822466    -0.00000012     0.00000052  0.16D-09  0.35D-10  6  5     2.34     0.23
  12      1.14557056    -0.45135805  -130.28822486    -0.00000020     0.00000044  0.16D-10  0.98D-11  6  6     2.54     0.23
  13      1.14556980    -0.45135807  -130.28822489    -0.00000002     0.00000018  0.56D-11  0.19D-11  6  1     2.71     0.23
  14      1.14556933    -0.45135810  -130.28822491    -0.00000002     0.00000010  0.83D-12  0.61D-12  6  2     2.92     0.23
  15      1.14556914    -0.45135810  -130.28822491    -0.00000000     0.00000002  0.25D-12  0.18D-12  6  3     3.12     0.23
  16      1.14556904    -0.45135810  -130.28822492    -0.00000000     0.00000001  0.41D-13  0.63D-13  6  4     3.33     0.23
  17      1.14556898    -0.45135811  -130.28822492    -0.00000000     0.00000001  0.29D-14  0.14D-13  6  5     3.53     0.23
  18      1.14556897    -0.45135811  -130.28822492     0.00000000     0.00000000  0.11D-14  0.33D-14  6  6     3.71     0.23
  19      1.14556898    -0.45135811  -130.28822492     0.00000000    -0.00000000  0.14D-15  0.23D-15  6  5     3.90     0.23
  20      1.14556898    -0.45135811  -130.28822492    -0.00000000    -0.00000000  0.55D-16  0.37D-16  6  1     4.10     0.23
  21      1.14556898    -0.45135811  -130.28822492     0.00000000     0.00000000  0.13D-16  0.80D-17  6  2     4.30     0.23
  22      1.14556897    -0.45135811  -130.28822492    -0.00000000     0.00000000  0.36D-17  0.94D-18  6  3     4.51     0.23
  23      1.14556897    -0.45135811  -130.28822492     0.00000000     0.00000000  0.92D-18  0.30D-18  6  4     4.71     0.23
  24      1.14556897    -0.45135811  -130.28822492    -0.00000000     0.00000000  0.25D-18  0.57D-19  6  6     4.92     0.23
  25      1.14556897    -0.45135811  -130.28822492     0.00000000    -0.00000000  0.41D-19  0.26D-19  6  5     5.14     0.23
  26      1.14556897    -0.45135811  -130.28822492     0.00000000    -0.00000000  0.62D-20  0.10D-19  6  1     5.33     0.23
  27      1.14556897    -0.45135811  -130.28822492    -0.00000000    -0.00000000  0.27D-21  0.13D-20  6  3     5.53     0.23
  28      1.14556897    -0.45135811  -130.28822492     0.00000000     0.00000000  0.65D-22  0.16D-21  6  2     5.73     0.23

 Norm of t1 vector:      0.08076925      S-energy:     0.00000000      T1 diagnostic:  0.01648695
                                                                       D1 diagnostic:  0.04425456

 Doubles amplitudes (print threshold =  0.500E-01):

         I         J         SYM. A    SYM. B    A         B      T(IJ, AB)

         6         6         2         2         1         1     -0.11611906


 Total CPU time for triples:      1.59 sec


 RESULTS
 =======

  Reference energy                   -129.836866812594
  CCSD singlet pair energy             -0.309823441965
  CCSD triplet pair energy             -0.141534665493
  CCSD correlation energy              -0.451358107457

  Triples (T) contribution             -0.021390644870
  Total correlation energy             -0.472748752327

  CCSD total energy                  -130.288224920051
  CCSD[T] energy                     -130.310746853480
  CCSD-T energy                      -130.309197192296
 !CCSD(T) total energy               -130.309615564921

 Timing summary (sec):

 STEP                 CPU(USER)    SYS     CPU(TOT)    WALL
 Transformation          0.19      0.05      0.24      0.24
 CCSD iterations         5.55      0.79      6.34      6.35
 Triples                 1.59      0.03      1.62      1.62

 Program statistics:

 Available memory in ccsd:               994999756
 Min. memory needed in ccsd:                389120
 Max. memory used in ccsd:                  473124
 Max. memory used in cckext:                599488 (28 integral passes)



 **********************************************************************************************************************************
 DATASETS  * FILE   NREC   LENGTH (MB)   RECORD NAMES
              1      20      128.20       500      610      700      900      950      970     1000      129      960     1100   
                                          VAR    BASINP    GEOM    SYMINP    ZMAT    AOBASIS   BASIS     P2S    ABASIS      S 
                                         1400     1410     1200     1210     1080     1600     1650     1300     1700     1380   
                                           T        V       H0       H01     AOSYM     SMH    MOLCAS    ERIS     OPER     JKOP   

              2       4        2.94       700     1000      520     2100   
                                         GEOM     BASIS   MCVARS     RHF  

 PROGRAMS   *        TOTAL   CCSD(T)        HF       INT
 CPU TIMES  *        10.18      7.35      1.22      1.52
 REAL TIME  *        12.50 SEC
 DISK USED  *       327.55 MB      
 **********************************************************************************************************************************

 CCSD(T)/aug-cc-pVTZ energy=   -130.309615564921

        CCSD(T)         HF-SCF  
   -130.30961556   -129.83686681
 **********************************************************************************************************************************
 Molpro calculation terminated
 Variable memory released
