
 Primary working directories    : /tmp/r2666/234998.maple
 Secondary working directories  : /tmp/r2666/234998.maple
 Wavefunction directory         : /ddn/home4/r2666/wfu/
 Main file repository           : /tmp/r2666/234998.maple/

 SHA1      : d5ffa45e93fdbca01ffc919aa182cfdae0147319
 NAME      : 2015.1.35
 ARCHNAME  : linux/x86_64
 FC        : /opt/intel/composer_xe_2015.1.133/bin/intel64/ifort
 BLASLIB   : -Wl,-_start-group /opt/intel/mkl/lib/intel64/libmkl_intel_ilp64.a /opt/intel/mkl/lib/intel64/libmkl_intel_thread.a /opt/intel/mkl/lib/intel64/libmkl_core.a -Wl,-_end-group
 id        : olemiss

 Nodes     nprocs
 cn089        1

 Using customized tuning parameters: mindgm=1; mindgv=20; mindgc=4; mindgr=1; noblas=0; minvec=7
 default implementation of scratch files=df  

 ***,hno CCSD(T)/TZ-F12 QFF
 memory, 995, m;
 gthresh,energy=1.d-12,zero=1.d-22,oneint=1.d-22,twoint=1.d-22;
 gthresh,optgrad=1.d-8,optstep=1.d-8;
 nocompress;
 geomtyp=xyz
 bohr
 geometry={
 3
        112       112
 N        0.0000000000       -0.1700884268       -1.1359511847
 H        0.0000000000        1.6738077865       -1.9283586020
 O        0.0000000000        0.0380484303        1.1137201957
 }
 
 basis=avtz
   {hf,maxit=500;accu,20;}
 {ccsd(t),nocheck,maxit=250;orbital,IGNORE_ERROR;}

 Variables initialized (889), CPU time= 0.00 sec
 Commands  initialized (702), CPU time= 0.01 sec, 572 directives.
 Default parameters read. Elapsed time= 0.04 sec

 Checking input...
 Passed
1


                                         ***  PROGRAM SYSTEM MOLPRO  ***
                                       Copyright, TTI GmbH Stuttgart, 2015
                                    Version 2015.1 linked Jul  9 2018 13:16:40


 **********************************************************************************************************************************
 LABEL *   hno CCSD(T)/TZ-F12 QFF                                                        
  64 bit serial version                                                                  DATE: 08-Feb-20          TIME: 17:56:48  
 **********************************************************************************************************************************

 SHA1:             d5ffa45e93fdbca01ffc919aa182cfdae0147319
 **********************************************************************************************************************************

 THRESHOLDS:

 ZERO    =  1.00D-22  ONEINT  =  1.00D-22  TWOINT  =  1.00D-22  PREFAC  =  1.00D-14  LOCALI  =  1.00D-09  EORDER  =  1.00D-04
 ENERGY  =  1.00D-12  ETEST   =  0.00D+00  EDENS   =  0.00D+00  THRDEDEF=  1.00D-06  GRADIENT=  1.00D-02  STEP    =  1.00D-03
 ORBITAL =  1.00D-05  CIVEC   =  1.00D-05  COEFF   =  1.00D-04  PRINTCI =  5.00D-02  PUNCHCI =  9.90D+01  OPTGRAD =  3.00D-04
 OPTENERG=  1.00D-06  OPTSTEP =  3.00D-04  THRGRAD =  1.00D-10  COMPRESS=  1.00D-11  VARMIN  =  1.00D-07  VARMAX  =  1.00D-03
 THRDOUB =  0.00D+00  THRDIV  =  1.00D-05  THRRED  =  1.00D-07  THRPSP  =  1.00D+00  THRDC   =  1.00D-10  THRCS   =  1.00D-10
 THRNRM  =  1.00D-08  THREQ   =  0.00D+00  THRDE   =  1.00D+00  THRREF  =  1.00D-05  SPARFAC =  1.00D+00  THRDLP  =  1.00D-07
 THRDIA  =  1.00D-10  THRDLS  =  1.00D-07  THRGPS  =  0.00D+00  THRKEX  =  0.00D+00  THRDIS  =  2.00D-01  THRVAR  =  1.00D-10
 THRLOC  =  1.00D-06  THRGAP  =  1.00D-06  THRLOCT = -1.00D+00  THRGAPT = -1.00D+00  THRORB  =  1.00D-06  THRMLTP =  0.00D+00
 THRCPQCI=  1.00D-10  KEXTA   =  0.00D+00  THRCOARS=  0.00D+00  SYMTOL  =  1.00D-06  GRADTOL =  1.00D-06  THROVL  =  1.00D-08
 THRORTH =  1.00D-08  GRID    =  1.00D-06  GRIDMAX =  1.00D-03  DTMAX   =  0.00D+00  THROCCDE=  1.00D-01  THROCCDE=  1.00D-01



 THRESHOLDS:

 ZERO    =  1.00D-22  ONEINT  =  1.00D-22  TWOINT  =  1.00D-22  PREFAC  =  1.00D-14  LOCALI  =  1.00D-09  EORDER  =  1.00D-04
 ENERGY  =  1.00D-12  ETEST   =  0.00D+00  EDENS   =  0.00D+00  THRDEDEF=  1.00D-06  GRADIENT=  1.00D-02  STEP    =  1.00D-03
 ORBITAL =  1.00D-05  CIVEC   =  1.00D-05  COEFF   =  1.00D-04  PRINTCI =  5.00D-02  PUNCHCI =  9.90D+01  OPTGRAD =  1.00D-08
 OPTENERG=  1.00D-06  OPTSTEP =  1.00D-08  THRGRAD =  1.00D-10  COMPRESS=  1.00D-11  VARMIN  =  1.00D-07  VARMAX  =  1.00D-03
 THRDOUB =  0.00D+00  THRDIV  =  1.00D-05  THRRED  =  1.00D-07  THRPSP  =  1.00D+00  THRDC   =  1.00D-10  THRCS   =  1.00D-10
 THRNRM  =  1.00D-08  THREQ   =  0.00D+00  THRDE   =  1.00D+00  THRREF  =  1.00D-05  SPARFAC =  1.00D+00  THRDLP  =  1.00D-07
 THRDIA  =  1.00D-10  THRDLS  =  1.00D-07  THRGPS  =  0.00D+00  THRKEX  =  0.00D+00  THRDIS  =  2.00D-01  THRVAR  =  1.00D-10
 THRLOC  =  1.00D-06  THRGAP  =  1.00D-06  THRLOCT = -1.00D+00  THRGAPT = -1.00D+00  THRORB  =  1.00D-06  THRMLTP =  0.00D+00
 THRCPQCI=  1.00D-10  KEXTA   =  0.00D+00  THRCOARS=  0.00D+00  SYMTOL  =  1.00D-06  GRADTOL =  1.00D-06  THROVL  =  1.00D-08
 THRORTH =  1.00D-08  GRID    =  1.00D-06  GRIDMAX =  1.00D-03  DTMAX   =  0.00D+00  THROCCDE=  1.00D-01  THROCCDE=  1.00D-01



 Input parameters for SORTINT:

 COMPRESS =    0.000000
 C_FINAL  =    1.000000
 DEBUG    =   -1.000000
 C_SORT1  =    0.000000
 C_SEWARD =    0.000000
 THRESH   =    0.000000
 IO       =  molpro                                                          
 SPRI     =    0.000000
 SETTING GEOMTYP        =    XYZ
 ZUNIT=BOHR
 

 Variable memory set to  995000000 words,  buffer space   230000 words

 SETTING BASIS          =    AVTZ


 Recomputing integrals since basis changed


 Using spherical harmonics

 Library entry N      S aug-cc-pVTZ          selected for orbital group  1
 Library entry N      P aug-cc-pVTZ          selected for orbital group  1
 Library entry N      D aug-cc-pVTZ          selected for orbital group  1
 Library entry N      F aug-cc-pVTZ          selected for orbital group  1
 Library entry H      S aug-cc-pVTZ          selected for orbital group  2
 Library entry H      P aug-cc-pVTZ          selected for orbital group  2
 Library entry H      D aug-cc-pVTZ          selected for orbital group  2
 Library entry O      S aug-cc-pVTZ          selected for orbital group  3
 Library entry O      P aug-cc-pVTZ          selected for orbital group  3
 Library entry O      D aug-cc-pVTZ          selected for orbital group  3
 Library entry O      F aug-cc-pVTZ          selected for orbital group  3


 PROGRAM * SEWARD (Integral evaluation for generally contracted gaussian basis sets)     Author: Roland Lindh, 1990

 Geometry written to block  1 of record 700


 Point group  Cs  



 ATOMIC COORDINATES

 NR  ATOM    CHARGE       X              Y              Z

   1  N       7.00    0.000000000   -0.170088427   -1.135951185
   2  H       1.00    0.000000000    1.673807787   -1.928358602
   3  O       8.00    0.000000000    0.038048430    1.113720196

 Bond lengths in Bohr (Angstrom)

 1-2  2.006953602  1-3  2.259279149
     ( 1.062034110)     ( 1.195559039)

 Bond angles

  2-1-3  107.96954377

 NUCLEAR CHARGE:                   16
 NUMBER OF PRIMITIVE AOS:         161
 NUMBER OF SYMMETRY AOS:          141
 NUMBER OF CONTRACTIONS:          115   (  76A'  +  39A"  )
 NUMBER OF CORE ORBITALS:           2   (   2A'  +   0A"  )
 NUMBER OF VALENCE ORBITALS:        9   (   7A'  +   2A"  )


 NUCLEAR REPULSION ENERGY   30.59071149

 Eigenvalues of metric

         1 0.229E-03 0.500E-03 0.179E-02 0.212E-02 0.244E-02 0.340E-02 0.432E-02 0.519E-02
         2 0.382E-02 0.103E-01 0.257E-01 0.372E-01 0.510E-01 0.624E-01 0.803E-01 0.119E+00


 Contracted 2-electron integrals neglected if value below      1.0D-22

       10790064. INTEGRALS WRITTEN OUT IN    2635 BLOCKS ON RECORD 1290 OF FILE 1


 NUMBER OF SORTED TWO-ELECTRON INTEGRALS:   11433631.     BUFFER LENGTH:  32768
 NUMBER OF SEGMENTS:   1  SEGMENT LENGTH:   11433631      RECORD LENGTH: 524288

 Memory used in sort:      11.99 MW

 SORT1 READ    10790064. AND WROTE    10943632. INTEGRALS IN     32 RECORDS. CPU TIME:     0.14 SEC, REAL TIME:     0.22 SEC
 SORT2 READ    10943632. AND WROTE    11433631. INTEGRALS IN      1 RECORDS. CPU TIME:     0.16 SEC, REAL TIME:     0.22 SEC

 FILE SIZES:   FILE 1:   193.0 MBYTE,  FILE 4:   134.3 MBYTE,   TOTAL:    327.2 MBYTE

 OPERATOR DM      FOR CENTER  0  COORDINATES:    0.000000    0.000000    0.000000


 **********************************************************************************************************************************
 DATASETS  * FILE   NREC   LENGTH (MB)   RECORD NAMES
              1      19      111.05       500      610      700      900      950      970     1000      129      960     1100   
                                          VAR    BASINP    GEOM    SYMINP    ZMAT    AOBASIS   BASIS     P2S    ABASIS      S 
                                         1400     1410     1200     1210     1080     1600     1650     1300     1700   
                                           T        V       H0       H01     AOSYM     SMH    MOLCAS    ERIS     OPER   

 PROGRAMS   *        TOTAL       INT
 CPU TIMES  *         1.31      1.23
 REAL TIME  *         2.16 SEC
 DISK USED  *       327.55 MB      
 **********************************************************************************************************************************


 PROGRAM * RHF-SCF (CLOSED SHELL)       Authors: W. Meyer, H.-J. Werner


 NUMBER OF ELECTRONS:       8+    8-
 CONVERGENCE THRESHOLDS:    1.00E-10 (Density)    1.00E-13 (Energy)
 MAX. NUMBER OF ITERATIONS:      500
 INTERPOLATION TYPE:            DIIS
 INTERPOLATION STEPS:              2 (START)      1 (STEP)
 LEVEL SHIFTS:                  0.00 (CLOSED)  0.00 (OPEN) 



 Orbital guess generated from atomic densities. Full valence occupancy:    9   2

 Molecular orbital dump at record        2100.2

 Initial occupancy:   7   1

 ITERATION    DDIFF          GRAD             ENERGY        2-EL.EN.            DIPOLE MOMENTS         DIIS   ORB.
    1      0.000D+00      0.000D+00      -129.79073548    154.283512    0.00000    0.57751   -0.98095    0    start
    2      0.000D+00      0.106D-01      -129.81852661    155.588682    0.00000    0.60176   -0.20941    1    diag
    3      0.117D-01      0.796D-02      -129.83962120    155.669273    0.00000    0.54674   -0.57141    2    diag
    4      0.576D-02      0.126D-02      -129.84038701    155.389390    0.00000    0.55454   -0.51363    3    diag
    5      0.106D-02      0.415D-03      -129.84050971    155.482998    0.00000    0.56025   -0.51672    4    diag
    6      0.443D-03      0.120D-03      -129.84052933    155.467492    0.00000    0.56069   -0.51285    5    diag
    7      0.170D-03      0.588D-04      -129.84053478    155.470169    0.00000    0.56201   -0.51047    6    diag
    8      0.116D-03      0.193D-04      -129.84053530    155.469549    0.00000    0.56204   -0.50957    7    diag
    9      0.408D-04      0.361D-05      -129.84053533    155.469447    0.00000    0.56201   -0.50937    8    diag
   10      0.769D-05      0.845D-06      -129.84053533    155.469428    0.00000    0.56197   -0.50934    9    orth
   11      0.166D-05      0.172D-06      -129.84053533    155.469424    0.00000    0.56197   -0.50934    9    diag
   12      0.334D-06      0.352D-07      -129.84053533    155.469424    0.00000    0.56196   -0.50934    9    diag
   13      0.732D-07      0.875D-08      -129.84053533    155.469424    0.00000    0.56196   -0.50934    9    diag
   14      0.188D-07      0.186D-08      -129.84053533    155.469424    0.00000    0.56196   -0.50934    9    diag
   15      0.388D-08      0.536D-09      -129.84053533    155.469424    0.00000    0.56196   -0.50934    9    diag
   16      0.105D-08      0.153D-09      -129.84053533    155.469424    0.00000    0.56196   -0.50934    9    diag
   17      0.201D-09      0.459D-10      -129.84053533    155.469424    0.00000    0.56196   -0.50934    9    diag
   18      0.601D-10      0.161D-10      -129.84053533    155.469424    0.00000    0.56196   -0.50934    9    diag
   19      0.288D-10      0.362D-11      -129.84053533    155.469424    0.00000    0.56196   -0.50934    9    fixocc
   20      0.674D-11      0.559D-12      -129.84053533    155.469424    0.00000    0.56196   -0.50934    9    orth
   21      0.180D-11      0.207D-12      -129.84053533    155.469424    0.00000    0.56196   -0.50934    9    diag
   22      0.236D-11      0.917D-13      -129.84053533    155.469424    0.00000    0.56196   -0.50934    9    diag
   23      0.725D-12      0.707D-13      -129.84053533    155.469424    0.00000    0.56196   -0.50934    9    diag
   24      0.517D-12      0.543D-13      -129.84053533    155.469424    0.00000    0.56196   -0.50934    9    diag
   25      0.261D-12      0.546D-13      -129.84053533    155.469424    0.00000    0.56196   -0.50934    9    diag
   26      0.193D-12      0.484D-13      -129.84053533    155.469424    0.00000    0.56196   -0.50934    9    diag
   27      0.793D-13      0.494D-13      -129.84053533    155.469424    0.00000    0.56196   -0.50934    0    orth

 Final occupancy:   7   1

 !RHF STATE 1.1 Energy               -129.840535328003
 Nuclear energy                        30.59071149
 One-electron energy                 -238.16595866
 Two-electron energy                   77.73471184
 Virial quotient                       -1.00187985
 !RHF STATE 1.1 Dipole moment           0.00000000     0.56196325    -0.50933621
 Dipole moment /Debye                   0.00000000     1.42827456    -1.29451871

 Orbital energies:

         1.1          2.1          3.1          4.1          5.1          6.1          7.1          8.1          9.1
    -20.655536   -15.713750    -1.541113    -0.989543    -0.750092    -0.669662    -0.426153     0.029375     0.092218

         1.2          2.2          3.2
     -0.602417     0.068330     0.130739

 HOMO      7.1    -0.426153 =     -11.5962eV
 LUMO      8.1     0.029375 =       0.7993eV
 LUMO-HOMO         0.455528 =      12.3956eV


 **********************************************************************************************************************************
 DATASETS  * FILE   NREC   LENGTH (MB)   RECORD NAMES
              1      19      111.05       500      610      700      900      950      970     1000      129      960     1100   
                                          VAR    BASINP    GEOM    SYMINP    ZMAT    AOBASIS   BASIS     P2S    ABASIS      S 
                                         1400     1410     1200     1210     1080     1600     1650     1300     1700   
                                           T        V       H0       H01     AOSYM     SMH    MOLCAS    ERIS     OPER   

              2       4        2.94       700     1000      520     2100   
                                         GEOM     BASIS   MCVARS     RHF  

 PROGRAMS   *        TOTAL        HF       INT
 CPU TIMES  *         2.65      1.34      1.23
 REAL TIME  *         3.91 SEC
 DISK USED  *       327.55 MB      
 **********************************************************************************************************************************


 PROGRAM * CCSD (Closed-shell coupled cluster)     Authors: C. Hampel, H.-J. Werner, 1991, M. Deegan, P.J. Knowles, 1992


 Convergence thresholds:  THRVAR = 1.00D-08  THRDEN = 1.00D-12

 CCSD(T)     terms to be evaluated (factor= 1.000)


 Number of core orbitals:           2 (   2   0 )
 Number of closed-shell orbitals:   6 (   5   1 )
 Number of external orbitals:     107 (  69  38 )

 Molecular orbitals read from record     2100.2  Type=RHF/CANONICAL (state 1.1)

 Number of N-1 electron functions:               6
 Number of N-2 electron functions:              21
 Number of singly external CSFs:               383
 Number of doubly external CSFs:            107206
 Total number of CSFs:                      107590

 Length of J-op  integral file:               0.00 MB
 Length of K-op  integral file:               0.54 MB
 Length of 3-ext integral record:             0.00 MB

 Memory could be reduced to 5.94 Mwords without degradation in triples

 Integral transformation finished. Total CPU:   0.14 sec, npass=  1  Memory used:   1.65 MW

 Reference energy:                   -129.84053533

 MP2 singlet pair energy:              -0.27838708
 MP2 triplet pair energy:              -0.16446232
 MP2 correlation energy:               -0.44284940
 MP2 total energy:                   -130.28338473

 SCS-MP2 correlation energy:           -0.43639660   (PS=  1.200000  PT=  0.333333)
 SCS-MP2 total energy:               -130.27693193

 ITER.      SQ.NORM     CORR.ENERGY   TOTAL ENERGY   ENERGY CHANGE        DEN1      VAR(S)    VAR(P)  DIIS     TIME  TIME/IT
   1      1.11994479    -0.44740574  -130.28794106    -0.00455634     0.01108613  0.30D-02  0.30D-02  1  1     0.29     0.16
   2      1.13083097    -0.44769028  -130.28822560    -0.00028454    -0.01220061  0.95D-04  0.50D-03  2  2     0.45     0.17
   3      1.13712261    -0.44807644  -130.28861176    -0.00038616    -0.00294162  0.51D-04  0.49D-04  3  3     0.60     0.17
   4      1.13987839    -0.44808574  -130.28862107    -0.00000930    -0.00094246  0.40D-05  0.88D-05  4  4     0.76     0.17
   5      1.14087049    -0.44811289  -130.28864821    -0.00002715    -0.00021087  0.11D-05  0.16D-05  5  5     0.90     0.17
   6      1.14119926    -0.44809733  -130.28863265     0.00001556    -0.00003970  0.11D-06  0.39D-06  6  6     1.05     0.17
   7      1.14127515    -0.44809807  -130.28863340    -0.00000074    -0.00000226  0.21D-07  0.87D-07  6  1     1.20     0.17
   8      1.14129716    -0.44809881  -130.28863414    -0.00000075     0.00000127  0.37D-08  0.15D-07  6  2     1.34     0.17
   9      1.14130264    -0.44809837  -130.28863370     0.00000044     0.00000046  0.25D-08  0.17D-08  6  4     1.50     0.17
  10      1.14130480    -0.44809883  -130.28863416    -0.00000046    -0.00000067  0.40D-09  0.19D-09  6  3     1.64     0.17
  11      1.14130427    -0.44809886  -130.28863419    -0.00000003    -0.00000005  0.14D-09  0.30D-10  6  5     1.78     0.17
  12      1.14130325    -0.44809900  -130.28863433    -0.00000014     0.00000032  0.17D-10  0.96D-11  6  6     1.94     0.17
  13      1.14130244    -0.44809903  -130.28863436    -0.00000003     0.00000020  0.60D-11  0.19D-11  6  1     2.09     0.17
  14      1.14130193    -0.44809906  -130.28863439    -0.00000003     0.00000013  0.10D-11  0.59D-12  6  2     2.25     0.17
  15      1.14130173    -0.44809907  -130.28863439    -0.00000001     0.00000003  0.28D-12  0.19D-12  6  4     2.40     0.17
  16      1.14130161    -0.44809907  -130.28863440    -0.00000000     0.00000001  0.35D-13  0.23D-13  6  5     2.55     0.17
  17      1.14130158    -0.44809907  -130.28863440    -0.00000000     0.00000000  0.66D-15  0.16D-14  6  3     2.71     0.17
  18      1.14130158    -0.44809907  -130.28863440     0.00000000    -0.00000000  0.22D-15  0.22D-15  6  6     2.85     0.17
  19      1.14130158    -0.44809907  -130.28863440     0.00000000    -0.00000000  0.62D-16  0.32D-16  6  1     3.02     0.17
  20      1.14130158    -0.44809907  -130.28863440     0.00000000    -0.00000000  0.17D-16  0.54D-17  6  2     3.17     0.17
  21      1.14130158    -0.44809907  -130.28863440     0.00000000    -0.00000000  0.26D-17  0.14D-17  6  5     3.32     0.17
  22      1.14130158    -0.44809907  -130.28863440    -0.00000000     0.00000000  0.27D-18  0.16D-18  6  4     3.47     0.17
  23      1.14130158    -0.44809907  -130.28863440     0.00000000     0.00000000  0.94D-19  0.36D-19  6  3     3.62     0.17
  24      1.14130158    -0.44809907  -130.28863440     0.00000000    -0.00000000  0.10D-19  0.52D-20  6  2     3.76     0.17
  25      1.14130158    -0.44809907  -130.28863440     0.00000000    -0.00000000  0.16D-20  0.86D-21  6  6     3.91     0.17
  26      1.14130158    -0.44809907  -130.28863440     0.00000000    -0.00000000  0.41D-21  0.21D-21  6  1     4.07     0.17

 Norm of t1 vector:      0.07686616      S-energy:     0.00000000      T1 diagnostic:  0.01569024
                                                                       D1 diagnostic:  0.04045820

 Doubles amplitudes (print threshold =  0.500E-01):

         I         J         SYM. A    SYM. B    A         B      T(IJ, AB)

         6         6         2         2         1         1     -0.10327531


 Total CPU time for triples:      1.19 sec


 RESULTS
 =======

  Reference energy                   -129.840535328003
  CCSD singlet pair energy             -0.307011151677
  CCSD triplet pair energy             -0.141087918565
  CCSD correlation energy              -0.448099070242

  Triples (T) contribution             -0.020598803464
  Total correlation energy             -0.468697873706

  CCSD total energy                  -130.288634398246
  CCSD[T] energy                     -130.310257164744
  CCSD-T energy                      -130.308837636730
 !CCSD(T) total energy               -130.309233201709

 Timing summary (sec):

 STEP                 CPU(USER)    SYS     CPU(TOT)    WALL
 Transformation          0.15      0.03      0.18      0.18
 CCSD iterations         3.93      0.51      4.44      4.44
 Triples                 1.19      0.06      1.25      1.25

 Program statistics:

 Available memory in ccsd:               994999756
 Min. memory needed in ccsd:                389120
 Max. memory used in ccsd:                  473124
 Max. memory used in cckext:                599488 (26 integral passes)



 **********************************************************************************************************************************
 DATASETS  * FILE   NREC   LENGTH (MB)   RECORD NAMES
              1      20      128.20       500      610      700      900      950      970     1000      129      960     1100   
                                          VAR    BASINP    GEOM    SYMINP    ZMAT    AOBASIS   BASIS     P2S    ABASIS      S 
                                         1400     1410     1200     1210     1080     1600     1650     1300     1700     1380   
                                           T        V       H0       H01     AOSYM     SMH    MOLCAS    ERIS     OPER     JKOP   

              2       4        2.94       700     1000      520     2100   
                                         GEOM     BASIS   MCVARS     RHF  

 PROGRAMS   *        TOTAL   CCSD(T)        HF       INT
 CPU TIMES  *         7.95      5.29      1.34      1.23
 REAL TIME  *         9.81 SEC
 DISK USED  *       327.55 MB      
 **********************************************************************************************************************************

 CCSD(T)/aug-cc-pVTZ energy=   -130.309233201709

        CCSD(T)         HF-SCF  
   -130.30923320   -129.84053533
 **********************************************************************************************************************************
 Molpro calculation terminated
 Variable memory released
