
 Primary working directories    : /tmp/r2666/234914.maple
 Secondary working directories  : /tmp/r2666/234914.maple
 Wavefunction directory         : /ddn/home4/r2666/wfu/
 Main file repository           : /tmp/r2666/234914.maple/

 SHA1      : d5ffa45e93fdbca01ffc919aa182cfdae0147319
 NAME      : 2015.1.35
 ARCHNAME  : linux/x86_64
 FC        : /opt/intel/composer_xe_2015.1.133/bin/intel64/ifort
 BLASLIB   : -Wl,-_start-group /opt/intel/mkl/lib/intel64/libmkl_intel_ilp64.a /opt/intel/mkl/lib/intel64/libmkl_intel_thread.a /opt/intel/mkl/lib/intel64/libmkl_core.a -Wl,-_end-group
 id        : olemiss

 Nodes     nprocs
 cn025        1

 Using customized tuning parameters: mindgm=1; mindgv=20; mindgc=4; mindgr=1; noblas=0; minvec=7
 default implementation of scratch files=df  

 ***,hno CCSD(T)/TZ-F12 QFF
 memory, 995, m;
 gthresh,energy=1.d-12,zero=1.d-22,oneint=1.d-22,twoint=1.d-22;
 gthresh,optgrad=1.d-8,optstep=1.d-8;
 nocompress;
 geomtyp=xyz
 bohr
 geometry={
 3
         28        28
 N        0.0000000000       -0.1599481529       -1.1527880629
 H        0.0000000000        1.6624705526       -1.9232934427
 O        0.0000000000        0.0392453903        1.1254919147
 }
 
 basis=avtz
   {hf,maxit=500;accu,20;}
 {ccsd(t),nocheck,maxit=250;orbital,IGNORE_ERROR;}

 Variables initialized (889), CPU time= 0.00 sec
 Commands  initialized (702), CPU time= 0.01 sec, 572 directives.
 Default parameters read. Elapsed time= 0.07 sec

 Checking input...
 Passed
1


                                         ***  PROGRAM SYSTEM MOLPRO  ***
                                       Copyright, TTI GmbH Stuttgart, 2015
                                    Version 2015.1 linked Jul  9 2018 13:16:40


 **********************************************************************************************************************************
 LABEL *   hno CCSD(T)/TZ-F12 QFF                                                        
  64 bit serial version                                                                  DATE: 08-Feb-20          TIME: 17:56:09  
 **********************************************************************************************************************************

 SHA1:             d5ffa45e93fdbca01ffc919aa182cfdae0147319
 **********************************************************************************************************************************

 THRESHOLDS:

 ZERO    =  1.00D-22  ONEINT  =  1.00D-22  TWOINT  =  1.00D-22  PREFAC  =  1.00D-14  LOCALI  =  1.00D-09  EORDER  =  1.00D-04
 ENERGY  =  1.00D-12  ETEST   =  0.00D+00  EDENS   =  0.00D+00  THRDEDEF=  1.00D-06  GRADIENT=  1.00D-02  STEP    =  1.00D-03
 ORBITAL =  1.00D-05  CIVEC   =  1.00D-05  COEFF   =  1.00D-04  PRINTCI =  5.00D-02  PUNCHCI =  9.90D+01  OPTGRAD =  3.00D-04
 OPTENERG=  1.00D-06  OPTSTEP =  3.00D-04  THRGRAD =  1.00D-10  COMPRESS=  1.00D-11  VARMIN  =  1.00D-07  VARMAX  =  1.00D-03
 THRDOUB =  0.00D+00  THRDIV  =  1.00D-05  THRRED  =  1.00D-07  THRPSP  =  1.00D+00  THRDC   =  1.00D-10  THRCS   =  1.00D-10
 THRNRM  =  1.00D-08  THREQ   =  0.00D+00  THRDE   =  1.00D+00  THRREF  =  1.00D-05  SPARFAC =  1.00D+00  THRDLP  =  1.00D-07
 THRDIA  =  1.00D-10  THRDLS  =  1.00D-07  THRGPS  =  0.00D+00  THRKEX  =  0.00D+00  THRDIS  =  2.00D-01  THRVAR  =  1.00D-10
 THRLOC  =  1.00D-06  THRGAP  =  1.00D-06  THRLOCT = -1.00D+00  THRGAPT = -1.00D+00  THRORB  =  1.00D-06  THRMLTP =  0.00D+00
 THRCPQCI=  1.00D-10  KEXTA   =  0.00D+00  THRCOARS=  0.00D+00  SYMTOL  =  1.00D-06  GRADTOL =  1.00D-06  THROVL  =  1.00D-08
 THRORTH =  1.00D-08  GRID    =  1.00D-06  GRIDMAX =  1.00D-03  DTMAX   =  0.00D+00  THROCCDE=  1.00D-01  THROCCDE=  1.00D-01



 THRESHOLDS:

 ZERO    =  1.00D-22  ONEINT  =  1.00D-22  TWOINT  =  1.00D-22  PREFAC  =  1.00D-14  LOCALI  =  1.00D-09  EORDER  =  1.00D-04
 ENERGY  =  1.00D-12  ETEST   =  0.00D+00  EDENS   =  0.00D+00  THRDEDEF=  1.00D-06  GRADIENT=  1.00D-02  STEP    =  1.00D-03
 ORBITAL =  1.00D-05  CIVEC   =  1.00D-05  COEFF   =  1.00D-04  PRINTCI =  5.00D-02  PUNCHCI =  9.90D+01  OPTGRAD =  1.00D-08
 OPTENERG=  1.00D-06  OPTSTEP =  1.00D-08  THRGRAD =  1.00D-10  COMPRESS=  1.00D-11  VARMIN  =  1.00D-07  VARMAX  =  1.00D-03
 THRDOUB =  0.00D+00  THRDIV  =  1.00D-05  THRRED  =  1.00D-07  THRPSP  =  1.00D+00  THRDC   =  1.00D-10  THRCS   =  1.00D-10
 THRNRM  =  1.00D-08  THREQ   =  0.00D+00  THRDE   =  1.00D+00  THRREF  =  1.00D-05  SPARFAC =  1.00D+00  THRDLP  =  1.00D-07
 THRDIA  =  1.00D-10  THRDLS  =  1.00D-07  THRGPS  =  0.00D+00  THRKEX  =  0.00D+00  THRDIS  =  2.00D-01  THRVAR  =  1.00D-10
 THRLOC  =  1.00D-06  THRGAP  =  1.00D-06  THRLOCT = -1.00D+00  THRGAPT = -1.00D+00  THRORB  =  1.00D-06  THRMLTP =  0.00D+00
 THRCPQCI=  1.00D-10  KEXTA   =  0.00D+00  THRCOARS=  0.00D+00  SYMTOL  =  1.00D-06  GRADTOL =  1.00D-06  THROVL  =  1.00D-08
 THRORTH =  1.00D-08  GRID    =  1.00D-06  GRIDMAX =  1.00D-03  DTMAX   =  0.00D+00  THROCCDE=  1.00D-01  THROCCDE=  1.00D-01



 Input parameters for SORTINT:

 COMPRESS =    0.000000
 C_FINAL  =    1.000000
 DEBUG    =   -1.000000
 C_SORT1  =    0.000000
 C_SEWARD =    0.000000
 THRESH   =    0.000000
 IO       =  molpro                                                          
 SPRI     =    0.000000
 SETTING GEOMTYP        =    XYZ
 ZUNIT=BOHR
 

 Variable memory set to  995000000 words,  buffer space   230000 words

 SETTING BASIS          =    AVTZ


 Recomputing integrals since basis changed


 Using spherical harmonics

 Library entry N      S aug-cc-pVTZ          selected for orbital group  1
 Library entry N      P aug-cc-pVTZ          selected for orbital group  1
 Library entry N      D aug-cc-pVTZ          selected for orbital group  1
 Library entry N      F aug-cc-pVTZ          selected for orbital group  1
 Library entry H      S aug-cc-pVTZ          selected for orbital group  2
 Library entry H      P aug-cc-pVTZ          selected for orbital group  2
 Library entry H      D aug-cc-pVTZ          selected for orbital group  2
 Library entry O      S aug-cc-pVTZ          selected for orbital group  3
 Library entry O      P aug-cc-pVTZ          selected for orbital group  3
 Library entry O      D aug-cc-pVTZ          selected for orbital group  3
 Library entry O      F aug-cc-pVTZ          selected for orbital group  3


 PROGRAM * SEWARD (Integral evaluation for generally contracted gaussian basis sets)     Author: Roland Lindh, 1990

 Geometry written to block  1 of record 700


 Point group  Cs  



 ATOMIC COORDINATES

 NR  ATOM    CHARGE       X              Y              Z

   1  N       7.00    0.000000000   -0.159948153   -1.152788063
   2  H       1.00    0.000000000    1.662470553   -1.923293443
   3  O       8.00    0.000000000    0.039245390    1.125491915

 Bond lengths in Bohr (Angstrom)

 1-2  1.978607712  1-3  2.286971299
     ( 1.047034111)     ( 1.210213094)

 Bond angles

  2-1-3  107.92153574

 NUCLEAR CHARGE:                   16
 NUMBER OF PRIMITIVE AOS:         161
 NUMBER OF SYMMETRY AOS:          141
 NUMBER OF CONTRACTIONS:          115   (  76A'  +  39A"  )
 NUMBER OF CORE ORBITALS:           2   (   2A'  +   0A"  )
 NUMBER OF VALENCE ORBITALS:        9   (   7A'  +   2A"  )


 NUCLEAR REPULSION ENERGY   30.34054614

 Eigenvalues of metric

         1 0.232E-03 0.499E-03 0.180E-02 0.211E-02 0.255E-02 0.361E-02 0.429E-02 0.512E-02
         2 0.397E-02 0.100E-01 0.262E-01 0.370E-01 0.513E-01 0.620E-01 0.819E-01 0.119E+00


 Contracted 2-electron integrals neglected if value below      1.0D-22

       10790060. INTEGRALS WRITTEN OUT IN    2635 BLOCKS ON RECORD 1290 OF FILE 1


 NUMBER OF SORTED TWO-ELECTRON INTEGRALS:   11433631.     BUFFER LENGTH:  32768
 NUMBER OF SEGMENTS:   1  SEGMENT LENGTH:   11433631      RECORD LENGTH: 524288

 Memory used in sort:      11.99 MW

 SORT1 READ    10790060. AND WROTE    10943631. INTEGRALS IN     32 RECORDS. CPU TIME:     0.22 SEC, REAL TIME:     0.30 SEC
 SORT2 READ    10943631. AND WROTE    11433631. INTEGRALS IN      1 RECORDS. CPU TIME:     0.20 SEC, REAL TIME:     0.25 SEC

 FILE SIZES:   FILE 1:   193.0 MBYTE,  FILE 4:   134.3 MBYTE,   TOTAL:    327.2 MBYTE

 OPERATOR DM      FOR CENTER  0  COORDINATES:    0.000000    0.000000    0.000000


 **********************************************************************************************************************************
 DATASETS  * FILE   NREC   LENGTH (MB)   RECORD NAMES
              1      19      111.05       500      610      700      900      950      970     1000      129      960     1100   
                                          VAR    BASINP    GEOM    SYMINP    ZMAT    AOBASIS   BASIS     P2S    ABASIS      S 
                                         1400     1410     1200     1210     1080     1600     1650     1300     1700   
                                           T        V       H0       H01     AOSYM     SMH    MOLCAS    ERIS     OPER   

 PROGRAMS   *        TOTAL       INT
 CPU TIMES  *         1.68      1.55
 REAL TIME  *         2.46 SEC
 DISK USED  *       327.55 MB      
 **********************************************************************************************************************************


 PROGRAM * RHF-SCF (CLOSED SHELL)       Authors: W. Meyer, H.-J. Werner


 NUMBER OF ELECTRONS:       8+    8-
 CONVERGENCE THRESHOLDS:    1.00E-10 (Density)    1.00E-13 (Energy)
 MAX. NUMBER OF ITERATIONS:      500
 INTERPOLATION TYPE:            DIIS
 INTERPOLATION STEPS:              2 (START)      1 (STEP)
 LEVEL SHIFTS:                  0.00 (CLOSED)  0.00 (OPEN) 



 Orbital guess generated from atomic densities. Full valence occupancy:    9   2

 Molecular orbital dump at record        2100.2

 Initial occupancy:   7   1

 ITERATION    DDIFF          GRAD             ENERGY        2-EL.EN.            DIPOLE MOMENTS         DIIS   ORB.
    1      0.000D+00      0.000D+00      -129.78810810    153.849782    0.00000    0.59386   -1.02704    0    start
    2      0.000D+00      0.107D-01      -129.81551258    155.106858    0.00000    0.61277   -0.20979    1    diag
    3      0.119D-01      0.825D-02      -129.83829862    155.225163    0.00000    0.55894   -0.59547    2    diag
    4      0.594D-02      0.128D-02      -129.83909341    154.935844    0.00000    0.56650   -0.53526    3    diag
    5      0.108D-02      0.422D-03      -129.83921925    155.029529    0.00000    0.57198   -0.53797    4    diag
    6      0.450D-03      0.121D-03      -129.83923928    155.013992    0.00000    0.57234   -0.53386    5    diag
    7      0.172D-03      0.603D-04      -129.83924508    155.016456    0.00000    0.57357   -0.53126    6    diag
    8      0.119D-03      0.206D-04      -129.83924571    155.015797    0.00000    0.57359   -0.53025    7    diag
    9      0.450D-04      0.390D-05      -129.83924574    155.015689    0.00000    0.57355   -0.53004    8    diag
   10      0.866D-05      0.884D-06      -129.83924574    155.015671    0.00000    0.57352   -0.53001    9    orth
   11      0.173D-05      0.175D-06      -129.83924574    155.015668    0.00000    0.57351   -0.53001    9    diag
   12      0.331D-06      0.362D-07      -129.83924574    155.015668    0.00000    0.57351   -0.53001    9    diag
   13      0.714D-07      0.917D-08      -129.83924574    155.015668    0.00000    0.57351   -0.53001    9    diag
   14      0.187D-07      0.188D-08      -129.83924574    155.015668    0.00000    0.57351   -0.53001    9    diag
   15      0.366D-08      0.521D-09      -129.83924574    155.015668    0.00000    0.57351   -0.53001    9    diag
   16      0.100D-08      0.140D-09      -129.83924574    155.015668    0.00000    0.57351   -0.53001    9    diag
   17      0.174D-09      0.388D-10      -129.83924574    155.015668    0.00000    0.57351   -0.53001    9    diag
   18      0.467D-10      0.137D-10      -129.83924574    155.015668    0.00000    0.57351   -0.53001    9    diag
   19      0.246D-10      0.295D-11      -129.83924574    155.015668    0.00000    0.57351   -0.53001    9    fixocc
   20      0.583D-11      0.524D-12      -129.83924574    155.015668    0.00000    0.57351   -0.53001    9    orth
   21      0.131D-11      0.179D-12      -129.83924574    155.015668    0.00000    0.57351   -0.53001    9    diag
   22      0.932D-12      0.635D-13      -129.83924574    155.015668    0.00000    0.57351   -0.53001    9    diag
   23      0.656D-12      0.521D-13      -129.83924574    155.015668    0.00000    0.57351   -0.53001    9    diag
   24      0.347D-12      0.466D-13      -129.83924574    155.015668    0.00000    0.57351   -0.53001    0    orth

 Final occupancy:   7   1

 !RHF STATE 1.1 Energy               -129.839245738334
 Nuclear energy                        30.34054614
 One-electron energy                 -237.68762581
 Two-electron energy                   77.50783392
 Virial quotient                       -1.00215603
 !RHF STATE 1.1 Dipole moment           0.00000000     0.57351030    -0.53000615
 Dipole moment /Debye                   0.00000000     1.45762230    -1.34705304

 Orbital energies:

         1.1          2.1          3.1          4.1          5.1          6.1          7.1          8.1          9.1
    -20.656618   -15.714227    -1.529137    -0.996672    -0.747182    -0.665401    -0.431619     0.029177     0.092175

         1.2          2.2          3.2
     -0.595123     0.064280     0.130050

 HOMO      7.1    -0.431619 =     -11.7449eV
 LUMO      8.1     0.029177 =       0.7939eV
 LUMO-HOMO         0.460795 =      12.5389eV


 **********************************************************************************************************************************
 DATASETS  * FILE   NREC   LENGTH (MB)   RECORD NAMES
              1      19      111.05       500      610      700      900      950      970     1000      129      960     1100   
                                          VAR    BASINP    GEOM    SYMINP    ZMAT    AOBASIS   BASIS     P2S    ABASIS      S 
                                         1400     1410     1200     1210     1080     1600     1650     1300     1700   
                                           T        V       H0       H01     AOSYM     SMH    MOLCAS    ERIS     OPER   

              2       4        2.94       700     1000      520     2100   
                                         GEOM     BASIS   MCVARS     RHF  

 PROGRAMS   *        TOTAL        HF       INT
 CPU TIMES  *         3.19      1.50      1.55
 REAL TIME  *         4.30 SEC
 DISK USED  *       327.55 MB      
 **********************************************************************************************************************************


 PROGRAM * CCSD (Closed-shell coupled cluster)     Authors: C. Hampel, H.-J. Werner, 1991, M. Deegan, P.J. Knowles, 1992


 Convergence thresholds:  THRVAR = 1.00D-08  THRDEN = 1.00D-12

 CCSD(T)     terms to be evaluated (factor= 1.000)


 Number of core orbitals:           2 (   2   0 )
 Number of closed-shell orbitals:   6 (   5   1 )
 Number of external orbitals:     107 (  69  38 )

 Molecular orbitals read from record     2100.2  Type=RHF/CANONICAL (state 1.1)

 Number of N-1 electron functions:               6
 Number of N-2 electron functions:              21
 Number of singly external CSFs:               383
 Number of doubly external CSFs:            107206
 Total number of CSFs:                      107590

 Length of J-op  integral file:               0.00 MB
 Length of K-op  integral file:               0.54 MB
 Length of 3-ext integral record:             0.00 MB

 Memory could be reduced to 5.94 Mwords without degradation in triples

 Integral transformation finished. Total CPU:   0.20 sec, npass=  1  Memory used:   1.65 MW

 Reference energy:                   -129.83924574

 MP2 singlet pair energy:              -0.27956071
 MP2 triplet pair energy:              -0.16527275
 MP2 correlation energy:               -0.44483347
 MP2 total energy:                   -130.28407920

 SCS-MP2 correlation energy:           -0.43830924   (PS=  1.200000  PT=  0.333333)
 SCS-MP2 total energy:               -130.27755497

 ITER.      SQ.NORM     CORR.ENERGY   TOTAL ENERGY   ENERGY CHANGE        DEN1      VAR(S)    VAR(P)  DIIS     TIME  TIME/IT
   1      1.12101667    -0.44886845  -130.28811418    -0.00403498     0.01207749  0.32D-02  0.32D-02  1  1     0.42     0.24
   2      1.13216126    -0.44905187  -130.28829761    -0.00018342    -0.01247068  0.10D-03  0.51D-03  2  2     0.65     0.24
   3      1.13866960    -0.44945211  -130.28869784    -0.00040024    -0.00300678  0.53D-04  0.51D-04  3  3     0.90     0.25
   4      1.14157421    -0.44946458  -130.28871032    -0.00001248    -0.00098037  0.42D-05  0.92D-05  4  4     1.13     0.25
   5      1.14262892    -0.44949344  -130.28873918    -0.00002886    -0.00022306  0.11D-05  0.16D-05  5  5     1.36     0.25
   6      1.14297190    -0.44947626  -130.28872199     0.00001719    -0.00004206  0.96D-07  0.40D-06  6  6     1.60     0.25
   7      1.14304535    -0.44947758  -130.28872332    -0.00000133    -0.00000158  0.18D-07  0.93D-07  6  1     1.84     0.25
   8      1.14306646    -0.44947824  -130.28872398    -0.00000066     0.00000162  0.36D-08  0.17D-07  6  2     2.06     0.25
   9      1.14307494    -0.44947767  -130.28872341     0.00000057    -0.00000087  0.25D-08  0.17D-08  6  3     2.29     0.25
  10      1.14307506    -0.44947818  -130.28872392    -0.00000051    -0.00000001  0.49D-09  0.25D-09  6  4     2.53     0.25
  11      1.14307344    -0.44947830  -130.28872404    -0.00000012     0.00000053  0.15D-09  0.31D-10  6  5     2.74     0.25
  12      1.14307214    -0.44947849  -130.28872422    -0.00000018     0.00000041  0.15D-10  0.88D-11  6  6     2.99     0.25
  13      1.14307143    -0.44947851  -130.28872425    -0.00000002     0.00000017  0.54D-11  0.17D-11  6  1     3.23     0.25
  14      1.14307100    -0.44947853  -130.28872427    -0.00000002     0.00000009  0.84D-12  0.54D-12  6  2     3.45     0.25
  15      1.14307083    -0.44947853  -130.28872427    -0.00000000     0.00000002  0.24D-12  0.17D-12  6  3     3.68     0.25
  16      1.14307074    -0.44947854  -130.28872427    -0.00000000     0.00000001  0.40D-13  0.59D-13  6  4     3.91     0.25
  17      1.14307069    -0.44947854  -130.28872428    -0.00000000     0.00000001  0.27D-14  0.13D-13  6  5     4.15     0.25
  18      1.14307068    -0.44947854  -130.28872428     0.00000000     0.00000000  0.11D-14  0.30D-14  6  6     4.39     0.25
  19      1.14307068    -0.44947854  -130.28872428     0.00000000     0.00000000  0.79D-15  0.49D-15  6  1     4.63     0.25
  20      1.14307068    -0.44947854  -130.28872428     0.00000000    -0.00000000  0.13D-15  0.82D-16  6  2     4.86     0.25
  21      1.14307068    -0.44947854  -130.28872428     0.00000000     0.00000000  0.62D-16  0.19D-16  6  3     5.11     0.25
  22      1.14307068    -0.44947854  -130.28872428     0.00000000    -0.00000000  0.31D-17  0.38D-17  6  5     5.35     0.25
  23      1.14307068    -0.44947854  -130.28872428     0.00000000     0.00000000  0.10D-17  0.32D-18  6  4     5.59     0.25
  24      1.14307068    -0.44947854  -130.28872428    -0.00000000    -0.00000000  0.27D-18  0.81D-19  6  6     5.83     0.25
  25      1.14307068    -0.44947854  -130.28872428     0.00000000    -0.00000000  0.33D-19  0.17D-19  6  1     6.08     0.25

 Norm of t1 vector:      0.07851617      S-energy:     0.00000000      T1 diagnostic:  0.01602705
                                                                       D1 diagnostic:  0.04235679

 Doubles amplitudes (print threshold =  0.500E-01):

         I         J         SYM. A    SYM. B    A         B      T(IJ, AB)

         6         6         2         2         1         1     -0.10996640


 Total CPU time for triples:      1.80 sec


 RESULTS
 =======

  Reference energy                   -129.839245738333
  CCSD singlet pair energy             -0.308204914854
  CCSD triplet pair energy             -0.141273623971
  CCSD correlation energy              -0.449478538820

  Triples (T) contribution             -0.020947214588
  Total correlation energy             -0.470425753408

  CCSD total energy                  -130.288724277154
  CCSD[T] energy                     -130.310741381262
  CCSD-T energy                      -130.309267044130
 !CCSD(T) total energy               -130.309671491742

 Timing summary (sec):

 STEP                 CPU(USER)    SYS     CPU(TOT)    WALL
 Transformation          0.20      0.05      0.25      0.24
 CCSD iterations         5.88      0.43      6.31      6.32
 Triples                 1.80      0.02      1.82      1.82

 Program statistics:

 Available memory in ccsd:               994999756
 Min. memory needed in ccsd:                389120
 Max. memory used in ccsd:                  473124
 Max. memory used in cckext:                599488 (25 integral passes)



 **********************************************************************************************************************************
 DATASETS  * FILE   NREC   LENGTH (MB)   RECORD NAMES
              1      20      128.20       500      610      700      900      950      970     1000      129      960     1100   
                                          VAR    BASINP    GEOM    SYMINP    ZMAT    AOBASIS   BASIS     P2S    ABASIS      S 
                                         1400     1410     1200     1210     1080     1600     1650     1300     1700     1380   
                                           T        V       H0       H01     AOSYM     SMH    MOLCAS    ERIS     OPER     JKOP   

              2       4        2.94       700     1000      520     2100   
                                         GEOM     BASIS   MCVARS     RHF  

 PROGRAMS   *        TOTAL   CCSD(T)        HF       INT
 CPU TIMES  *        11.09      7.90      1.50      1.55
 REAL TIME  *        12.74 SEC
 DISK USED  *       327.55 MB      
 **********************************************************************************************************************************

 CCSD(T)/aug-cc-pVTZ energy=   -130.309671491742

        CCSD(T)         HF-SCF  
   -130.30967149   -129.83924574
 **********************************************************************************************************************************
 Molpro calculation terminated
 Variable memory released
