
 Primary working directories    : /tmp/r2666/234952.maple
 Secondary working directories  : /tmp/r2666/234952.maple
 Wavefunction directory         : /ddn/home4/r2666/wfu/
 Main file repository           : /tmp/r2666/234952.maple/

 SHA1      : d5ffa45e93fdbca01ffc919aa182cfdae0147319
 NAME      : 2015.1.35
 ARCHNAME  : linux/x86_64
 FC        : /opt/intel/composer_xe_2015.1.133/bin/intel64/ifort
 BLASLIB   : -Wl,-_start-group /opt/intel/mkl/lib/intel64/libmkl_intel_ilp64.a /opt/intel/mkl/lib/intel64/libmkl_intel_thread.a /opt/intel/mkl/lib/intel64/libmkl_core.a -Wl,-_end-group
 id        : olemiss

 Nodes     nprocs
 cn092        1

 Using customized tuning parameters: mindgm=1; mindgv=20; mindgc=4; mindgr=1; noblas=0; minvec=7
 default implementation of scratch files=df  

 ***,hno CCSD(T)/TZ-F12 QFF
 memory, 995, m;
 gthresh,energy=1.d-12,zero=1.d-22,oneint=1.d-22,twoint=1.d-22;
 gthresh,optgrad=1.d-8,optstep=1.d-8;
 nocompress;
 geomtyp=xyz
 bohr
 geometry={
 3
         66        66
 N        0.0000000000       -0.1640624451       -1.1533947091
 H        0.0000000000        1.6673780464       -1.9268245671
 O        0.0000000000        0.0384521887        1.1296296853
 }
 
 basis=avtz
   {hf,maxit=500;accu,20;}
 {ccsd(t),nocheck,maxit=250;orbital,IGNORE_ERROR;}

 Variables initialized (889), CPU time= 0.01 sec
 Commands  initialized (702), CPU time= 0.01 sec, 572 directives.
 Default parameters read. Elapsed time= 0.05 sec

 Checking input...
 Passed
1


                                         ***  PROGRAM SYSTEM MOLPRO  ***
                                       Copyright, TTI GmbH Stuttgart, 2015
                                    Version 2015.1 linked Jul  9 2018 13:16:40


 **********************************************************************************************************************************
 LABEL *   hno CCSD(T)/TZ-F12 QFF                                                        
  64 bit serial version                                                                  DATE: 08-Feb-20          TIME: 17:56:31  
 **********************************************************************************************************************************

 SHA1:             d5ffa45e93fdbca01ffc919aa182cfdae0147319
 **********************************************************************************************************************************

 THRESHOLDS:

 ZERO    =  1.00D-22  ONEINT  =  1.00D-22  TWOINT  =  1.00D-22  PREFAC  =  1.00D-14  LOCALI  =  1.00D-09  EORDER  =  1.00D-04
 ENERGY  =  1.00D-12  ETEST   =  0.00D+00  EDENS   =  0.00D+00  THRDEDEF=  1.00D-06  GRADIENT=  1.00D-02  STEP    =  1.00D-03
 ORBITAL =  1.00D-05  CIVEC   =  1.00D-05  COEFF   =  1.00D-04  PRINTCI =  5.00D-02  PUNCHCI =  9.90D+01  OPTGRAD =  3.00D-04
 OPTENERG=  1.00D-06  OPTSTEP =  3.00D-04  THRGRAD =  1.00D-10  COMPRESS=  1.00D-11  VARMIN  =  1.00D-07  VARMAX  =  1.00D-03
 THRDOUB =  0.00D+00  THRDIV  =  1.00D-05  THRRED  =  1.00D-07  THRPSP  =  1.00D+00  THRDC   =  1.00D-10  THRCS   =  1.00D-10
 THRNRM  =  1.00D-08  THREQ   =  0.00D+00  THRDE   =  1.00D+00  THRREF  =  1.00D-05  SPARFAC =  1.00D+00  THRDLP  =  1.00D-07
 THRDIA  =  1.00D-10  THRDLS  =  1.00D-07  THRGPS  =  0.00D+00  THRKEX  =  0.00D+00  THRDIS  =  2.00D-01  THRVAR  =  1.00D-10
 THRLOC  =  1.00D-06  THRGAP  =  1.00D-06  THRLOCT = -1.00D+00  THRGAPT = -1.00D+00  THRORB  =  1.00D-06  THRMLTP =  0.00D+00
 THRCPQCI=  1.00D-10  KEXTA   =  0.00D+00  THRCOARS=  0.00D+00  SYMTOL  =  1.00D-06  GRADTOL =  1.00D-06  THROVL  =  1.00D-08
 THRORTH =  1.00D-08  GRID    =  1.00D-06  GRIDMAX =  1.00D-03  DTMAX   =  0.00D+00  THROCCDE=  1.00D-01  THROCCDE=  1.00D-01



 THRESHOLDS:

 ZERO    =  1.00D-22  ONEINT  =  1.00D-22  TWOINT  =  1.00D-22  PREFAC  =  1.00D-14  LOCALI  =  1.00D-09  EORDER  =  1.00D-04
 ENERGY  =  1.00D-12  ETEST   =  0.00D+00  EDENS   =  0.00D+00  THRDEDEF=  1.00D-06  GRADIENT=  1.00D-02  STEP    =  1.00D-03
 ORBITAL =  1.00D-05  CIVEC   =  1.00D-05  COEFF   =  1.00D-04  PRINTCI =  5.00D-02  PUNCHCI =  9.90D+01  OPTGRAD =  1.00D-08
 OPTENERG=  1.00D-06  OPTSTEP =  1.00D-08  THRGRAD =  1.00D-10  COMPRESS=  1.00D-11  VARMIN  =  1.00D-07  VARMAX  =  1.00D-03
 THRDOUB =  0.00D+00  THRDIV  =  1.00D-05  THRRED  =  1.00D-07  THRPSP  =  1.00D+00  THRDC   =  1.00D-10  THRCS   =  1.00D-10
 THRNRM  =  1.00D-08  THREQ   =  0.00D+00  THRDE   =  1.00D+00  THRREF  =  1.00D-05  SPARFAC =  1.00D+00  THRDLP  =  1.00D-07
 THRDIA  =  1.00D-10  THRDLS  =  1.00D-07  THRGPS  =  0.00D+00  THRKEX  =  0.00D+00  THRDIS  =  2.00D-01  THRVAR  =  1.00D-10
 THRLOC  =  1.00D-06  THRGAP  =  1.00D-06  THRLOCT = -1.00D+00  THRGAPT = -1.00D+00  THRORB  =  1.00D-06  THRMLTP =  0.00D+00
 THRCPQCI=  1.00D-10  KEXTA   =  0.00D+00  THRCOARS=  0.00D+00  SYMTOL  =  1.00D-06  GRADTOL =  1.00D-06  THROVL  =  1.00D-08
 THRORTH =  1.00D-08  GRID    =  1.00D-06  GRIDMAX =  1.00D-03  DTMAX   =  0.00D+00  THROCCDE=  1.00D-01  THROCCDE=  1.00D-01



 Input parameters for SORTINT:

 COMPRESS =    0.000000
 C_FINAL  =    1.000000
 DEBUG    =   -1.000000
 C_SORT1  =    0.000000
 C_SEWARD =    0.000000
 THRESH   =    0.000000
 IO       =  molpro                                                          
 SPRI     =    0.000000
 SETTING GEOMTYP        =    XYZ
 ZUNIT=BOHR
 

 Variable memory set to  995000000 words,  buffer space   230000 words

 SETTING BASIS          =    AVTZ


 Recomputing integrals since basis changed


 Using spherical harmonics

 Library entry N      S aug-cc-pVTZ          selected for orbital group  1
 Library entry N      P aug-cc-pVTZ          selected for orbital group  1
 Library entry N      D aug-cc-pVTZ          selected for orbital group  1
 Library entry N      F aug-cc-pVTZ          selected for orbital group  1
 Library entry H      S aug-cc-pVTZ          selected for orbital group  2
 Library entry H      P aug-cc-pVTZ          selected for orbital group  2
 Library entry H      D aug-cc-pVTZ          selected for orbital group  2
 Library entry O      S aug-cc-pVTZ          selected for orbital group  3
 Library entry O      P aug-cc-pVTZ          selected for orbital group  3
 Library entry O      D aug-cc-pVTZ          selected for orbital group  3
 Library entry O      F aug-cc-pVTZ          selected for orbital group  3


 PROGRAM * SEWARD (Integral evaluation for generally contracted gaussian basis sets)     Author: Roland Lindh, 1990

 Geometry written to block  1 of record 700


 Point group  Cs  



 ATOMIC COORDINATES

 NR  ATOM    CHARGE       X              Y              Z

   1  N       7.00    0.000000000   -0.164062445   -1.153394709
   2  H       1.00    0.000000000    1.667378046   -1.926824567
   3  O       8.00    0.000000000    0.038452189    1.129629685

 Bond lengths in Bohr (Angstrom)

 1-2  1.988056342  1-3  2.291988779
     ( 1.052034110)     ( 1.212868229)

 Bond angles

  2-1-3  107.82553834

 NUCLEAR CHARGE:                   16
 NUMBER OF PRIMITIVE AOS:         161
 NUMBER OF SYMMETRY AOS:          141
 NUMBER OF CONTRACTIONS:          115   (  76A'  +  39A"  )
 NUMBER OF CORE ORBITALS:           2   (   2A'  +   0A"  )
 NUMBER OF VALENCE ORBITALS:        9   (   7A'  +   2A"  )


 NUCLEAR REPULSION ENERGY   30.26380867

 Eigenvalues of metric

         1 0.233E-03 0.503E-03 0.181E-02 0.214E-02 0.257E-02 0.366E-02 0.432E-02 0.518E-02
         2 0.401E-02 0.102E-01 0.264E-01 0.373E-01 0.514E-01 0.623E-01 0.827E-01 0.120E+00


 Contracted 2-electron integrals neglected if value below      1.0D-22

       10790064. INTEGRALS WRITTEN OUT IN    2635 BLOCKS ON RECORD 1290 OF FILE 1


 NUMBER OF SORTED TWO-ELECTRON INTEGRALS:   11433631.     BUFFER LENGTH:  32768
 NUMBER OF SEGMENTS:   1  SEGMENT LENGTH:   11433631      RECORD LENGTH: 524288

 Memory used in sort:      11.99 MW

 SORT1 READ    10790064. AND WROTE    10943632. INTEGRALS IN     32 RECORDS. CPU TIME:     0.17 SEC, REAL TIME:     0.23 SEC
 SORT2 READ    10943632. AND WROTE    11433631. INTEGRALS IN      1 RECORDS. CPU TIME:     0.16 SEC, REAL TIME:     0.21 SEC

 FILE SIZES:   FILE 1:   193.0 MBYTE,  FILE 4:   134.3 MBYTE,   TOTAL:    327.2 MBYTE

 OPERATOR DM      FOR CENTER  0  COORDINATES:    0.000000    0.000000    0.000000


 **********************************************************************************************************************************
 DATASETS  * FILE   NREC   LENGTH (MB)   RECORD NAMES
              1      19      111.05       500      610      700      900      950      970     1000      129      960     1100   
                                          VAR    BASINP    GEOM    SYMINP    ZMAT    AOBASIS   BASIS     P2S    ABASIS      S 
                                         1400     1410     1200     1210     1080     1600     1650     1300     1700   
                                           T        V       H0       H01     AOSYM     SMH    MOLCAS    ERIS     OPER   

 PROGRAMS   *        TOTAL       INT
 CPU TIMES  *         1.30      1.22
 REAL TIME  *         2.09 SEC
 DISK USED  *       327.55 MB      
 **********************************************************************************************************************************


 PROGRAM * RHF-SCF (CLOSED SHELL)       Authors: W. Meyer, H.-J. Werner


 NUMBER OF ELECTRONS:       8+    8-
 CONVERGENCE THRESHOLDS:    1.00E-10 (Density)    1.00E-13 (Energy)
 MAX. NUMBER OF ITERATIONS:      500
 INTERPOLATION TYPE:            DIIS
 INTERPOLATION STEPS:              2 (START)      1 (STEP)
 LEVEL SHIFTS:                  0.00 (CLOSED)  0.00 (OPEN) 



 Orbital guess generated from atomic densities. Full valence occupancy:    9   2

 Molecular orbital dump at record        2100.2

 Initial occupancy:   7   1

 ITERATION    DDIFF          GRAD             ENERGY        2-EL.EN.            DIPOLE MOMENTS         DIIS   ORB.
    1      0.000D+00      0.000D+00      -129.78692548    153.709341    0.00000    0.59101   -1.03616    0    start
    2      0.000D+00      0.108D-01      -129.81423437    154.966114    0.00000    0.61415   -0.20595    1    diag
    3      0.120D-01      0.836D-02      -129.83771278    155.089295    0.00000    0.55813   -0.59851    2    diag
    4      0.601D-02      0.128D-02      -129.83851388    154.797245    0.00000    0.56563   -0.53791    3    diag
    5      0.108D-02      0.424D-03      -129.83864179    154.891553    0.00000    0.57118   -0.54060    4    diag
    6      0.454D-03      0.122D-03      -129.83866223    154.875909    0.00000    0.57152   -0.53642    5    diag
    7      0.173D-03      0.610D-04      -129.83866818    154.878371    0.00000    0.57276   -0.53379    6    diag
    8      0.120D-03      0.210D-04      -129.83866884    154.877697    0.00000    0.57278   -0.53275    7    diag
    9      0.461D-04      0.400D-05      -129.83866887    154.877586    0.00000    0.57274   -0.53253    8    diag
   10      0.894D-05      0.900D-06      -129.83866887    154.877567    0.00000    0.57270   -0.53250    9    orth
   11      0.177D-05      0.178D-06      -129.83866887    154.877564    0.00000    0.57270   -0.53250    9    diag
   12      0.337D-06      0.370D-07      -129.83866887    154.877564    0.00000    0.57270   -0.53250    9    diag
   13      0.727D-07      0.946D-08      -129.83866887    154.877563    0.00000    0.57270   -0.53250    9    diag
   14      0.193D-07      0.194D-08      -129.83866887    154.877563    0.00000    0.57270   -0.53250    9    diag
   15      0.375D-08      0.536D-09      -129.83866887    154.877563    0.00000    0.57270   -0.53250    9    diag
   16      0.102D-08      0.143D-09      -129.83866887    154.877563    0.00000    0.57270   -0.53250    9    diag
   17      0.174D-09      0.393D-10      -129.83866887    154.877563    0.00000    0.57270   -0.53250    9    diag
   18      0.473D-10      0.138D-10      -129.83866887    154.877563    0.00000    0.57270   -0.53250    9    diag
   19      0.245D-10      0.293D-11      -129.83866887    154.877563    0.00000    0.57270   -0.53250    9    fixocc
   20      0.594D-11      0.513D-12      -129.83866887    154.877563    0.00000    0.57270   -0.53250    9    orth
   21      0.140D-11      0.184D-12      -129.83866887    154.877563    0.00000    0.57270   -0.53250    0    orth

 Final occupancy:   7   1

 !RHF STATE 1.1 Energy               -129.838668873148
 Nuclear energy                        30.26380867
 One-electron energy                 -237.54125926
 Two-electron energy                   77.43878172
 Virial quotient                       -1.00229312
 !RHF STATE 1.1 Dipole moment           0.00000000     0.57269563    -0.53250080
 Dipole moment /Debye                   0.00000000     1.45555176    -1.35339339

 Orbital energies:

         1.1          2.1          3.1          4.1          5.1          6.1          7.1          8.1          9.1
    -20.656943   -15.715379    -1.526961    -0.995967    -0.745827    -0.664624    -0.432193     0.029143     0.092168

         1.2          2.2          3.2
     -0.593954     0.063560     0.130081

 HOMO      7.1    -0.432193 =     -11.7606eV
 LUMO      8.1     0.029143 =       0.7930eV
 LUMO-HOMO         0.461336 =      12.5536eV


 **********************************************************************************************************************************
 DATASETS  * FILE   NREC   LENGTH (MB)   RECORD NAMES
              1      19      111.05       500      610      700      900      950      970     1000      129      960     1100   
                                          VAR    BASINP    GEOM    SYMINP    ZMAT    AOBASIS   BASIS     P2S    ABASIS      S 
                                         1400     1410     1200     1210     1080     1600     1650     1300     1700   
                                           T        V       H0       H01     AOSYM     SMH    MOLCAS    ERIS     OPER   

              2       4        2.94       700     1000      520     2100   
                                         GEOM     BASIS   MCVARS     RHF  

 PROGRAMS   *        TOTAL        HF       INT
 CPU TIMES  *         2.38      1.08      1.22
 REAL TIME  *         3.47 SEC
 DISK USED  *       327.55 MB      
 **********************************************************************************************************************************


 PROGRAM * CCSD (Closed-shell coupled cluster)     Authors: C. Hampel, H.-J. Werner, 1991, M. Deegan, P.J. Knowles, 1992


 Convergence thresholds:  THRVAR = 1.00D-08  THRDEN = 1.00D-12

 CCSD(T)     terms to be evaluated (factor= 1.000)


 Number of core orbitals:           2 (   2   0 )
 Number of closed-shell orbitals:   6 (   5   1 )
 Number of external orbitals:     107 (  69  38 )

 Molecular orbitals read from record     2100.2  Type=RHF/CANONICAL (state 1.1)

 Number of N-1 electron functions:               6
 Number of N-2 electron functions:              21
 Number of singly external CSFs:               383
 Number of doubly external CSFs:            107206
 Total number of CSFs:                      107590

 Length of J-op  integral file:               0.00 MB
 Length of K-op  integral file:               0.54 MB
 Length of 3-ext integral record:             0.00 MB

 Memory could be reduced to 5.94 Mwords without degradation in triples

 Integral transformation finished. Total CPU:   0.14 sec, npass=  1  Memory used:   1.65 MW

 Reference energy:                   -129.83866887

 MP2 singlet pair energy:              -0.27995998
 MP2 triplet pair energy:              -0.16553011
 MP2 correlation energy:               -0.44549010
 MP2 total energy:                   -130.28415897

 SCS-MP2 correlation energy:           -0.43894849   (PS=  1.200000  PT=  0.333333)
 SCS-MP2 total energy:               -130.27761737

 ITER.      SQ.NORM     CORR.ENERGY   TOTAL ENERGY   ENERGY CHANGE        DEN1      VAR(S)    VAR(P)  DIIS     TIME  TIME/IT
   1      1.12147536    -0.44940930  -130.28807817    -0.00391920     0.01234731  0.32D-02  0.32D-02  1  1     0.29     0.16
   2      1.13271700    -0.44956907  -130.28823794    -0.00015977    -0.01256197  0.10D-03  0.52D-03  2  2     0.45     0.17
   3      1.13931109    -0.44997700  -130.28864587    -0.00040793    -0.00303558  0.55D-04  0.52D-04  3  3     0.59     0.17
   4      1.14225686    -0.44998896  -130.28865784    -0.00001196    -0.00099227  0.43D-05  0.94D-05  4  4     0.75     0.17
   5      1.14333551    -0.45001866  -130.28868753    -0.00002969    -0.00022814  0.11D-05  0.16D-05  5  5     0.89     0.17
   6      1.14368454    -0.45000104  -130.28866991     0.00001762    -0.00004286  0.10D-06  0.40D-06  6  6     1.04     0.17
   7      1.14375865    -0.45000231  -130.28867119    -0.00000127    -0.00000155  0.18D-07  0.93D-07  6  1     1.19     0.17
   8      1.14378010    -0.45000293  -130.28867181    -0.00000062     0.00000154  0.35D-08  0.17D-07  6  2     1.34     0.17
   9      1.14378547    -0.45000248  -130.28867135     0.00000046     0.00000045  0.28D-08  0.19D-08  6  4     1.50     0.17
  10      1.14378787    -0.45000296  -130.28867183    -0.00000049    -0.00000073  0.46D-09  0.23D-09  6  3     1.65     0.17
  11      1.14378739    -0.45000298  -130.28867186    -0.00000002    -0.00000008  0.16D-09  0.35D-10  6  5     1.79     0.17
  12      1.14378632    -0.45000314  -130.28867201    -0.00000016     0.00000034  0.18D-10  0.11D-10  6  6     1.95     0.17
  13      1.14378545    -0.45000318  -130.28867205    -0.00000004     0.00000022  0.64D-11  0.23D-11  6  1     2.10     0.17
  14      1.14378488    -0.45000321  -130.28867208    -0.00000003     0.00000014  0.98D-12  0.72D-12  6  2     2.26     0.17
  15      1.14378465    -0.45000321  -130.28867209    -0.00000001     0.00000004  0.27D-12  0.23D-12  6  4     2.40     0.17
  16      1.14378455    -0.45000322  -130.28867209    -0.00000000     0.00000001  0.52D-13  0.80D-13  6  3     2.55     0.17
  17      1.14378449    -0.45000322  -130.28867209    -0.00000000     0.00000001  0.39D-14  0.19D-13  6  5     2.72     0.17
  18      1.14378448    -0.45000322  -130.28867209     0.00000000    -0.00000000  0.14D-14  0.40D-14  6  6     2.86     0.17
  19      1.14378448    -0.45000322  -130.28867209     0.00000000    -0.00000000  0.16D-15  0.26D-15  6  5     3.01     0.17
  20      1.14378448    -0.45000322  -130.28867209    -0.00000000     0.00000000  0.66D-16  0.47D-16  6  1     3.17     0.17
  21      1.14378448    -0.45000322  -130.28867209    -0.00000000     0.00000000  0.14D-16  0.10D-16  6  2     3.31     0.17
  22      1.14378448    -0.45000322  -130.28867209    -0.00000000     0.00000000  0.48D-17  0.11D-17  6  4     3.46     0.17
  23      1.14378448    -0.45000322  -130.28867209     0.00000000     0.00000000  0.13D-17  0.38D-18  6  3     3.61     0.17
  24      1.14378448    -0.45000322  -130.28867209    -0.00000000     0.00000000  0.37D-18  0.76D-19  6  6     3.76     0.17
  25      1.14378448    -0.45000322  -130.28867209     0.00000000    -0.00000000  0.56D-19  0.38D-19  6  5     3.89     0.17
  26      1.14378448    -0.45000322  -130.28867209     0.00000000    -0.00000000  0.85D-20  0.15D-19  6  1     4.04     0.17
  27      1.14378448    -0.45000322  -130.28867209    -0.00000000    -0.00000000  0.46D-21  0.22D-20  6  4     4.18     0.17
  28      1.14378448    -0.45000322  -130.28867209     0.00000000     0.00000000  0.93D-22  0.24D-21  6  2     4.33     0.17

 Norm of t1 vector:      0.07915053      S-energy:     0.00000000      T1 diagnostic:  0.01615653
                                                                       D1 diagnostic:  0.04272167

 Doubles amplitudes (print threshold =  0.500E-01):

         I         J         SYM. A    SYM. B    A         B      T(IJ, AB)

         6         6         2         2         1         1     -0.11109740


 Total CPU time for triples:      1.14 sec


 RESULTS
 =======

  Reference energy                   -129.838668873148
  CCSD singlet pair energy             -0.308655247668
  CCSD triplet pair energy             -0.141347970850
  CCSD correlation energy              -0.450003218517

  Triples (T) contribution             -0.021062178615
  Total correlation energy             -0.471065397133

  CCSD total energy                  -130.288672091666
  CCSD[T] energy                     -130.310820635509
  CCSD-T energy                      -130.309325233038
 !CCSD(T) total energy               -130.309734270281

 Timing summary (sec):

 STEP                 CPU(USER)    SYS     CPU(TOT)    WALL
 Transformation          0.14      0.04      0.18      0.22
 CCSD iterations         4.19      0.54      4.73      4.73
 Triples                 1.14      0.02      1.16      1.16

 Program statistics:

 Available memory in ccsd:               994999756
 Min. memory needed in ccsd:                389120
 Max. memory used in ccsd:                  473124
 Max. memory used in cckext:                599488 (28 integral passes)



 **********************************************************************************************************************************
 DATASETS  * FILE   NREC   LENGTH (MB)   RECORD NAMES
              1      20      128.20       500      610      700      900      950      970     1000      129      960     1100   
                                          VAR    BASINP    GEOM    SYMINP    ZMAT    AOBASIS   BASIS     P2S    ABASIS      S 
                                         1400     1410     1200     1210     1080     1600     1650     1300     1700     1380   
                                           T        V       H0       H01     AOSYM     SMH    MOLCAS    ERIS     OPER     JKOP   

              2       4        2.94       700     1000      520     2100   
                                         GEOM     BASIS   MCVARS     RHF  

 PROGRAMS   *        TOTAL   CCSD(T)        HF       INT
 CPU TIMES  *         7.87      5.49      1.08      1.22
 REAL TIME  *         9.63 SEC
 DISK USED  *       327.55 MB      
 **********************************************************************************************************************************

 CCSD(T)/aug-cc-pVTZ energy=   -130.309734270281

        CCSD(T)         HF-SCF  
   -130.30973427   -129.83866887
 **********************************************************************************************************************************
 Molpro calculation terminated
 Variable memory released
