
 Primary working directories    : /tmp/r2666/234973.maple
 Secondary working directories  : /tmp/r2666/234973.maple
 Wavefunction directory         : /ddn/home4/r2666/wfu/
 Main file repository           : /tmp/r2666/234973.maple/

 SHA1      : d5ffa45e93fdbca01ffc919aa182cfdae0147319
 NAME      : 2015.1.35
 ARCHNAME  : linux/x86_64
 FC        : /opt/intel/composer_xe_2015.1.133/bin/intel64/ifort
 BLASLIB   : -Wl,-_start-group /opt/intel/mkl/lib/intel64/libmkl_intel_ilp64.a /opt/intel/mkl/lib/intel64/libmkl_intel_thread.a /opt/intel/mkl/lib/intel64/libmkl_core.a -Wl,-_end-group
 id        : olemiss

 Nodes     nprocs
 cn092        1

 Using customized tuning parameters: mindgm=1; mindgv=20; mindgc=4; mindgr=1; noblas=0; minvec=7
 default implementation of scratch files=df  

 ***,hno CCSD(T)/TZ-F12 QFF
 memory, 995, m;
 gthresh,energy=1.d-12,zero=1.d-22,oneint=1.d-22,twoint=1.d-22;
 gthresh,optgrad=1.d-8,optstep=1.d-8;
 nocompress;
 geomtyp=xyz
 bohr
 geometry={
 3
         87        87
 N        0.0000000000       -0.1659908857       -1.1353867055
 H        0.0000000000        1.6689021527       -1.9248128583
 O        0.0000000000        0.0388565230        1.1096099727
 }
 
 basis=avtz
   {hf,maxit=500;accu,20;}
 {ccsd(t),nocheck,maxit=250;orbital,IGNORE_ERROR;}

 Variables initialized (889), CPU time= 0.01 sec
 Commands  initialized (702), CPU time= 0.01 sec, 572 directives.
 Default parameters read. Elapsed time= 0.05 sec

 Checking input...
 Passed
1


                                         ***  PROGRAM SYSTEM MOLPRO  ***
                                       Copyright, TTI GmbH Stuttgart, 2015
                                    Version 2015.1 linked Jul  9 2018 13:16:40


 **********************************************************************************************************************************
 LABEL *   hno CCSD(T)/TZ-F12 QFF                                                        
  64 bit serial version                                                                  DATE: 08-Feb-20          TIME: 17:56:40  
 **********************************************************************************************************************************

 SHA1:             d5ffa45e93fdbca01ffc919aa182cfdae0147319
 **********************************************************************************************************************************

 THRESHOLDS:

 ZERO    =  1.00D-22  ONEINT  =  1.00D-22  TWOINT  =  1.00D-22  PREFAC  =  1.00D-14  LOCALI  =  1.00D-09  EORDER  =  1.00D-04
 ENERGY  =  1.00D-12  ETEST   =  0.00D+00  EDENS   =  0.00D+00  THRDEDEF=  1.00D-06  GRADIENT=  1.00D-02  STEP    =  1.00D-03
 ORBITAL =  1.00D-05  CIVEC   =  1.00D-05  COEFF   =  1.00D-04  PRINTCI =  5.00D-02  PUNCHCI =  9.90D+01  OPTGRAD =  3.00D-04
 OPTENERG=  1.00D-06  OPTSTEP =  3.00D-04  THRGRAD =  1.00D-10  COMPRESS=  1.00D-11  VARMIN  =  1.00D-07  VARMAX  =  1.00D-03
 THRDOUB =  0.00D+00  THRDIV  =  1.00D-05  THRRED  =  1.00D-07  THRPSP  =  1.00D+00  THRDC   =  1.00D-10  THRCS   =  1.00D-10
 THRNRM  =  1.00D-08  THREQ   =  0.00D+00  THRDE   =  1.00D+00  THRREF  =  1.00D-05  SPARFAC =  1.00D+00  THRDLP  =  1.00D-07
 THRDIA  =  1.00D-10  THRDLS  =  1.00D-07  THRGPS  =  0.00D+00  THRKEX  =  0.00D+00  THRDIS  =  2.00D-01  THRVAR  =  1.00D-10
 THRLOC  =  1.00D-06  THRGAP  =  1.00D-06  THRLOCT = -1.00D+00  THRGAPT = -1.00D+00  THRORB  =  1.00D-06  THRMLTP =  0.00D+00
 THRCPQCI=  1.00D-10  KEXTA   =  0.00D+00  THRCOARS=  0.00D+00  SYMTOL  =  1.00D-06  GRADTOL =  1.00D-06  THROVL  =  1.00D-08
 THRORTH =  1.00D-08  GRID    =  1.00D-06  GRIDMAX =  1.00D-03  DTMAX   =  0.00D+00  THROCCDE=  1.00D-01  THROCCDE=  1.00D-01



 THRESHOLDS:

 ZERO    =  1.00D-22  ONEINT  =  1.00D-22  TWOINT  =  1.00D-22  PREFAC  =  1.00D-14  LOCALI  =  1.00D-09  EORDER  =  1.00D-04
 ENERGY  =  1.00D-12  ETEST   =  0.00D+00  EDENS   =  0.00D+00  THRDEDEF=  1.00D-06  GRADIENT=  1.00D-02  STEP    =  1.00D-03
 ORBITAL =  1.00D-05  CIVEC   =  1.00D-05  COEFF   =  1.00D-04  PRINTCI =  5.00D-02  PUNCHCI =  9.90D+01  OPTGRAD =  1.00D-08
 OPTENERG=  1.00D-06  OPTSTEP =  1.00D-08  THRGRAD =  1.00D-10  COMPRESS=  1.00D-11  VARMIN  =  1.00D-07  VARMAX  =  1.00D-03
 THRDOUB =  0.00D+00  THRDIV  =  1.00D-05  THRRED  =  1.00D-07  THRPSP  =  1.00D+00  THRDC   =  1.00D-10  THRCS   =  1.00D-10
 THRNRM  =  1.00D-08  THREQ   =  0.00D+00  THRDE   =  1.00D+00  THRREF  =  1.00D-05  SPARFAC =  1.00D+00  THRDLP  =  1.00D-07
 THRDIA  =  1.00D-10  THRDLS  =  1.00D-07  THRGPS  =  0.00D+00  THRKEX  =  0.00D+00  THRDIS  =  2.00D-01  THRVAR  =  1.00D-10
 THRLOC  =  1.00D-06  THRGAP  =  1.00D-06  THRLOCT = -1.00D+00  THRGAPT = -1.00D+00  THRORB  =  1.00D-06  THRMLTP =  0.00D+00
 THRCPQCI=  1.00D-10  KEXTA   =  0.00D+00  THRCOARS=  0.00D+00  SYMTOL  =  1.00D-06  GRADTOL =  1.00D-06  THROVL  =  1.00D-08
 THRORTH =  1.00D-08  GRID    =  1.00D-06  GRIDMAX =  1.00D-03  DTMAX   =  0.00D+00  THROCCDE=  1.00D-01  THROCCDE=  1.00D-01



 Input parameters for SORTINT:

 COMPRESS =    0.000000
 C_FINAL  =    1.000000
 DEBUG    =   -1.000000
 C_SORT1  =    0.000000
 C_SEWARD =    0.000000
 THRESH   =    0.000000
 IO       =  molpro                                                          
 SPRI     =    0.000000
 SETTING GEOMTYP        =    XYZ
 ZUNIT=BOHR
 

 Variable memory set to  995000000 words,  buffer space   230000 words

 SETTING BASIS          =    AVTZ


 Recomputing integrals since basis changed


 Using spherical harmonics

 Library entry N      S aug-cc-pVTZ          selected for orbital group  1
 Library entry N      P aug-cc-pVTZ          selected for orbital group  1
 Library entry N      D aug-cc-pVTZ          selected for orbital group  1
 Library entry N      F aug-cc-pVTZ          selected for orbital group  1
 Library entry H      S aug-cc-pVTZ          selected for orbital group  2
 Library entry H      P aug-cc-pVTZ          selected for orbital group  2
 Library entry H      D aug-cc-pVTZ          selected for orbital group  2
 Library entry O      S aug-cc-pVTZ          selected for orbital group  3
 Library entry O      P aug-cc-pVTZ          selected for orbital group  3
 Library entry O      D aug-cc-pVTZ          selected for orbital group  3
 Library entry O      F aug-cc-pVTZ          selected for orbital group  3


 PROGRAM * SEWARD (Integral evaluation for generally contracted gaussian basis sets)     Author: Roland Lindh, 1990

 Geometry written to block  1 of record 700


 Point group  Cs  



 ATOMIC COORDINATES

 NR  ATOM    CHARGE       X              Y              Z

   1  N       7.00    0.000000000   -0.165990886   -1.135386705
   2  H       1.00    0.000000000    1.668902153   -1.924812858
   3  O       8.00    0.000000000    0.038856523    1.109609973

 Bond lengths in Bohr (Angstrom)

 1-2  1.997504972  1-3  2.254323079
     ( 1.057034110)     ( 1.192936400)

 Bond angles

  2-1-3  108.06524395

 NUCLEAR CHARGE:                   16
 NUMBER OF PRIMITIVE AOS:         161
 NUMBER OF SYMMETRY AOS:          141
 NUMBER OF CONTRACTIONS:          115   (  76A'  +  39A"  )
 NUMBER OF CORE ORBITALS:           2   (   2A'  +   0A"  )
 NUMBER OF VALENCE ORBITALS:        9   (   7A'  +   2A"  )


 NUCLEAR REPULSION ENERGY   30.66805616

 Eigenvalues of metric

         1 0.228E-03 0.496E-03 0.178E-02 0.209E-02 0.241E-02 0.336E-02 0.429E-02 0.512E-02
         2 0.379E-02 0.102E-01 0.255E-01 0.369E-01 0.509E-01 0.621E-01 0.795E-01 0.118E+00


 Contracted 2-electron integrals neglected if value below      1.0D-22

       10790064. INTEGRALS WRITTEN OUT IN    2635 BLOCKS ON RECORD 1290 OF FILE 1


 NUMBER OF SORTED TWO-ELECTRON INTEGRALS:   11433631.     BUFFER LENGTH:  32768
 NUMBER OF SEGMENTS:   1  SEGMENT LENGTH:   11433631      RECORD LENGTH: 524288

 Memory used in sort:      11.99 MW

 SORT1 READ    10790064. AND WROTE    10943632. INTEGRALS IN     32 RECORDS. CPU TIME:     0.15 SEC, REAL TIME:     0.23 SEC
 SORT2 READ    10943632. AND WROTE    11433631. INTEGRALS IN      1 RECORDS. CPU TIME:     0.16 SEC, REAL TIME:     0.22 SEC

 FILE SIZES:   FILE 1:   193.0 MBYTE,  FILE 4:   134.3 MBYTE,   TOTAL:    327.2 MBYTE

 OPERATOR DM      FOR CENTER  0  COORDINATES:    0.000000    0.000000    0.000000


 **********************************************************************************************************************************
 DATASETS  * FILE   NREC   LENGTH (MB)   RECORD NAMES
              1      19      111.05       500      610      700      900      950      970     1000      129      960     1100   
                                          VAR    BASINP    GEOM    SYMINP    ZMAT    AOBASIS   BASIS     P2S    ABASIS      S 
                                         1400     1410     1200     1210     1080     1600     1650     1300     1700   
                                           T        V       H0       H01     AOSYM     SMH    MOLCAS    ERIS     OPER   

 PROGRAMS   *        TOTAL       INT
 CPU TIMES  *         1.27      1.18
 REAL TIME  *         2.40 SEC
 DISK USED  *       327.55 MB      
 **********************************************************************************************************************************


 PROGRAM * RHF-SCF (CLOSED SHELL)       Authors: W. Meyer, H.-J. Werner


 NUMBER OF ELECTRONS:       8+    8-
 CONVERGENCE THRESHOLDS:    1.00E-10 (Density)    1.00E-13 (Energy)
 MAX. NUMBER OF ITERATIONS:      500
 INTERPOLATION TYPE:            DIIS
 INTERPOLATION STEPS:              2 (START)      1 (STEP)
 LEVEL SHIFTS:                  0.00 (CLOSED)  0.00 (OPEN) 



 Orbital guess generated from atomic densities. Full valence occupancy:    9   2

 Molecular orbital dump at record        2100.2

 Initial occupancy:   7   1

 ITERATION    DDIFF          GRAD             ENERGY        2-EL.EN.            DIPOLE MOMENTS         DIIS   ORB.
    1      0.000D+00      0.000D+00      -129.79178807    154.426279    0.00000    0.58051   -0.97251    0    start
    2      0.000D+00      0.106D-01      -129.81962987    155.729798    0.00000    0.60058   -0.21271    1    diag
    3      0.116D-01      0.785D-02      -129.84011821    155.806218    0.00000    0.54768   -0.56847    2    diag
    4      0.570D-02      0.125D-02      -129.84087723    155.529153    0.00000    0.55553   -0.51111    3    diag
    5      0.105D-02      0.413D-03      -129.84099787    155.622137    0.00000    0.56118   -0.51423    4    diag
    6      0.439D-03      0.119D-03      -129.84101708    155.606734    0.00000    0.56163   -0.51042    5    diag
    7      0.168D-03      0.582D-04      -129.84102238    155.609411    0.00000    0.56294   -0.50808    6    diag
    8      0.115D-03      0.189D-04      -129.84102289    155.608803    0.00000    0.56297   -0.50720    7    diag
    9      0.398D-04      0.353D-05      -129.84102291    155.608705    0.00000    0.56294   -0.50700    8    diag
   10      0.745D-05      0.829D-06      -129.84102291    155.608686    0.00000    0.56291   -0.50697    9    orth
   11      0.162D-05      0.170D-06      -129.84102291    155.608683    0.00000    0.56290   -0.50697    9    diag
   12      0.329D-06      0.345D-07      -129.84102291    155.608682    0.00000    0.56290   -0.50697    9    diag
   13      0.719D-07      0.851D-08      -129.84102291    155.608682    0.00000    0.56290   -0.50697    9    diag
   14      0.183D-07      0.181D-08      -129.84102291    155.608682    0.00000    0.56290   -0.50697    9    diag
   15      0.379D-08      0.525D-09      -129.84102291    155.608682    0.00000    0.56290   -0.50697    9    diag
   16      0.103D-08      0.151D-09      -129.84102291    155.608682    0.00000    0.56290   -0.50697    9    diag
   17      0.199D-09      0.449D-10      -129.84102291    155.608682    0.00000    0.56290   -0.50697    9    diag
   18      0.585D-10      0.156D-10      -129.84102291    155.608682    0.00000    0.56290   -0.50697    9    diag
   19      0.279D-10      0.353D-11      -129.84102291    155.608682    0.00000    0.56290   -0.50697    9    fixocc
   20      0.679D-11      0.544D-12      -129.84102291    155.608682    0.00000    0.56290   -0.50697    9    orth
   21      0.246D-11      0.172D-12      -129.84102291    155.608682    0.00000    0.56290   -0.50697    9    diag
   22      0.142D-11      0.581D-13      -129.84102291    155.608682    0.00000    0.56290   -0.50697    9    diag
   23      0.401D-12      0.552D-13      -129.84102291    155.608682    0.00000    0.56290   -0.50697    9    diag
   24      0.284D-12      0.597D-13      -129.84102291    155.608682    0.00000    0.56290   -0.50697    9    diag
   25      0.770D-13      0.433D-13      -129.84102291    155.608682    0.00000    0.56290   -0.50697    9    diag
   26      0.282D-12      0.575D-13      -129.84102291    155.608682    0.00000    0.56290   -0.50697    9    diag
   27      0.126D-12      0.445D-13      -129.84102291    155.608682    0.00000    0.56290   -0.50697    9    diag
   28      0.168D-12      0.546D-13      -129.84102291    155.608682    0.00000    0.56290   -0.50697    0    orth

 Final occupancy:   7   1

 !RHF STATE 1.1 Energy               -129.841022909105
 Nuclear energy                        30.66805616
 One-electron energy                 -238.31342011
 Two-electron energy                   77.80434104
 Virial quotient                       -1.00173872
 !RHF STATE 1.1 Dipole moment           0.00000000     0.56289739    -0.50696986
 Dipole moment /Debye                   0.00000000     1.43064876    -1.28850446

 Orbital energies:

         1.1          2.1          3.1          4.1          5.1          6.1          7.1          8.1          9.1
    -20.655189   -15.712597    -1.543315    -0.990215    -0.751450    -0.670437    -0.425560     0.029406     0.092224

         1.2          2.2          3.2
     -0.603606     0.069031     0.130734

 HOMO      7.1    -0.425560 =     -11.5801eV
 LUMO      8.1     0.029406 =       0.8002eV
 LUMO-HOMO         0.454966 =      12.3803eV


 **********************************************************************************************************************************
 DATASETS  * FILE   NREC   LENGTH (MB)   RECORD NAMES
              1      19      111.05       500      610      700      900      950      970     1000      129      960     1100   
                                          VAR    BASINP    GEOM    SYMINP    ZMAT    AOBASIS   BASIS     P2S    ABASIS      S 
                                         1400     1410     1200     1210     1080     1600     1650     1300     1700   
                                           T        V       H0       H01     AOSYM     SMH    MOLCAS    ERIS     OPER   

              2       4        2.94       700     1000      520     2100   
                                         GEOM     BASIS   MCVARS     RHF  

 PROGRAMS   *        TOTAL        HF       INT
 CPU TIMES  *         2.73      1.46      1.18
 REAL TIME  *         4.22 SEC
 DISK USED  *       327.55 MB      
 **********************************************************************************************************************************


 PROGRAM * CCSD (Closed-shell coupled cluster)     Authors: C. Hampel, H.-J. Werner, 1991, M. Deegan, P.J. Knowles, 1992


 Convergence thresholds:  THRVAR = 1.00D-08  THRDEN = 1.00D-12

 CCSD(T)     terms to be evaluated (factor= 1.000)


 Number of core orbitals:           2 (   2   0 )
 Number of closed-shell orbitals:   6 (   5   1 )
 Number of external orbitals:     107 (  69  38 )

 Molecular orbitals read from record     2100.2  Type=RHF/CANONICAL (state 1.1)

 Number of N-1 electron functions:               6
 Number of N-2 electron functions:              21
 Number of singly external CSFs:               383
 Number of doubly external CSFs:            107206
 Total number of CSFs:                      107590

 Length of J-op  integral file:               0.00 MB
 Length of K-op  integral file:               0.54 MB
 Length of 3-ext integral record:             0.00 MB

 Memory could be reduced to 5.94 Mwords without degradation in triples

 Integral transformation finished. Total CPU:   0.14 sec, npass=  1  Memory used:   1.65 MW

 Reference energy:                   -129.84102291

 MP2 singlet pair energy:              -0.27799543
 MP2 triplet pair energy:              -0.16421276
 MP2 correlation energy:               -0.44220818
 MP2 total energy:                   -130.28323109

 SCS-MP2 correlation energy:           -0.43577134   (PS=  1.200000  PT=  0.333333)
 SCS-MP2 total energy:               -130.27679425

 ITER.      SQ.NORM     CORR.ENERGY   TOTAL ENERGY   ENERGY CHANGE        DEN1      VAR(S)    VAR(P)  DIIS     TIME  TIME/IT
   1      1.11949077    -0.44687350  -130.28789641    -0.00466532     0.01083105  0.30D-02  0.30D-02  1  1     0.30     0.16
   2      1.13028293    -0.44717866  -130.28820157    -0.00030515    -0.01211328  0.93D-04  0.49D-03  2  2     0.43     0.17
   3      1.13649150    -0.44755742  -130.28858033    -0.00037876    -0.00291313  0.50D-04  0.48D-04  3  3     0.59     0.17
   4      1.13920847    -0.44756726  -130.28859017    -0.00000984    -0.00093100  0.38D-05  0.87D-05  4  4     0.75     0.17
   5      1.14017918    -0.44759368  -130.28861659    -0.00002642    -0.00020629  0.11D-05  0.16D-05  5  5     0.91     0.17
   6      1.14050266    -0.44757850  -130.28860141     0.00001518    -0.00003900  0.10D-06  0.39D-06  6  6     1.06     0.17
   7      1.14057789    -0.44757930  -130.28860221    -0.00000080    -0.00000229  0.20D-07  0.87D-07  6  1     1.21     0.17
   8      1.14059951    -0.44758008  -130.28860299    -0.00000078     0.00000135  0.37D-08  0.15D-07  6  2     1.36     0.17
   9      1.14060481    -0.44757966  -130.28860257     0.00000042     0.00000042  0.25D-08  0.16D-08  6  4     1.51     0.17
  10      1.14060690    -0.44758012  -130.28860303    -0.00000045    -0.00000064  0.40D-09  0.18D-09  6  3     1.67     0.17
  11      1.14060636    -0.44758015  -130.28860305    -0.00000003    -0.00000004  0.14D-09  0.29D-10  6  5     1.82     0.17
  12      1.14060535    -0.44758028  -130.28860319    -0.00000014     0.00000032  0.16D-10  0.94D-11  6  6     1.99     0.17
  13      1.14060457    -0.44758031  -130.28860322    -0.00000003     0.00000020  0.58D-11  0.18D-11  6  1     2.13     0.17
  14      1.14060407    -0.44758034  -130.28860325    -0.00000003     0.00000012  0.97D-12  0.58D-12  6  2     2.29     0.17
  15      1.14060387    -0.44758035  -130.28860326    -0.00000001     0.00000003  0.26D-12  0.19D-12  6  4     2.45     0.17
  16      1.14060376    -0.44758035  -130.28860326    -0.00000000     0.00000001  0.34D-13  0.23D-13  6  5     2.60     0.17
  17      1.14060373    -0.44758035  -130.28860326    -0.00000000     0.00000000  0.65D-15  0.16D-14  6  3     2.75     0.17
  18      1.14060373    -0.44758035  -130.28860326     0.00000000    -0.00000000  0.22D-15  0.23D-15  6  6     2.91     0.17
  19      1.14060373    -0.44758035  -130.28860326     0.00000000    -0.00000000  0.66D-16  0.33D-16  6  1     3.05     0.17
  20      1.14060373    -0.44758035  -130.28860326     0.00000000    -0.00000000  0.17D-16  0.59D-17  6  2     3.19     0.17
  21      1.14060373    -0.44758035  -130.28860326     0.00000000    -0.00000000  0.28D-17  0.16D-17  6  5     3.34     0.17
  22      1.14060373    -0.44758035  -130.28860326    -0.00000000     0.00000000  0.30D-18  0.18D-18  6  4     3.48     0.17
  23      1.14060373    -0.44758035  -130.28860326     0.00000000     0.00000000  0.11D-18  0.39D-19  6  3     3.64     0.17
  24      1.14060373    -0.44758035  -130.28860326     0.00000000    -0.00000000  0.11D-19  0.55D-20  6  2     3.78     0.17
  25      1.14060373    -0.44758035  -130.28860326     0.00000000    -0.00000000  0.18D-20  0.86D-21  6  6     3.95     0.17
  26      1.14060373    -0.44758035  -130.28860326     0.00000000    -0.00000000  0.43D-21  0.21D-21  6  1     4.11     0.17

 Norm of t1 vector:      0.07625409      S-energy:     0.00000000      T1 diagnostic:  0.01556530
                                                                       D1 diagnostic:  0.04011821

 Doubles amplitudes (print threshold =  0.500E-01):

         I         J         SYM. A    SYM. B    A         B      T(IJ, AB)

         6         6         2         2         1         1     -0.10209085


 Total CPU time for triples:      1.23 sec


 RESULTS
 =======

  Reference energy                   -129.841022909105
  CCSD singlet pair energy             -0.306566393366
  CCSD triplet pair energy             -0.141013956666
  CCSD correlation energy              -0.447580350032

  Triples (T) contribution             -0.020486918765
  Total correlation energy             -0.468067268797

  CCSD total energy                  -130.288603259137
  CCSD[T] energy                     -130.310098704377
  CCSD-T energy                      -130.308699196782
 !CCSD(T) total energy               -130.309090177902

 Timing summary (sec):

 STEP                 CPU(USER)    SYS     CPU(TOT)    WALL
 Transformation          0.14      0.03      0.17      0.18
 CCSD iterations         3.97      0.50      4.47      4.47
 Triples                 1.23      0.07      1.30      1.29

 Program statistics:

 Available memory in ccsd:               994999756
 Min. memory needed in ccsd:                389120
 Max. memory used in ccsd:                  473124
 Max. memory used in cckext:                599488 (26 integral passes)



 **********************************************************************************************************************************
 DATASETS  * FILE   NREC   LENGTH (MB)   RECORD NAMES
              1      20      128.20       500      610      700      900      950      970     1000      129      960     1100   
                                          VAR    BASINP    GEOM    SYMINP    ZMAT    AOBASIS   BASIS     P2S    ABASIS      S 
                                         1400     1410     1200     1210     1080     1600     1650     1300     1700     1380   
                                           T        V       H0       H01     AOSYM     SMH    MOLCAS    ERIS     OPER     JKOP   

              2       4        2.94       700     1000      520     2100   
                                         GEOM     BASIS   MCVARS     RHF  

 PROGRAMS   *        TOTAL   CCSD(T)        HF       INT
 CPU TIMES  *         8.09      5.36      1.46      1.18
 REAL TIME  *        10.19 SEC
 DISK USED  *       327.55 MB      
 **********************************************************************************************************************************

 CCSD(T)/aug-cc-pVTZ energy=   -130.309090177902

        CCSD(T)         HF-SCF  
   -130.30909018   -129.84102291
 **********************************************************************************************************************************
 Molpro calculation terminated
 Variable memory released
