
 Primary working directories    : /tmp/r2666/234979.maple
 Secondary working directories  : /tmp/r2666/234979.maple
 Wavefunction directory         : /ddn/home4/r2666/wfu/
 Main file repository           : /tmp/r2666/234979.maple/

 SHA1      : d5ffa45e93fdbca01ffc919aa182cfdae0147319
 NAME      : 2015.1.35
 ARCHNAME  : linux/x86_64
 FC        : /opt/intel/composer_xe_2015.1.133/bin/intel64/ifort
 BLASLIB   : -Wl,-_start-group /opt/intel/mkl/lib/intel64/libmkl_intel_ilp64.a /opt/intel/mkl/lib/intel64/libmkl_intel_thread.a /opt/intel/mkl/lib/intel64/libmkl_core.a -Wl,-_end-group
 id        : olemiss

 Nodes     nprocs
 cn022        1

 Using customized tuning parameters: mindgm=1; mindgv=20; mindgc=4; mindgr=1; noblas=0; minvec=7
 default implementation of scratch files=df  

 ***,hno CCSD(T)/TZ-F12 QFF
 memory, 995, m;
 gthresh,energy=1.d-12,zero=1.d-22,oneint=1.d-22,twoint=1.d-22;
 gthresh,optgrad=1.d-8,optstep=1.d-8;
 nocompress;
 geomtyp=xyz
 bohr
 geometry={
 3
         93        93
 N        0.0000000000       -0.1705881630       -1.1492067094
 H        0.0000000000        1.6707368249       -1.9235118187
 O        0.0000000000        0.0416191281        1.1221289370
 }
 
 basis=avtz
   {hf,maxit=500;accu,20;}
 {ccsd(t),nocheck,maxit=250;orbital,IGNORE_ERROR;}

 Variables initialized (889), CPU time= 0.01 sec
 Commands  initialized (702), CPU time= 0.01 sec, 572 directives.
 Default parameters read. Elapsed time= 0.07 sec

 Checking input...
 Passed
1


                                         ***  PROGRAM SYSTEM MOLPRO  ***
                                       Copyright, TTI GmbH Stuttgart, 2015
                                    Version 2015.1 linked Jul  9 2018 13:16:40


 **********************************************************************************************************************************
 LABEL *   hno CCSD(T)/TZ-F12 QFF                                                        
  64 bit serial version                                                                  DATE: 08-Feb-20          TIME: 17:56:41  
 **********************************************************************************************************************************

 SHA1:             d5ffa45e93fdbca01ffc919aa182cfdae0147319
 **********************************************************************************************************************************

 THRESHOLDS:

 ZERO    =  1.00D-22  ONEINT  =  1.00D-22  TWOINT  =  1.00D-22  PREFAC  =  1.00D-14  LOCALI  =  1.00D-09  EORDER  =  1.00D-04
 ENERGY  =  1.00D-12  ETEST   =  0.00D+00  EDENS   =  0.00D+00  THRDEDEF=  1.00D-06  GRADIENT=  1.00D-02  STEP    =  1.00D-03
 ORBITAL =  1.00D-05  CIVEC   =  1.00D-05  COEFF   =  1.00D-04  PRINTCI =  5.00D-02  PUNCHCI =  9.90D+01  OPTGRAD =  3.00D-04
 OPTENERG=  1.00D-06  OPTSTEP =  3.00D-04  THRGRAD =  1.00D-10  COMPRESS=  1.00D-11  VARMIN  =  1.00D-07  VARMAX  =  1.00D-03
 THRDOUB =  0.00D+00  THRDIV  =  1.00D-05  THRRED  =  1.00D-07  THRPSP  =  1.00D+00  THRDC   =  1.00D-10  THRCS   =  1.00D-10
 THRNRM  =  1.00D-08  THREQ   =  0.00D+00  THRDE   =  1.00D+00  THRREF  =  1.00D-05  SPARFAC =  1.00D+00  THRDLP  =  1.00D-07
 THRDIA  =  1.00D-10  THRDLS  =  1.00D-07  THRGPS  =  0.00D+00  THRKEX  =  0.00D+00  THRDIS  =  2.00D-01  THRVAR  =  1.00D-10
 THRLOC  =  1.00D-06  THRGAP  =  1.00D-06  THRLOCT = -1.00D+00  THRGAPT = -1.00D+00  THRORB  =  1.00D-06  THRMLTP =  0.00D+00
 THRCPQCI=  1.00D-10  KEXTA   =  0.00D+00  THRCOARS=  0.00D+00  SYMTOL  =  1.00D-06  GRADTOL =  1.00D-06  THROVL  =  1.00D-08
 THRORTH =  1.00D-08  GRID    =  1.00D-06  GRIDMAX =  1.00D-03  DTMAX   =  0.00D+00  THROCCDE=  1.00D-01  THROCCDE=  1.00D-01



 THRESHOLDS:

 ZERO    =  1.00D-22  ONEINT  =  1.00D-22  TWOINT  =  1.00D-22  PREFAC  =  1.00D-14  LOCALI  =  1.00D-09  EORDER  =  1.00D-04
 ENERGY  =  1.00D-12  ETEST   =  0.00D+00  EDENS   =  0.00D+00  THRDEDEF=  1.00D-06  GRADIENT=  1.00D-02  STEP    =  1.00D-03
 ORBITAL =  1.00D-05  CIVEC   =  1.00D-05  COEFF   =  1.00D-04  PRINTCI =  5.00D-02  PUNCHCI =  9.90D+01  OPTGRAD =  1.00D-08
 OPTENERG=  1.00D-06  OPTSTEP =  1.00D-08  THRGRAD =  1.00D-10  COMPRESS=  1.00D-11  VARMIN  =  1.00D-07  VARMAX  =  1.00D-03
 THRDOUB =  0.00D+00  THRDIV  =  1.00D-05  THRRED  =  1.00D-07  THRPSP  =  1.00D+00  THRDC   =  1.00D-10  THRCS   =  1.00D-10
 THRNRM  =  1.00D-08  THREQ   =  0.00D+00  THRDE   =  1.00D+00  THRREF  =  1.00D-05  SPARFAC =  1.00D+00  THRDLP  =  1.00D-07
 THRDIA  =  1.00D-10  THRDLS  =  1.00D-07  THRGPS  =  0.00D+00  THRKEX  =  0.00D+00  THRDIS  =  2.00D-01  THRVAR  =  1.00D-10
 THRLOC  =  1.00D-06  THRGAP  =  1.00D-06  THRLOCT = -1.00D+00  THRGAPT = -1.00D+00  THRORB  =  1.00D-06  THRMLTP =  0.00D+00
 THRCPQCI=  1.00D-10  KEXTA   =  0.00D+00  THRCOARS=  0.00D+00  SYMTOL  =  1.00D-06  GRADTOL =  1.00D-06  THROVL  =  1.00D-08
 THRORTH =  1.00D-08  GRID    =  1.00D-06  GRIDMAX =  1.00D-03  DTMAX   =  0.00D+00  THROCCDE=  1.00D-01  THROCCDE=  1.00D-01



 Input parameters for SORTINT:

 COMPRESS =    0.000000
 C_FINAL  =    1.000000
 DEBUG    =   -1.000000
 C_SORT1  =    0.000000
 C_SEWARD =    0.000000
 THRESH   =    0.000000
 IO       =  molpro                                                          
 SPRI     =    0.000000
 SETTING GEOMTYP        =    XYZ
 ZUNIT=BOHR
 

 Variable memory set to  995000000 words,  buffer space   230000 words

 SETTING BASIS          =    AVTZ


 Recomputing integrals since basis changed


 Using spherical harmonics

 Library entry N      S aug-cc-pVTZ          selected for orbital group  1
 Library entry N      P aug-cc-pVTZ          selected for orbital group  1
 Library entry N      D aug-cc-pVTZ          selected for orbital group  1
 Library entry N      F aug-cc-pVTZ          selected for orbital group  1
 Library entry H      S aug-cc-pVTZ          selected for orbital group  2
 Library entry H      P aug-cc-pVTZ          selected for orbital group  2
 Library entry H      D aug-cc-pVTZ          selected for orbital group  2
 Library entry O      S aug-cc-pVTZ          selected for orbital group  3
 Library entry O      P aug-cc-pVTZ          selected for orbital group  3
 Library entry O      D aug-cc-pVTZ          selected for orbital group  3
 Library entry O      F aug-cc-pVTZ          selected for orbital group  3


 PROGRAM * SEWARD (Integral evaluation for generally contracted gaussian basis sets)     Author: Roland Lindh, 1990

 Geometry written to block  1 of record 700


 Point group  Cs  



 ATOMIC COORDINATES

 NR  ATOM    CHARGE       X              Y              Z

   1  N       7.00    0.000000000   -0.170588163   -1.149206709
   2  H       1.00    0.000000000    1.670736825   -1.923511819
   3  O       8.00    0.000000000    0.041619128    1.122128937

 Bond lengths in Bohr (Angstrom)

 1-2  1.997504972  1-3  2.281227203
     ( 1.057034110)     ( 1.207173449)

 Bond angles

  2-1-3  107.46993302

 NUCLEAR CHARGE:                   16
 NUMBER OF PRIMITIVE AOS:         161
 NUMBER OF SYMMETRY AOS:          141
 NUMBER OF CONTRACTIONS:          115   (  76A'  +  39A"  )
 NUMBER OF CORE ORBITALS:           2   (   2A'  +   0A"  )
 NUMBER OF VALENCE ORBITALS:        9   (   7A'  +   2A"  )


 NUCLEAR REPULSION ENERGY   30.36873336

 Eigenvalues of metric

         1 0.232E-03 0.504E-03 0.180E-02 0.214E-02 0.253E-02 0.357E-02 0.432E-02 0.522E-02
         2 0.395E-02 0.103E-01 0.262E-01 0.374E-01 0.514E-01 0.624E-01 0.822E-01 0.119E+00


 Contracted 2-electron integrals neglected if value below      1.0D-22

       10790060. INTEGRALS WRITTEN OUT IN    2635 BLOCKS ON RECORD 1290 OF FILE 1


 NUMBER OF SORTED TWO-ELECTRON INTEGRALS:   11433631.     BUFFER LENGTH:  32768
 NUMBER OF SEGMENTS:   1  SEGMENT LENGTH:   11433631      RECORD LENGTH: 524288

 Memory used in sort:      11.99 MW

 SORT1 READ    10790060. AND WROTE    10943631. INTEGRALS IN     32 RECORDS. CPU TIME:     0.23 SEC, REAL TIME:     0.31 SEC
 SORT2 READ    10943631. AND WROTE    11433631. INTEGRALS IN      1 RECORDS. CPU TIME:     0.20 SEC, REAL TIME:     0.26 SEC

 FILE SIZES:   FILE 1:   193.0 MBYTE,  FILE 4:   134.3 MBYTE,   TOTAL:    327.2 MBYTE

 OPERATOR DM      FOR CENTER  0  COORDINATES:    0.000000    0.000000    0.000000


 **********************************************************************************************************************************
 DATASETS  * FILE   NREC   LENGTH (MB)   RECORD NAMES
              1      19      111.05       500      610      700      900      950      970     1000      129      960     1100   
                                          VAR    BASINP    GEOM    SYMINP    ZMAT    AOBASIS   BASIS     P2S    ABASIS      S 
                                         1400     1410     1200     1210     1080     1600     1650     1300     1700   
                                           T        V       H0       H01     AOSYM     SMH    MOLCAS    ERIS     OPER   

 PROGRAMS   *        TOTAL       INT
 CPU TIMES  *         1.65      1.52
 REAL TIME  *         2.54 SEC
 DISK USED  *       327.55 MB      
 **********************************************************************************************************************************


 PROGRAM * RHF-SCF (CLOSED SHELL)       Authors: W. Meyer, H.-J. Werner


 NUMBER OF ELECTRONS:       8+    8-
 CONVERGENCE THRESHOLDS:    1.00E-10 (Density)    1.00E-13 (Energy)
 MAX. NUMBER OF ITERATIONS:      500
 INTERPOLATION TYPE:            DIIS
 INTERPOLATION STEPS:              2 (START)      1 (STEP)
 LEVEL SHIFTS:                  0.00 (CLOSED)  0.00 (OPEN) 



 Orbital guess generated from atomic densities. Full valence occupancy:    9   2

 Molecular orbital dump at record        2100.2

 Initial occupancy:   7   1

 ITERATION    DDIFF          GRAD             ENERGY        2-EL.EN.            DIPOLE MOMENTS         DIIS   ORB.
    1      0.000D+00      0.000D+00      -129.78807851    153.894671    0.00000    0.58214   -1.01744    0    start
    2      0.000D+00      0.108D-01      -129.81557640    155.167844    0.00000    0.61042   -0.20518    1    diag
    3      0.119D-01      0.825D-02      -129.83835468    155.276802    0.00000    0.55241   -0.58803    2    diag
    4      0.594D-02      0.127D-02      -129.83914367    154.988662    0.00000    0.56020   -0.52845    3    diag
    5      0.107D-02      0.422D-03      -129.83927033    155.082750    0.00000    0.56578   -0.53124    4    diag
    6      0.451D-03      0.122D-03      -129.83929062    155.067114    0.00000    0.56615   -0.52715    5    diag
    7      0.173D-03      0.605D-04      -129.83929644    155.069655    0.00000    0.56742   -0.52460    6    diag
    8      0.119D-03      0.205D-04      -129.83929705    155.068995    0.00000    0.56744   -0.52361    7    diag
    9      0.444D-04      0.387D-05      -129.83929708    155.068887    0.00000    0.56740   -0.52339    8    diag
   10      0.852D-05      0.881D-06      -129.83929708    155.068868    0.00000    0.56737   -0.52336    9    orth
   11      0.173D-05      0.176D-06      -129.83929708    155.068865    0.00000    0.56736   -0.52336    9    diag
   12      0.336D-06      0.364D-07      -129.83929708    155.068865    0.00000    0.56736   -0.52336    9    diag
   13      0.732D-07      0.921D-08      -129.83929708    155.068865    0.00000    0.56736   -0.52336    9    diag
   14      0.192D-07      0.191D-08      -129.83929708    155.068865    0.00000    0.56736   -0.52336    9    diag
   15      0.380D-08      0.534D-09      -129.83929708    155.068865    0.00000    0.56736   -0.52336    9    diag
   16      0.104D-08      0.147D-09      -129.83929708    155.068865    0.00000    0.56736   -0.52336    9    diag
   17      0.187D-09      0.425D-10      -129.83929708    155.068865    0.00000    0.56736   -0.52336    9    diag
   18      0.534D-10      0.152D-10      -129.83929708    155.068865    0.00000    0.56736   -0.52336    0    orth

 Final occupancy:   7   1

 !RHF STATE 1.1 Energy               -129.839297083109
 Nuclear energy                        30.36873336
 One-electron energy                 -237.74246272
 Two-electron energy                   77.53443228
 Virial quotient                       -1.00217055
 !RHF STATE 1.1 Dipole moment           0.00000000     0.56735810    -0.52335929
 Dipole moment /Debye                   0.00000000     1.44198599    -1.33015951

 Orbital energies:

         1.1          2.1          3.1          4.1          5.1          6.1          7.1          8.1          9.1
    -20.656398   -15.715135    -1.531732    -0.993168    -0.747037    -0.666180    -0.430380     0.029250     0.092208

         1.2          2.2          3.2
     -0.596769     0.065208     0.130328

 HOMO      7.1    -0.430380 =     -11.7112eV
 LUMO      8.1     0.029250 =       0.7959eV
 LUMO-HOMO         0.459630 =      12.5072eV


 **********************************************************************************************************************************
 DATASETS  * FILE   NREC   LENGTH (MB)   RECORD NAMES
              1      19      111.05       500      610      700      900      950      970     1000      129      960     1100   
                                          VAR    BASINP    GEOM    SYMINP    ZMAT    AOBASIS   BASIS     P2S    ABASIS      S 
                                         1400     1410     1200     1210     1080     1600     1650     1300     1700   
                                           T        V       H0       H01     AOSYM     SMH    MOLCAS    ERIS     OPER   

              2       4        2.94       700     1000      520     2100   
                                         GEOM     BASIS   MCVARS     RHF  

 PROGRAMS   *        TOTAL        HF       INT
 CPU TIMES  *         2.89      1.24      1.52
 REAL TIME  *         4.01 SEC
 DISK USED  *       327.55 MB      
 **********************************************************************************************************************************


 PROGRAM * CCSD (Closed-shell coupled cluster)     Authors: C. Hampel, H.-J. Werner, 1991, M. Deegan, P.J. Knowles, 1992


 Convergence thresholds:  THRVAR = 1.00D-08  THRDEN = 1.00D-12

 CCSD(T)     terms to be evaluated (factor= 1.000)


 Number of core orbitals:           2 (   2   0 )
 Number of closed-shell orbitals:   6 (   5   1 )
 Number of external orbitals:     107 (  69  38 )

 Molecular orbitals read from record     2100.2  Type=RHF/CANONICAL (state 1.1)

 Number of N-1 electron functions:               6
 Number of N-2 electron functions:              21
 Number of singly external CSFs:               383
 Number of doubly external CSFs:            107206
 Total number of CSFs:                      107590

 Length of J-op  integral file:               0.00 MB
 Length of K-op  integral file:               0.54 MB
 Length of 3-ext integral record:             0.00 MB

 Memory could be reduced to 5.94 Mwords without degradation in triples

 Integral transformation finished. Total CPU:   0.21 sec, npass=  1  Memory used:   1.65 MW

 Reference energy:                   -129.83929708

 MP2 singlet pair energy:              -0.27947779
 MP2 triplet pair energy:              -0.16519618
 MP2 correlation energy:               -0.44467397
 MP2 total energy:                   -130.28397105

 SCS-MP2 correlation energy:           -0.43816208   (PS=  1.200000  PT=  0.333333)
 SCS-MP2 total energy:               -130.27745916

 ITER.      SQ.NORM     CORR.ENERGY   TOTAL ENERGY   ENERGY CHANGE        DEN1      VAR(S)    VAR(P)  DIIS     TIME  TIME/IT
   1      1.12101220    -0.44880273  -130.28809981    -0.00412876     0.01193304  0.31D-02  0.31D-02  1  1     0.45     0.24
   2      1.13213807    -0.44900588  -130.28830296    -0.00020315    -0.01244500  0.10D-03  0.51D-03  2  2     0.69     0.25
   3      1.13863212    -0.44940652  -130.28870361    -0.00040064    -0.00300704  0.53D-04  0.51D-04  3  3     0.91     0.25
   4      1.14151092    -0.44941764  -130.28871472    -0.00001111    -0.00097541  0.42D-05  0.91D-05  4  4     1.14     0.25
   5      1.14255612    -0.44944646  -130.28874354    -0.00002882    -0.00022161  0.11D-05  0.16D-05  5  5     1.36     0.25
   6      1.14289643    -0.44942955  -130.28872663     0.00001691    -0.00004165  0.10D-06  0.39D-06  6  6     1.58     0.25
   7      1.14297047    -0.44943062  -130.28872771    -0.00000107    -0.00000175  0.19D-07  0.90D-07  6  1     1.82     0.25
   8      1.14299200    -0.44943127  -130.28872835    -0.00000064     0.00000144  0.35D-08  0.16D-07  6  2     2.05     0.25
   9      1.14299739    -0.44943082  -130.28872790     0.00000045     0.00000045  0.27D-08  0.18D-08  6  4     2.26     0.25
  10      1.14299970    -0.44943129  -130.28872837    -0.00000048    -0.00000071  0.43D-09  0.21D-09  6  3     2.48     0.25
  11      1.14299921    -0.44943131  -130.28872840    -0.00000002    -0.00000007  0.15D-09  0.32D-10  6  5     2.73     0.25
  12      1.14299816    -0.44943146  -130.28872855    -0.00000015     0.00000033  0.17D-10  0.10D-10  6  6     2.96     0.25
  13      1.14299732    -0.44943150  -130.28872858    -0.00000003     0.00000021  0.62D-11  0.21D-11  6  1     3.20     0.25
  14      1.14299678    -0.44943153  -130.28872861    -0.00000003     0.00000014  0.98D-12  0.67D-12  6  2     3.44     0.25
  15      1.14299655    -0.44943153  -130.28872862    -0.00000001     0.00000003  0.28D-12  0.21D-12  6  4     3.67     0.25
  16      1.14299646    -0.44943154  -130.28872862    -0.00000000     0.00000001  0.52D-13  0.73D-13  6  3     3.90     0.25
  17      1.14299640    -0.44943154  -130.28872862    -0.00000000     0.00000001  0.37D-14  0.17D-13  6  5     4.14     0.25
  18      1.14299640    -0.44943154  -130.28872862     0.00000000    -0.00000000  0.12D-14  0.36D-14  6  6     4.38     0.25
  19      1.14299639    -0.44943154  -130.28872862    -0.00000000     0.00000000  0.10D-14  0.65D-15  6  1     4.62     0.25
  20      1.14299639    -0.44943154  -130.28872862     0.00000000    -0.00000000  0.21D-15  0.12D-15  6  2     4.86     0.25
  21      1.14299639    -0.44943154  -130.28872862     0.00000000    -0.00000000  0.52D-16  0.29D-16  6  3     5.10     0.25
  22      1.14299639    -0.44943154  -130.28872862     0.00000000     0.00000000  0.59D-17  0.26D-17  6  4     5.33     0.25
  23      1.14299639    -0.44943154  -130.28872862     0.00000000    -0.00000000  0.22D-17  0.55D-18  6  5     5.56     0.25
  24      1.14299639    -0.44943154  -130.28872862     0.00000000     0.00000000  0.14D-18  0.47D-19  6  2     5.79     0.25
  25      1.14299639    -0.44943154  -130.28872862    -0.00000000    -0.00000000  0.21D-19  0.12D-19  6  6     6.02     0.25
  26      1.14299639    -0.44943154  -130.28872862     0.00000000    -0.00000000  0.33D-20  0.21D-20  6  1     6.26     0.25
  27      1.14299639    -0.44943154  -130.28872862    -0.00000000    -0.00000000  0.47D-21  0.48D-21  6  4     6.49     0.25

 Norm of t1 vector:      0.07833127      S-energy:     0.00000000      T1 diagnostic:  0.01598930
                                                                       D1 diagnostic:  0.04193243

 Doubles amplitudes (print threshold =  0.500E-01):

         I         J         SYM. A    SYM. B    A         B      T(IJ, AB)

         6         6         2         2         1         1     -0.10854409


 Total CPU time for triples:      1.78 sec


 RESULTS
 =======

  Reference energy                   -129.839297083109
  CCSD singlet pair energy             -0.308160740361
  CCSD triplet pair energy             -0.141270798451
  CCSD correlation energy              -0.449431538811

  Triples (T) contribution             -0.020913831778
  Total correlation energy             -0.470345370589

  CCSD total energy                  -130.288728621920
  CCSD[T] energy                     -130.310707067006
  CCSD-T energy                      -130.309237787734
 !CCSD(T) total energy               -130.309642453698

 Timing summary (sec):

 STEP                 CPU(USER)    SYS     CPU(TOT)    WALL
 Transformation          0.21      0.04      0.25      0.25
 CCSD iterations         6.29      0.61      6.90      6.90
 Triples                 1.78      0.04      1.82      1.82

 Program statistics:

 Available memory in ccsd:               994999756
 Min. memory needed in ccsd:                389120
 Max. memory used in ccsd:                  473124
 Max. memory used in cckext:                599488 (27 integral passes)



 **********************************************************************************************************************************
 DATASETS  * FILE   NREC   LENGTH (MB)   RECORD NAMES
              1      20      128.20       500      610      700      900      950      970     1000      129      960     1100   
                                          VAR    BASINP    GEOM    SYMINP    ZMAT    AOBASIS   BASIS     P2S    ABASIS      S 
                                         1400     1410     1200     1210     1080     1600     1650     1300     1700     1380   
                                           T        V       H0       H01     AOSYM     SMH    MOLCAS    ERIS     OPER     JKOP   

              2       4        2.94       700     1000      520     2100   
                                         GEOM     BASIS   MCVARS     RHF  

 PROGRAMS   *        TOTAL   CCSD(T)        HF       INT
 CPU TIMES  *        11.19      8.30      1.24      1.52
 REAL TIME  *        13.03 SEC
 DISK USED  *       327.55 MB      
 **********************************************************************************************************************************

 CCSD(T)/aug-cc-pVTZ energy=   -130.309642453698

        CCSD(T)         HF-SCF  
   -130.30964245   -129.83929708
 **********************************************************************************************************************************
 Molpro calculation terminated
 Variable memory released
