
 Primary working directories    : /tmp/r2666/234888.maple
 Secondary working directories  : /tmp/r2666/234888.maple
 Wavefunction directory         : /ddn/home4/r2666/wfu/
 Main file repository           : /tmp/r2666/234888.maple/

 SHA1      : d5ffa45e93fdbca01ffc919aa182cfdae0147319
 NAME      : 2015.1.35
 ARCHNAME  : linux/x86_64
 FC        : /opt/intel/composer_xe_2015.1.133/bin/intel64/ifort
 BLASLIB   : -Wl,-_start-group /opt/intel/mkl/lib/intel64/libmkl_intel_ilp64.a /opt/intel/mkl/lib/intel64/libmkl_intel_thread.a /opt/intel/mkl/lib/intel64/libmkl_core.a -Wl,-_end-group
 id        : olemiss

 Nodes     nprocs
 cn047        1

 Using customized tuning parameters: mindgm=1; mindgv=20; mindgc=4; mindgr=1; noblas=0; minvec=7
 default implementation of scratch files=df  

 ***,hno CCSD(T)/TZ-F12 QFF
 memory, 995, m;
 gthresh,energy=1.d-12,zero=1.d-22,oneint=1.d-22,twoint=1.d-22;
 gthresh,optgrad=1.d-8,optstep=1.d-8;
 nocompress;
 geomtyp=xyz
 bohr
 geometry={
 3
          2         2
 N        0.0000000000       -0.1399668740       -1.1550721128
 H        0.0000000000        1.6503121234       -1.9286497023
 O        0.0000000000        0.0314225406        1.1331322242
 }
 
 basis=avtz
   {hf,maxit=500;accu,20;}
 {ccsd(t),nocheck,maxit=250;orbital,IGNORE_ERROR;}

 Variables initialized (889), CPU time= 0.00 sec
 Commands  initialized (702), CPU time= 0.01 sec, 572 directives.
 Default parameters read. Elapsed time= 0.06 sec

 Checking input...
 Passed
1


                                         ***  PROGRAM SYSTEM MOLPRO  ***
                                       Copyright, TTI GmbH Stuttgart, 2015
                                    Version 2015.1 linked Jul  9 2018 13:16:40


 **********************************************************************************************************************************
 LABEL *   hno CCSD(T)/TZ-F12 QFF                                                        
  64 bit serial version                                                                  DATE: 08-Feb-20          TIME: 17:55:35  
 **********************************************************************************************************************************

 SHA1:             d5ffa45e93fdbca01ffc919aa182cfdae0147319
 **********************************************************************************************************************************

 THRESHOLDS:

 ZERO    =  1.00D-22  ONEINT  =  1.00D-22  TWOINT  =  1.00D-22  PREFAC  =  1.00D-14  LOCALI  =  1.00D-09  EORDER  =  1.00D-04
 ENERGY  =  1.00D-12  ETEST   =  0.00D+00  EDENS   =  0.00D+00  THRDEDEF=  1.00D-06  GRADIENT=  1.00D-02  STEP    =  1.00D-03
 ORBITAL =  1.00D-05  CIVEC   =  1.00D-05  COEFF   =  1.00D-04  PRINTCI =  5.00D-02  PUNCHCI =  9.90D+01  OPTGRAD =  3.00D-04
 OPTENERG=  1.00D-06  OPTSTEP =  3.00D-04  THRGRAD =  1.00D-10  COMPRESS=  1.00D-11  VARMIN  =  1.00D-07  VARMAX  =  1.00D-03
 THRDOUB =  0.00D+00  THRDIV  =  1.00D-05  THRRED  =  1.00D-07  THRPSP  =  1.00D+00  THRDC   =  1.00D-10  THRCS   =  1.00D-10
 THRNRM  =  1.00D-08  THREQ   =  0.00D+00  THRDE   =  1.00D+00  THRREF  =  1.00D-05  SPARFAC =  1.00D+00  THRDLP  =  1.00D-07
 THRDIA  =  1.00D-10  THRDLS  =  1.00D-07  THRGPS  =  0.00D+00  THRKEX  =  0.00D+00  THRDIS  =  2.00D-01  THRVAR  =  1.00D-10
 THRLOC  =  1.00D-06  THRGAP  =  1.00D-06  THRLOCT = -1.00D+00  THRGAPT = -1.00D+00  THRORB  =  1.00D-06  THRMLTP =  0.00D+00
 THRCPQCI=  1.00D-10  KEXTA   =  0.00D+00  THRCOARS=  0.00D+00  SYMTOL  =  1.00D-06  GRADTOL =  1.00D-06  THROVL  =  1.00D-08
 THRORTH =  1.00D-08  GRID    =  1.00D-06  GRIDMAX =  1.00D-03  DTMAX   =  0.00D+00  THROCCDE=  1.00D-01  THROCCDE=  1.00D-01



 THRESHOLDS:

 ZERO    =  1.00D-22  ONEINT  =  1.00D-22  TWOINT  =  1.00D-22  PREFAC  =  1.00D-14  LOCALI  =  1.00D-09  EORDER  =  1.00D-04
 ENERGY  =  1.00D-12  ETEST   =  0.00D+00  EDENS   =  0.00D+00  THRDEDEF=  1.00D-06  GRADIENT=  1.00D-02  STEP    =  1.00D-03
 ORBITAL =  1.00D-05  CIVEC   =  1.00D-05  COEFF   =  1.00D-04  PRINTCI =  5.00D-02  PUNCHCI =  9.90D+01  OPTGRAD =  1.00D-08
 OPTENERG=  1.00D-06  OPTSTEP =  1.00D-08  THRGRAD =  1.00D-10  COMPRESS=  1.00D-11  VARMIN  =  1.00D-07  VARMAX  =  1.00D-03
 THRDOUB =  0.00D+00  THRDIV  =  1.00D-05  THRRED  =  1.00D-07  THRPSP  =  1.00D+00  THRDC   =  1.00D-10  THRCS   =  1.00D-10
 THRNRM  =  1.00D-08  THREQ   =  0.00D+00  THRDE   =  1.00D+00  THRREF  =  1.00D-05  SPARFAC =  1.00D+00  THRDLP  =  1.00D-07
 THRDIA  =  1.00D-10  THRDLS  =  1.00D-07  THRGPS  =  0.00D+00  THRKEX  =  0.00D+00  THRDIS  =  2.00D-01  THRVAR  =  1.00D-10
 THRLOC  =  1.00D-06  THRGAP  =  1.00D-06  THRLOCT = -1.00D+00  THRGAPT = -1.00D+00  THRORB  =  1.00D-06  THRMLTP =  0.00D+00
 THRCPQCI=  1.00D-10  KEXTA   =  0.00D+00  THRCOARS=  0.00D+00  SYMTOL  =  1.00D-06  GRADTOL =  1.00D-06  THROVL  =  1.00D-08
 THRORTH =  1.00D-08  GRID    =  1.00D-06  GRIDMAX =  1.00D-03  DTMAX   =  0.00D+00  THROCCDE=  1.00D-01  THROCCDE=  1.00D-01



 Input parameters for SORTINT:

 COMPRESS =    0.000000
 C_FINAL  =    1.000000
 DEBUG    =   -1.000000
 C_SORT1  =    0.000000
 C_SEWARD =    0.000000
 THRESH   =    0.000000
 IO       =  molpro                                                          
 SPRI     =    0.000000
 SETTING GEOMTYP        =    XYZ
 ZUNIT=BOHR
 

 Variable memory set to  995000000 words,  buffer space   230000 words

 SETTING BASIS          =    AVTZ


 Recomputing integrals since basis changed


 Using spherical harmonics

 Library entry N      S aug-cc-pVTZ          selected for orbital group  1
 Library entry N      P aug-cc-pVTZ          selected for orbital group  1
 Library entry N      D aug-cc-pVTZ          selected for orbital group  1
 Library entry N      F aug-cc-pVTZ          selected for orbital group  1
 Library entry H      S aug-cc-pVTZ          selected for orbital group  2
 Library entry H      P aug-cc-pVTZ          selected for orbital group  2
 Library entry H      D aug-cc-pVTZ          selected for orbital group  2
 Library entry O      S aug-cc-pVTZ          selected for orbital group  3
 Library entry O      P aug-cc-pVTZ          selected for orbital group  3
 Library entry O      D aug-cc-pVTZ          selected for orbital group  3
 Library entry O      F aug-cc-pVTZ          selected for orbital group  3


 PROGRAM * SEWARD (Integral evaluation for generally contracted gaussian basis sets)     Author: Roland Lindh, 1990

 Geometry written to block  1 of record 700


 Point group  Cs  



 ATOMIC COORDINATES

 NR  ATOM    CHARGE       X              Y              Z

   1  N       7.00    0.000000000   -0.139966874   -1.155072113
   2  H       1.00    0.000000000    1.650312123   -1.928649702
   3  O       8.00    0.000000000    0.031422541    1.133132224

 Bond lengths in Bohr (Angstrom)

 1-2  1.950261822  1-3  2.294614002
     ( 1.032034112)     ( 1.214257438)

 Bond angles

  2-1-3  109.08559156

 NUCLEAR CHARGE:                   16
 NUMBER OF PRIMITIVE AOS:         161
 NUMBER OF SYMMETRY AOS:          141
 NUMBER OF CONTRACTIONS:          115   (  76A'  +  39A"  )
 NUMBER OF CORE ORBITALS:           2   (   2A'  +   0A"  )
 NUMBER OF VALENCE ORBITALS:        9   (   7A'  +   2A"  )


 NUCLEAR REPULSION ENERGY   30.30409013

 Eigenvalues of metric

         1 0.231E-03 0.489E-03 0.181E-02 0.208E-02 0.257E-02 0.366E-02 0.425E-02 0.495E-02
         2 0.400E-02 0.965E-02 0.262E-01 0.365E-01 0.510E-01 0.613E-01 0.811E-01 0.119E+00


 Contracted 2-electron integrals neglected if value below      1.0D-22

       10790064. INTEGRALS WRITTEN OUT IN    2635 BLOCKS ON RECORD 1290 OF FILE 1


 NUMBER OF SORTED TWO-ELECTRON INTEGRALS:   11433631.     BUFFER LENGTH:  32768
 NUMBER OF SEGMENTS:   1  SEGMENT LENGTH:   11433631      RECORD LENGTH: 524288

 Memory used in sort:      11.99 MW

 SORT1 READ    10790064. AND WROTE    10943632. INTEGRALS IN     32 RECORDS. CPU TIME:     0.34 SEC, REAL TIME:     0.42 SEC
 SORT2 READ    10943632. AND WROTE    11433631. INTEGRALS IN      1 RECORDS. CPU TIME:     0.24 SEC, REAL TIME:     0.29 SEC

 FILE SIZES:   FILE 1:   193.0 MBYTE,  FILE 4:   134.3 MBYTE,   TOTAL:    327.2 MBYTE

 OPERATOR DM      FOR CENTER  0  COORDINATES:    0.000000    0.000000    0.000000


 **********************************************************************************************************************************
 DATASETS  * FILE   NREC   LENGTH (MB)   RECORD NAMES
              1      19      111.05       500      610      700      900      950      970     1000      129      960     1100   
                                          VAR    BASINP    GEOM    SYMINP    ZMAT    AOBASIS   BASIS     P2S    ABASIS      S 
                                         1400     1410     1200     1210     1080     1600     1650     1300     1700   
                                           T        V       H0       H01     AOSYM     SMH    MOLCAS    ERIS     OPER   

 PROGRAMS   *        TOTAL       INT
 CPU TIMES  *         1.87      1.77
 REAL TIME  *         2.87 SEC
 DISK USED  *       327.55 MB      
 **********************************************************************************************************************************


 PROGRAM * RHF-SCF (CLOSED SHELL)       Authors: W. Meyer, H.-J. Werner


 NUMBER OF ELECTRONS:       8+    8-
 CONVERGENCE THRESHOLDS:    1.00E-10 (Density)    1.00E-13 (Energy)
 MAX. NUMBER OF ITERATIONS:      500
 INTERPOLATION TYPE:            DIIS
 INTERPOLATION STEPS:              2 (START)      1 (STEP)
 LEVEL SHIFTS:                  0.00 (CLOSED)  0.00 (OPEN) 



 Orbital guess generated from atomic densities. Full valence occupancy:    9   2

 Molecular orbital dump at record        2100.2

 Initial occupancy:   7   1

 ITERATION    DDIFF          GRAD             ENERGY        2-EL.EN.            DIPOLE MOMENTS         DIIS   ORB.
    1      0.000D+00      0.000D+00      -129.78801522    153.787881    0.00000    0.61472   -1.03964    0    start
    2      0.000D+00      0.107D-01      -129.81527901    155.025940    0.00000    0.61534   -0.21855    1    diag
    3      0.119D-01      0.822D-02      -129.83792301    155.155639    0.00000    0.56997   -0.60712    2    diag
    4      0.593D-02      0.129D-02      -129.83872713    154.864756    0.00000    0.57696   -0.54587    3    diag
    5      0.108D-02      0.420D-03      -129.83885133    154.957945    0.00000    0.58234   -0.54855    4    diag
    6      0.449D-03      0.120D-03      -129.83887084    154.942577    0.00000    0.58270   -0.54442    5    diag
    7      0.169D-03      0.599D-04      -129.83887656    154.944930    0.00000    0.58388   -0.54178    6    diag
    8      0.118D-03      0.207D-04      -129.83887721    154.944276    0.00000    0.58389   -0.54075    7    diag
    9      0.456D-04      0.394D-05      -129.83887724    154.944170    0.00000    0.58386   -0.54053    8    diag
   10      0.884D-05      0.890D-06      -129.83887724    154.944152    0.00000    0.58382   -0.54050    9    orth
   11      0.175D-05      0.174D-06      -129.83887724    154.944150    0.00000    0.58382   -0.54050    9    diag
   12      0.327D-06      0.360D-07      -129.83887724    154.944150    0.00000    0.58382   -0.54050    9    diag
   13      0.691D-07      0.917D-08      -129.83887724    154.944150    0.00000    0.58382   -0.54050    9    diag
   14      0.182D-07      0.188D-08      -129.83887724    154.944150    0.00000    0.58382   -0.54050    9    diag
   15      0.351D-08      0.521D-09      -129.83887724    154.944150    0.00000    0.58382   -0.54050    9    diag
   16      0.971D-09      0.139D-09      -129.83887724    154.944150    0.00000    0.58382   -0.54050    9    diag
   17      0.161D-09      0.363D-10      -129.83887724    154.944150    0.00000    0.58382   -0.54050    9    diag
   18      0.426D-10      0.123D-10      -129.83887724    154.944150    0.00000    0.58382   -0.54050    0    orth

 Final occupancy:   7   1

 !RHF STATE 1.1 Energy               -129.838877242924
 Nuclear energy                        30.30409013
 One-electron energy                 -237.61504229
 Two-electron energy                   77.47207492
 Virial quotient                       -1.00212151
 !RHF STATE 1.1 Dipole moment           0.00000000     0.58381518    -0.54049786
 Dipole moment /Debye                   0.00000000     1.48381299    -1.37371854

 Orbital energies:

         1.1          2.1          3.1          4.1          5.1          6.1          7.1          8.1          9.1
    -20.657068   -15.712695    -1.525485    -1.002316    -0.747586    -0.664495    -0.432913     0.029038     0.092097

         1.2          2.2          3.2
     -0.592888     0.062936     0.129620

 HOMO      7.1    -0.432913 =     -11.7802eV
 LUMO      8.1     0.029038 =       0.7902eV
 LUMO-HOMO         0.461951 =      12.5703eV


 **********************************************************************************************************************************
 DATASETS  * FILE   NREC   LENGTH (MB)   RECORD NAMES
              1      19      111.05       500      610      700      900      950      970     1000      129      960     1100   
                                          VAR    BASINP    GEOM    SYMINP    ZMAT    AOBASIS   BASIS     P2S    ABASIS      S 
                                         1400     1410     1200     1210     1080     1600     1650     1300     1700   
                                           T        V       H0       H01     AOSYM     SMH    MOLCAS    ERIS     OPER   

              2       4        2.94       700     1000      520     2100   
                                         GEOM     BASIS   MCVARS     RHF  

 PROGRAMS   *        TOTAL        HF       INT
 CPU TIMES  *         3.13      1.26      1.77
 REAL TIME  *         4.48 SEC
 DISK USED  *       327.55 MB      
 **********************************************************************************************************************************


 PROGRAM * CCSD (Closed-shell coupled cluster)     Authors: C. Hampel, H.-J. Werner, 1991, M. Deegan, P.J. Knowles, 1992


 Convergence thresholds:  THRVAR = 1.00D-08  THRDEN = 1.00D-12

 CCSD(T)     terms to be evaluated (factor= 1.000)


 Number of core orbitals:           2 (   2   0 )
 Number of closed-shell orbitals:   6 (   5   1 )
 Number of external orbitals:     107 (  69  38 )

 Molecular orbitals read from record     2100.2  Type=RHF/CANONICAL (state 1.1)

 Number of N-1 electron functions:               6
 Number of N-2 electron functions:              21
 Number of singly external CSFs:               383
 Number of doubly external CSFs:            107206
 Total number of CSFs:                      107590

 Length of J-op  integral file:               0.00 MB
 Length of K-op  integral file:               0.54 MB
 Length of 3-ext integral record:             0.00 MB

 Memory could be reduced to 5.94 Mwords without degradation in triples

 Integral transformation finished. Total CPU:   0.21 sec, npass=  1  Memory used:   1.65 MW

 Reference energy:                   -129.83887724

 MP2 singlet pair energy:              -0.27964332
 MP2 triplet pair energy:              -0.16535887
 MP2 correlation energy:               -0.44500219
 MP2 total energy:                   -130.28387943

 SCS-MP2 correlation energy:           -0.43846195   (PS=  1.200000  PT=  0.333333)
 SCS-MP2 total energy:               -130.27733919

 ITER.      SQ.NORM     CORR.ENERGY   TOTAL ENERGY   ENERGY CHANGE        DEN1      VAR(S)    VAR(P)  DIIS     TIME  TIME/IT
   1      1.12100244    -0.44891628  -130.28779352    -0.00391409     0.01226813  0.32D-02  0.32D-02  1  1     0.45     0.25
   2      1.13217741    -0.44907295  -130.28795019    -0.00015667    -0.01250513  0.10D-03  0.51D-03  2  2     0.68     0.25
   3      1.13871336    -0.44947377  -130.28835101    -0.00040082    -0.00300596  0.54D-04  0.52D-04  3  3     0.92     0.26
   4      1.14166193    -0.44948806  -130.28836531    -0.00001429    -0.00098868  0.42D-05  0.95D-05  4  4     1.17     0.26
   5      1.14273681    -0.44951705  -130.28839430    -0.00002899    -0.00022626  0.11D-05  0.17D-05  5  5     1.40     0.26
   6      1.14308669    -0.44949949  -130.28837673     0.00001756    -0.00004288  0.88D-07  0.42D-06  6  6     1.65     0.26
   7      1.14316065    -0.44950118  -130.28837843    -0.00000169    -0.00000142  0.16D-07  0.99D-07  6  1     1.88     0.26
   8      1.14318158    -0.44950189  -130.28837914    -0.00000071     0.00000185  0.38D-08  0.18D-07  6  2     2.11     0.26
   9      1.14319011    -0.44950133  -130.28837858     0.00000056    -0.00000098  0.27D-08  0.18D-08  6  3     2.35     0.26
  10      1.14319021    -0.44950186  -130.28837910    -0.00000053     0.00000001  0.54D-09  0.26D-09  6  4     2.60     0.26
  11      1.14318856    -0.44950198  -130.28837923    -0.00000012     0.00000053  0.16D-09  0.33D-10  6  5     2.84     0.26
  12      1.14318724    -0.44950217  -130.28837941    -0.00000019     0.00000043  0.15D-10  0.93D-11  6  6     3.08     0.26
  13      1.14318651    -0.44950219  -130.28837944    -0.00000002     0.00000018  0.53D-11  0.18D-11  6  1     3.33     0.26
  14      1.14318607    -0.44950222  -130.28837946    -0.00000002     0.00000010  0.79D-12  0.59D-12  6  2     3.57     0.26
  15      1.14318588    -0.44950222  -130.28837946    -0.00000000     0.00000002  0.22D-12  0.19D-12  6  3     3.82     0.26
  16      1.14318579    -0.44950222  -130.28837947    -0.00000000     0.00000001  0.36D-13  0.67D-13  6  4     4.06     0.26
  17      1.14318574    -0.44950223  -130.28837947    -0.00000000     0.00000001  0.29D-14  0.15D-13  6  5     4.28     0.26
  18      1.14318573    -0.44950223  -130.28837947     0.00000000     0.00000000  0.13D-14  0.33D-14  6  6     4.52     0.26
  19      1.14318573    -0.44950223  -130.28837947     0.00000000    -0.00000000  0.17D-15  0.24D-15  6  5     4.75     0.26
  20      1.14318573    -0.44950223  -130.28837947    -0.00000000    -0.00000000  0.68D-16  0.41D-16  6  1     5.00     0.26
  21      1.14318573    -0.44950223  -130.28837947     0.00000000     0.00000000  0.15D-16  0.91D-17  6  2     5.23     0.26
  22      1.14318573    -0.44950223  -130.28837947    -0.00000000     0.00000000  0.39D-17  0.10D-17  6  3     5.46     0.26
  23      1.14318573    -0.44950223  -130.28837947     0.00000000     0.00000000  0.95D-18  0.32D-18  6  4     5.70     0.26
  24      1.14318573    -0.44950223  -130.28837947    -0.00000000     0.00000000  0.26D-18  0.63D-19  6  6     5.94     0.26
  25      1.14318573    -0.44950223  -130.28837947     0.00000000    -0.00000000  0.42D-19  0.30D-19  6  5     6.17     0.26
  26      1.14318573    -0.44950223  -130.28837947     0.00000000    -0.00000000  0.56D-20  0.11D-19  6  1     6.41     0.26
  27      1.14318573    -0.44950223  -130.28837947    -0.00000000    -0.00000000  0.27D-21  0.15D-20  6  3     6.65     0.26
  28      1.14318573    -0.44950223  -130.28837947     0.00000000     0.00000000  0.76D-22  0.19D-21  6  2     6.89     0.26

 Norm of t1 vector:      0.07889033      S-energy:     0.00000000      T1 diagnostic:  0.01610342
                                                                       D1 diagnostic:  0.04297840

 Doubles amplitudes (print threshold =  0.500E-01):

         I         J         SYM. A    SYM. B    A         B      T(IJ, AB)

         6         6         2         2         1         1     -0.11188755


 Total CPU time for triples:      1.90 sec


 RESULTS
 =======

  Reference energy                   -129.838877242924
  CCSD singlet pair energy             -0.308231997833
  CCSD triplet pair energy             -0.141270228563
  CCSD correlation energy              -0.449502226394

  Triples (T) contribution             -0.020991306320
  Total correlation energy             -0.470493532714

  CCSD total energy                  -130.288379469318
  CCSD[T] energy                     -130.310449557136
  CCSD-T energy                      -130.308966428156
 !CCSD(T) total energy               -130.309370775638

 Timing summary (sec):

 STEP                 CPU(USER)    SYS     CPU(TOT)    WALL
 Transformation          0.22      0.06      0.28      0.27
 CCSD iterations         6.68      0.71      7.39      7.41
 Triples                 1.90      0.06      1.96      1.97

 Program statistics:

 Available memory in ccsd:               994999756
 Min. memory needed in ccsd:                389120
 Max. memory used in ccsd:                  473124
 Max. memory used in cckext:                599488 (28 integral passes)



 **********************************************************************************************************************************
 DATASETS  * FILE   NREC   LENGTH (MB)   RECORD NAMES
              1      20      128.20       500      610      700      900      950      970     1000      129      960     1100   
                                          VAR    BASINP    GEOM    SYMINP    ZMAT    AOBASIS   BASIS     P2S    ABASIS      S 
                                         1400     1410     1200     1210     1080     1600     1650     1300     1700     1380   
                                           T        V       H0       H01     AOSYM     SMH    MOLCAS    ERIS     OPER     JKOP   

              2       4        2.94       700     1000      520     2100   
                                         GEOM     BASIS   MCVARS     RHF  

 PROGRAMS   *        TOTAL   CCSD(T)        HF       INT
 CPU TIMES  *        11.96      8.83      1.26      1.77
 REAL TIME  *        14.17 SEC
 DISK USED  *       327.55 MB      
 **********************************************************************************************************************************

 CCSD(T)/aug-cc-pVTZ energy=   -130.309370775638

        CCSD(T)         HF-SCF  
   -130.30937078   -129.83887724
 **********************************************************************************************************************************
 Molpro calculation terminated
 Variable memory released
