
 Primary working directories    : /tmp/r2666/235010.maple
 Secondary working directories  : /tmp/r2666/235010.maple
 Wavefunction directory         : /ddn/home4/r2666/wfu/
 Main file repository           : /tmp/r2666/235010.maple/

 SHA1      : d5ffa45e93fdbca01ffc919aa182cfdae0147319
 NAME      : 2015.1.35
 ARCHNAME  : linux/x86_64
 FC        : /opt/intel/composer_xe_2015.1.133/bin/intel64/ifort
 BLASLIB   : -Wl,-_start-group /opt/intel/mkl/lib/intel64/libmkl_intel_ilp64.a /opt/intel/mkl/lib/intel64/libmkl_intel_thread.a /opt/intel/mkl/lib/intel64/libmkl_core.a -Wl,-_end-group
 id        : olemiss

 Nodes     nprocs
 cn043        1

 Using customized tuning parameters: mindgm=1; mindgv=20; mindgc=4; mindgr=1; noblas=0; minvec=7
 default implementation of scratch files=df  

 ***,hno CCSD(T)/TZ-F12 QFF
 memory, 995, m;
 gthresh,energy=1.d-12,zero=1.d-22,oneint=1.d-22,twoint=1.d-22;
 gthresh,optgrad=1.d-8,optstep=1.d-8;
 nocompress;
 geomtyp=xyz
 bohr
 geometry={
 3
        124       124
 N        0.0000000000       -0.1783373767       -1.1398958683
 H        0.0000000000        1.6784812029       -1.9260909606
 O        0.0000000000        0.0416239638        1.1153972379
 }
 
 basis=avtz
   {hf,maxit=500;accu,20;}
 {ccsd(t),nocheck,maxit=250;orbital,IGNORE_ERROR;}

 Variables initialized (889), CPU time= 0.01 sec
 Commands  initialized (702), CPU time= 0.00 sec, 572 directives.
 Default parameters read. Elapsed time= 0.05 sec

 Checking input...
 Passed
1


                                         ***  PROGRAM SYSTEM MOLPRO  ***
                                       Copyright, TTI GmbH Stuttgart, 2015
                                    Version 2015.1 linked Jul  9 2018 13:16:40


 **********************************************************************************************************************************
 LABEL *   hno CCSD(T)/TZ-F12 QFF                                                        
  64 bit serial version                                                                  DATE: 08-Feb-20          TIME: 17:56:53  
 **********************************************************************************************************************************

 SHA1:             d5ffa45e93fdbca01ffc919aa182cfdae0147319
 **********************************************************************************************************************************

 THRESHOLDS:

 ZERO    =  1.00D-22  ONEINT  =  1.00D-22  TWOINT  =  1.00D-22  PREFAC  =  1.00D-14  LOCALI  =  1.00D-09  EORDER  =  1.00D-04
 ENERGY  =  1.00D-12  ETEST   =  0.00D+00  EDENS   =  0.00D+00  THRDEDEF=  1.00D-06  GRADIENT=  1.00D-02  STEP    =  1.00D-03
 ORBITAL =  1.00D-05  CIVEC   =  1.00D-05  COEFF   =  1.00D-04  PRINTCI =  5.00D-02  PUNCHCI =  9.90D+01  OPTGRAD =  3.00D-04
 OPTENERG=  1.00D-06  OPTSTEP =  3.00D-04  THRGRAD =  1.00D-10  COMPRESS=  1.00D-11  VARMIN  =  1.00D-07  VARMAX  =  1.00D-03
 THRDOUB =  0.00D+00  THRDIV  =  1.00D-05  THRRED  =  1.00D-07  THRPSP  =  1.00D+00  THRDC   =  1.00D-10  THRCS   =  1.00D-10
 THRNRM  =  1.00D-08  THREQ   =  0.00D+00  THRDE   =  1.00D+00  THRREF  =  1.00D-05  SPARFAC =  1.00D+00  THRDLP  =  1.00D-07
 THRDIA  =  1.00D-10  THRDLS  =  1.00D-07  THRGPS  =  0.00D+00  THRKEX  =  0.00D+00  THRDIS  =  2.00D-01  THRVAR  =  1.00D-10
 THRLOC  =  1.00D-06  THRGAP  =  1.00D-06  THRLOCT = -1.00D+00  THRGAPT = -1.00D+00  THRORB  =  1.00D-06  THRMLTP =  0.00D+00
 THRCPQCI=  1.00D-10  KEXTA   =  0.00D+00  THRCOARS=  0.00D+00  SYMTOL  =  1.00D-06  GRADTOL =  1.00D-06  THROVL  =  1.00D-08
 THRORTH =  1.00D-08  GRID    =  1.00D-06  GRIDMAX =  1.00D-03  DTMAX   =  0.00D+00  THROCCDE=  1.00D-01  THROCCDE=  1.00D-01



 THRESHOLDS:

 ZERO    =  1.00D-22  ONEINT  =  1.00D-22  TWOINT  =  1.00D-22  PREFAC  =  1.00D-14  LOCALI  =  1.00D-09  EORDER  =  1.00D-04
 ENERGY  =  1.00D-12  ETEST   =  0.00D+00  EDENS   =  0.00D+00  THRDEDEF=  1.00D-06  GRADIENT=  1.00D-02  STEP    =  1.00D-03
 ORBITAL =  1.00D-05  CIVEC   =  1.00D-05  COEFF   =  1.00D-04  PRINTCI =  5.00D-02  PUNCHCI =  9.90D+01  OPTGRAD =  1.00D-08
 OPTENERG=  1.00D-06  OPTSTEP =  1.00D-08  THRGRAD =  1.00D-10  COMPRESS=  1.00D-11  VARMIN  =  1.00D-07  VARMAX  =  1.00D-03
 THRDOUB =  0.00D+00  THRDIV  =  1.00D-05  THRRED  =  1.00D-07  THRPSP  =  1.00D+00  THRDC   =  1.00D-10  THRCS   =  1.00D-10
 THRNRM  =  1.00D-08  THREQ   =  0.00D+00  THRDE   =  1.00D+00  THRREF  =  1.00D-05  SPARFAC =  1.00D+00  THRDLP  =  1.00D-07
 THRDIA  =  1.00D-10  THRDLS  =  1.00D-07  THRGPS  =  0.00D+00  THRKEX  =  0.00D+00  THRDIS  =  2.00D-01  THRVAR  =  1.00D-10
 THRLOC  =  1.00D-06  THRGAP  =  1.00D-06  THRLOCT = -1.00D+00  THRGAPT = -1.00D+00  THRORB  =  1.00D-06  THRMLTP =  0.00D+00
 THRCPQCI=  1.00D-10  KEXTA   =  0.00D+00  THRCOARS=  0.00D+00  SYMTOL  =  1.00D-06  GRADTOL =  1.00D-06  THROVL  =  1.00D-08
 THRORTH =  1.00D-08  GRID    =  1.00D-06  GRIDMAX =  1.00D-03  DTMAX   =  0.00D+00  THROCCDE=  1.00D-01  THROCCDE=  1.00D-01



 Input parameters for SORTINT:

 COMPRESS =    0.000000
 C_FINAL  =    1.000000
 DEBUG    =   -1.000000
 C_SORT1  =    0.000000
 C_SEWARD =    0.000000
 THRESH   =    0.000000
 IO       =  molpro                                                          
 SPRI     =    0.000000
 SETTING GEOMTYP        =    XYZ
 ZUNIT=BOHR
 

 Variable memory set to  995000000 words,  buffer space   230000 words

 SETTING BASIS          =    AVTZ


 Recomputing integrals since basis changed


 Using spherical harmonics

 Library entry N      S aug-cc-pVTZ          selected for orbital group  1
 Library entry N      P aug-cc-pVTZ          selected for orbital group  1
 Library entry N      D aug-cc-pVTZ          selected for orbital group  1
 Library entry N      F aug-cc-pVTZ          selected for orbital group  1
 Library entry H      S aug-cc-pVTZ          selected for orbital group  2
 Library entry H      P aug-cc-pVTZ          selected for orbital group  2
 Library entry H      D aug-cc-pVTZ          selected for orbital group  2
 Library entry O      S aug-cc-pVTZ          selected for orbital group  3
 Library entry O      P aug-cc-pVTZ          selected for orbital group  3
 Library entry O      D aug-cc-pVTZ          selected for orbital group  3
 Library entry O      F aug-cc-pVTZ          selected for orbital group  3


 PROGRAM * SEWARD (Integral evaluation for generally contracted gaussian basis sets)     Author: Roland Lindh, 1990

 Geometry written to block  1 of record 700


 Point group  Cs  



 ATOMIC COORDINATES

 NR  ATOM    CHARGE       X              Y              Z

   1  N       7.00    0.000000000   -0.178337377   -1.139895868
   2  H       1.00    0.000000000    1.678481203   -1.926090961
   3  O       8.00    0.000000000    0.041623964    1.115397238

 Bond lengths in Bohr (Angstrom)

 1-2  2.016402232  1-3  2.265994260
     ( 1.067034109)     ( 1.199112522)

 Bond angles

  2-1-3  107.37776771

 NUCLEAR CHARGE:                   16
 NUMBER OF PRIMITIVE AOS:         161
 NUMBER OF SYMMETRY AOS:          141
 NUMBER OF CONTRACTIONS:          115   (  76A'  +  39A"  )
 NUMBER OF CORE ORBITALS:           2   (   2A'  +   0A"  )
 NUMBER OF VALENCE ORBITALS:        9   (   7A'  +   2A"  )


 NUCLEAR REPULSION ENERGY   30.50091421

 Eigenvalues of metric

         1 0.231E-03 0.506E-03 0.179E-02 0.214E-02 0.247E-02 0.346E-02 0.434E-02 0.529E-02
         2 0.386E-02 0.105E-01 0.259E-01 0.375E-01 0.513E-01 0.628E-01 0.815E-01 0.119E+00


 Contracted 2-electron integrals neglected if value below      1.0D-22

       10790064. INTEGRALS WRITTEN OUT IN    2635 BLOCKS ON RECORD 1290 OF FILE 1


 NUMBER OF SORTED TWO-ELECTRON INTEGRALS:   11433631.     BUFFER LENGTH:  32768
 NUMBER OF SEGMENTS:   1  SEGMENT LENGTH:   11433631      RECORD LENGTH: 524288

 Memory used in sort:      11.99 MW

 SORT1 READ    10790064. AND WROTE    10943632. INTEGRALS IN     32 RECORDS. CPU TIME:     0.28 SEC, REAL TIME:     0.36 SEC
 SORT2 READ    10943632. AND WROTE    11433631. INTEGRALS IN      1 RECORDS. CPU TIME:     0.20 SEC, REAL TIME:     0.25 SEC

 FILE SIZES:   FILE 1:   193.0 MBYTE,  FILE 4:   134.3 MBYTE,   TOTAL:    327.2 MBYTE

 OPERATOR DM      FOR CENTER  0  COORDINATES:    0.000000    0.000000    0.000000


 **********************************************************************************************************************************
 DATASETS  * FILE   NREC   LENGTH (MB)   RECORD NAMES
              1      19      111.05       500      610      700      900      950      970     1000      129      960     1100   
                                          VAR    BASINP    GEOM    SYMINP    ZMAT    AOBASIS   BASIS     P2S    ABASIS      S 
                                         1400     1410     1200     1210     1080     1600     1650     1300     1700   
                                           T        V       H0       H01     AOSYM     SMH    MOLCAS    ERIS     OPER   

 PROGRAMS   *        TOTAL       INT
 CPU TIMES  *         1.56      1.47
 REAL TIME  *         2.39 SEC
 DISK USED  *       327.55 MB      
 **********************************************************************************************************************************


 PROGRAM * RHF-SCF (CLOSED SHELL)       Authors: W. Meyer, H.-J. Werner


 NUMBER OF ELECTRONS:       8+    8-
 CONVERGENCE THRESHOLDS:    1.00E-10 (Density)    1.00E-13 (Energy)
 MAX. NUMBER OF ITERATIONS:      500
 INTERPOLATION TYPE:            DIIS
 INTERPOLATION STEPS:              2 (START)      1 (STEP)
 LEVEL SHIFTS:                  0.00 (CLOSED)  0.00 (OPEN) 



 Orbital guess generated from atomic densities. Full valence occupancy:    9   2

 Molecular orbital dump at record        2100.2

 Initial occupancy:   7   1

 ITERATION    DDIFF          GRAD             ENERGY        2-EL.EN.            DIPOLE MOMENTS         DIIS   ORB.
    1      0.000D+00      0.000D+00      -129.78929546    154.121269    0.00000    0.57070   -0.99143    0    start
    2      0.000D+00      0.107D-01      -129.81701304    155.423536    0.00000    0.60402   -0.20366    1    diag
    3      0.118D-01      0.810D-02      -129.83892104    155.510950    0.00000    0.54443   -0.57385    2    diag
    4      0.585D-02      0.126D-02      -129.83969449    155.227777    0.00000    0.55239   -0.51562    3    diag
    5      0.106D-02      0.419D-03      -129.83981976    155.321937    0.00000    0.55812   -0.51863    4    diag
    6      0.447D-03      0.122D-03      -129.83983991    155.306296    0.00000    0.55853   -0.51467    5    diag
    7      0.172D-03      0.597D-04      -129.83984555    155.308966    0.00000    0.55985   -0.51224    6    diag
    8      0.118D-03      0.198D-04      -129.83984611    155.308326    0.00000    0.55988   -0.51131    7    diag
    9      0.421D-04      0.372D-05      -129.83984613    155.308221    0.00000    0.55984   -0.51110    8    diag
   10      0.800D-05      0.861D-06      -129.83984614    155.308201    0.00000    0.55981   -0.51107    9    orth
   11      0.169D-05      0.175D-06      -129.83984614    155.308197    0.00000    0.55980   -0.51107    9    diag
   12      0.338D-06      0.360D-07      -129.83984614    155.308197    0.00000    0.55980   -0.51107    9    diag
   13      0.746D-07      0.906D-08      -129.83984614    155.308197    0.00000    0.55980   -0.51107    9    diag
   14      0.194D-07      0.192D-08      -129.83984614    155.308197    0.00000    0.55980   -0.51107    9    diag
   15      0.396D-08      0.550D-09      -129.83984614    155.308197    0.00000    0.55980   -0.51107    9    diag
   16      0.108D-08      0.156D-09      -129.83984614    155.308197    0.00000    0.55980   -0.51107    9    diag
   17      0.204D-09      0.472D-10      -129.83984614    155.308197    0.00000    0.55980   -0.51107    9    diag
   18      0.613D-10      0.167D-10      -129.83984614    155.308197    0.00000    0.55980   -0.51107    9    diag
   19      0.299D-10      0.372D-11      -129.83984614    155.308197    0.00000    0.55980   -0.51107    0    orth

 Final occupancy:   7   1

 !RHF STATE 1.1 Energy               -129.839846135958
 Nuclear energy                        30.50091421
 One-electron energy                 -237.99485876
 Two-electron energy                   77.65409841
 Virial quotient                       -1.00203301
 !RHF STATE 1.1 Dipole moment           0.00000000     0.55980073    -0.51106644
 Dipole moment /Debye                   0.00000000     1.42277834    -1.29891625

 Orbital energies:

         1.1          2.1          3.1          4.1          5.1          6.1          7.1          8.1          9.1
    -20.655833   -15.715141    -1.538385    -0.988813    -0.748473    -0.668507    -0.427338     0.029370     0.092236

         1.2          2.2          3.2
     -0.600840     0.067447     0.130733

 HOMO      7.1    -0.427338 =     -11.6284eV
 LUMO      8.1     0.029370 =       0.7992eV
 LUMO-HOMO         0.456708 =      12.4277eV


 **********************************************************************************************************************************
 DATASETS  * FILE   NREC   LENGTH (MB)   RECORD NAMES
              1      19      111.05       500      610      700      900      950      970     1000      129      960     1100   
                                          VAR    BASINP    GEOM    SYMINP    ZMAT    AOBASIS   BASIS     P2S    ABASIS      S 
                                         1400     1410     1200     1210     1080     1600     1650     1300     1700   
                                           T        V       H0       H01     AOSYM     SMH    MOLCAS    ERIS     OPER   

              2       4        2.94       700     1000      520     2100   
                                         GEOM     BASIS   MCVARS     RHF  

 PROGRAMS   *        TOTAL        HF       INT
 CPU TIMES  *         2.68      1.12      1.47
 REAL TIME  *         3.83 SEC
 DISK USED  *       327.55 MB      
 **********************************************************************************************************************************


 PROGRAM * CCSD (Closed-shell coupled cluster)     Authors: C. Hampel, H.-J. Werner, 1991, M. Deegan, P.J. Knowles, 1992


 Convergence thresholds:  THRVAR = 1.00D-08  THRDEN = 1.00D-12

 CCSD(T)     terms to be evaluated (factor= 1.000)


 Number of core orbitals:           2 (   2   0 )
 Number of closed-shell orbitals:   6 (   5   1 )
 Number of external orbitals:     107 (  69  38 )

 Molecular orbitals read from record     2100.2  Type=RHF/CANONICAL (state 1.1)

 Number of N-1 electron functions:               6
 Number of N-2 electron functions:              21
 Number of singly external CSFs:               383
 Number of doubly external CSFs:            107206
 Total number of CSFs:                      107590

 Length of J-op  integral file:               0.00 MB
 Length of K-op  integral file:               0.54 MB
 Length of 3-ext integral record:             0.00 MB

 Memory could be reduced to 5.94 Mwords without degradation in triples

 Integral transformation finished. Total CPU:   0.19 sec, npass=  1  Memory used:   1.65 MW

 Reference energy:                   -129.83984614

 MP2 singlet pair energy:              -0.27887733
 MP2 triplet pair energy:              -0.16477491
 MP2 correlation energy:               -0.44365223
 MP2 total energy:                   -130.28349837

 SCS-MP2 correlation energy:           -0.43717940   (PS=  1.200000  PT=  0.333333)
 SCS-MP2 total energy:               -130.27702554

 ITER.      SQ.NORM     CORR.ENERGY   TOTAL ENERGY   ENERGY CHANGE        DEN1      VAR(S)    VAR(P)  DIIS     TIME  TIME/IT
   1      1.12048675    -0.44806486  -130.28791099    -0.00441263     0.01140429  0.31D-02  0.31D-02  1  1     0.39     0.21
   2      1.13148236    -0.44832385  -130.28816999    -0.00025899    -0.01230541  0.97D-04  0.50D-03  2  2     0.60     0.22
   3      1.13786805    -0.44871786  -130.28856399    -0.00039401    -0.00297544  0.53D-04  0.49D-04  3  3     0.78     0.22
   4      1.14066821    -0.44872707  -130.28857320    -0.00000921    -0.00095572  0.41D-05  0.89D-05  4  4     0.99     0.22
   5      1.14168057    -0.44875503  -130.28860117    -0.00002796    -0.00021528  0.12D-05  0.16D-05  5  5     1.21     0.22
   6      1.14201342    -0.44873900  -130.28858514     0.00001603    -0.00004039  0.11D-06  0.38D-06  6  6     1.41     0.22
   7      1.14208897    -0.44873973  -130.28858586    -0.00000072    -0.00000214  0.22D-07  0.87D-07  6  1     1.61     0.22
   8      1.14211114    -0.44874040  -130.28858654    -0.00000068     0.00000122  0.36D-08  0.16D-07  6  2     1.80     0.22
   9      1.14211674    -0.44873994  -130.28858608     0.00000046     0.00000048  0.25D-08  0.17D-08  6  4     1.99     0.22
  10      1.14211898    -0.44874041  -130.28858654    -0.00000047    -0.00000068  0.40D-09  0.20D-09  6  3     2.19     0.22
  11      1.14211847    -0.44874043  -130.28858657    -0.00000003    -0.00000005  0.14D-09  0.30D-10  6  5     2.40     0.22
  12      1.14211743    -0.44874057  -130.28858671    -0.00000014     0.00000032  0.17D-10  0.98D-11  6  6     2.59     0.22
  13      1.14211662    -0.44874061  -130.28858674    -0.00000003     0.00000021  0.61D-11  0.19D-11  6  1     2.79     0.22
  14      1.14211610    -0.44874063  -130.28858677    -0.00000003     0.00000013  0.10D-11  0.60D-12  6  2     2.99     0.22
  15      1.14211589    -0.44874064  -130.28858678    -0.00000001     0.00000003  0.29D-12  0.19D-12  6  4     3.19     0.22
  16      1.14211580    -0.44874064  -130.28858678    -0.00000000     0.00000001  0.55D-13  0.66D-13  6  3     3.40     0.22
  17      1.14211575    -0.44874065  -130.28858678    -0.00000000     0.00000001  0.36D-14  0.16D-13  6  5     3.60     0.22
  18      1.14211574    -0.44874065  -130.28858678     0.00000000    -0.00000000  0.11D-14  0.33D-14  6  6     3.80     0.22
  19      1.14211573    -0.44874065  -130.28858678    -0.00000000     0.00000000  0.91D-15  0.61D-15  6  1     3.99     0.22
  20      1.14211574    -0.44874065  -130.28858678     0.00000000    -0.00000000  0.19D-15  0.11D-15  6  2     4.19     0.22
  21      1.14211574    -0.44874065  -130.28858678     0.00000000    -0.00000000  0.45D-16  0.28D-16  6  3     4.41     0.22
  22      1.14211574    -0.44874065  -130.28858678     0.00000000     0.00000000  0.53D-17  0.25D-17  6  4     4.61     0.22
  23      1.14211574    -0.44874065  -130.28858678     0.00000000    -0.00000000  0.20D-17  0.51D-18  6  5     4.80     0.22
  24      1.14211574    -0.44874065  -130.28858678     0.00000000     0.00000000  0.13D-18  0.43D-19  6  2     4.99     0.22
  25      1.14211574    -0.44874065  -130.28858678    -0.00000000    -0.00000000  0.19D-19  0.11D-19  6  6     5.20     0.22
  26      1.14211574    -0.44874065  -130.28858678     0.00000000    -0.00000000  0.31D-20  0.18D-20  6  1     5.40     0.22
  27      1.14211574    -0.44874065  -130.28858678    -0.00000000    -0.00000000  0.45D-21  0.40D-21  6  4     5.60     0.22

 Norm of t1 vector:      0.07748434      S-energy:     0.00000000      T1 diagnostic:  0.01581642
                                                                       D1 diagnostic:  0.04088065

 Doubles amplitudes (print threshold =  0.500E-01):

         I         J         SYM. A    SYM. B    A         B      T(IJ, AB)

         6         6         2         2         1         1     -0.10486996


 Total CPU time for triples:      1.65 sec


 RESULTS
 =======

  Reference energy                   -129.839846135958
  CCSD singlet pair energy             -0.307562464309
  CCSD triplet pair energy             -0.141178180762
  CCSD correlation energy              -0.448740645070

  Triples (T) contribution             -0.020733826732
  Total correlation energy             -0.469474471801

  CCSD total energy                  -130.288586781027
  CCSD[T] energy                     -130.310361255205
  CCSD-T energy                      -130.308920221055
 !CCSD(T) total energy               -130.309320607759

 Timing summary (sec):

 STEP                 CPU(USER)    SYS     CPU(TOT)    WALL
 Transformation          0.20      0.02      0.22      0.25
 CCSD iterations         5.40      0.67      6.07      6.05
 Triples                 1.65      0.02      1.67      1.67

 Program statistics:

 Available memory in ccsd:               994999756
 Min. memory needed in ccsd:                389120
 Max. memory used in ccsd:                  473124
 Max. memory used in cckext:                599488 (27 integral passes)



 **********************************************************************************************************************************
 DATASETS  * FILE   NREC   LENGTH (MB)   RECORD NAMES
              1      20      128.20       500      610      700      900      950      970     1000      129      960     1100   
                                          VAR    BASINP    GEOM    SYMINP    ZMAT    AOBASIS   BASIS     P2S    ABASIS      S 
                                         1400     1410     1200     1210     1080     1600     1650     1300     1700     1380   
                                           T        V       H0       H01     AOSYM     SMH    MOLCAS    ERIS     OPER     JKOP   

              2       4        2.94       700     1000      520     2100   
                                         GEOM     BASIS   MCVARS     RHF  

 PROGRAMS   *        TOTAL   CCSD(T)        HF       INT
 CPU TIMES  *         9.95      7.26      1.12      1.47
 REAL TIME  *        11.84 SEC
 DISK USED  *       327.55 MB      
 **********************************************************************************************************************************

 CCSD(T)/aug-cc-pVTZ energy=   -130.309320607759

        CCSD(T)         HF-SCF  
   -130.30932061   -129.83984614
 **********************************************************************************************************************************
 Molpro calculation terminated
 Variable memory released
