
 Primary working directories    : /tmp/r2666/234961.maple
 Secondary working directories  : /tmp/r2666/234961.maple
 Wavefunction directory         : /ddn/home4/r2666/wfu/
 Main file repository           : /tmp/r2666/234961.maple/

 SHA1      : d5ffa45e93fdbca01ffc919aa182cfdae0147319
 NAME      : 2015.1.35
 ARCHNAME  : linux/x86_64
 FC        : /opt/intel/composer_xe_2015.1.133/bin/intel64/ifort
 BLASLIB   : -Wl,-_start-group /opt/intel/mkl/lib/intel64/libmkl_intel_ilp64.a /opt/intel/mkl/lib/intel64/libmkl_intel_thread.a /opt/intel/mkl/lib/intel64/libmkl_core.a -Wl,-_end-group
 id        : olemiss

 Nodes     nprocs
 cn089        1

 Using customized tuning parameters: mindgm=1; mindgv=20; mindgc=4; mindgr=1; noblas=0; minvec=7
 default implementation of scratch files=df  

 ***,hno CCSD(T)/TZ-F12 QFF
 memory, 995, m;
 gthresh,energy=1.d-12,zero=1.d-22,oneint=1.d-22,twoint=1.d-22;
 gthresh,optgrad=1.d-8,optstep=1.d-8;
 nocompress;
 geomtyp=xyz
 bohr
 geometry={
 3
         75        75
 N        0.0000000000       -0.1657353338       -1.1615002539
 H        0.0000000000        1.6686649215       -1.9278837887
 O        0.0000000000        0.0388382023        1.1387944515
 }
 
 basis=avtz
   {hf,maxit=500;accu,20;}
 {ccsd(t),nocheck,maxit=250;orbital,IGNORE_ERROR;}

 Variables initialized (889), CPU time= 0.00 sec
 Commands  initialized (702), CPU time= 0.01 sec, 572 directives.
 Default parameters read. Elapsed time= 0.04 sec

 Checking input...
 Passed
1


                                         ***  PROGRAM SYSTEM MOLPRO  ***
                                       Copyright, TTI GmbH Stuttgart, 2015
                                    Version 2015.1 linked Jul  9 2018 13:16:40


 **********************************************************************************************************************************
 LABEL *   hno CCSD(T)/TZ-F12 QFF                                                        
  64 bit serial version                                                                  DATE: 08-Feb-20          TIME: 17:56:34  
 **********************************************************************************************************************************

 SHA1:             d5ffa45e93fdbca01ffc919aa182cfdae0147319
 **********************************************************************************************************************************

 THRESHOLDS:

 ZERO    =  1.00D-22  ONEINT  =  1.00D-22  TWOINT  =  1.00D-22  PREFAC  =  1.00D-14  LOCALI  =  1.00D-09  EORDER  =  1.00D-04
 ENERGY  =  1.00D-12  ETEST   =  0.00D+00  EDENS   =  0.00D+00  THRDEDEF=  1.00D-06  GRADIENT=  1.00D-02  STEP    =  1.00D-03
 ORBITAL =  1.00D-05  CIVEC   =  1.00D-05  COEFF   =  1.00D-04  PRINTCI =  5.00D-02  PUNCHCI =  9.90D+01  OPTGRAD =  3.00D-04
 OPTENERG=  1.00D-06  OPTSTEP =  3.00D-04  THRGRAD =  1.00D-10  COMPRESS=  1.00D-11  VARMIN  =  1.00D-07  VARMAX  =  1.00D-03
 THRDOUB =  0.00D+00  THRDIV  =  1.00D-05  THRRED  =  1.00D-07  THRPSP  =  1.00D+00  THRDC   =  1.00D-10  THRCS   =  1.00D-10
 THRNRM  =  1.00D-08  THREQ   =  0.00D+00  THRDE   =  1.00D+00  THRREF  =  1.00D-05  SPARFAC =  1.00D+00  THRDLP  =  1.00D-07
 THRDIA  =  1.00D-10  THRDLS  =  1.00D-07  THRGPS  =  0.00D+00  THRKEX  =  0.00D+00  THRDIS  =  2.00D-01  THRVAR  =  1.00D-10
 THRLOC  =  1.00D-06  THRGAP  =  1.00D-06  THRLOCT = -1.00D+00  THRGAPT = -1.00D+00  THRORB  =  1.00D-06  THRMLTP =  0.00D+00
 THRCPQCI=  1.00D-10  KEXTA   =  0.00D+00  THRCOARS=  0.00D+00  SYMTOL  =  1.00D-06  GRADTOL =  1.00D-06  THROVL  =  1.00D-08
 THRORTH =  1.00D-08  GRID    =  1.00D-06  GRIDMAX =  1.00D-03  DTMAX   =  0.00D+00  THROCCDE=  1.00D-01  THROCCDE=  1.00D-01



 THRESHOLDS:

 ZERO    =  1.00D-22  ONEINT  =  1.00D-22  TWOINT  =  1.00D-22  PREFAC  =  1.00D-14  LOCALI  =  1.00D-09  EORDER  =  1.00D-04
 ENERGY  =  1.00D-12  ETEST   =  0.00D+00  EDENS   =  0.00D+00  THRDEDEF=  1.00D-06  GRADIENT=  1.00D-02  STEP    =  1.00D-03
 ORBITAL =  1.00D-05  CIVEC   =  1.00D-05  COEFF   =  1.00D-04  PRINTCI =  5.00D-02  PUNCHCI =  9.90D+01  OPTGRAD =  1.00D-08
 OPTENERG=  1.00D-06  OPTSTEP =  1.00D-08  THRGRAD =  1.00D-10  COMPRESS=  1.00D-11  VARMIN  =  1.00D-07  VARMAX  =  1.00D-03
 THRDOUB =  0.00D+00  THRDIV  =  1.00D-05  THRRED  =  1.00D-07  THRPSP  =  1.00D+00  THRDC   =  1.00D-10  THRCS   =  1.00D-10
 THRNRM  =  1.00D-08  THREQ   =  0.00D+00  THRDE   =  1.00D+00  THRREF  =  1.00D-05  SPARFAC =  1.00D+00  THRDLP  =  1.00D-07
 THRDIA  =  1.00D-10  THRDLS  =  1.00D-07  THRGPS  =  0.00D+00  THRKEX  =  0.00D+00  THRDIS  =  2.00D-01  THRVAR  =  1.00D-10
 THRLOC  =  1.00D-06  THRGAP  =  1.00D-06  THRLOCT = -1.00D+00  THRGAPT = -1.00D+00  THRORB  =  1.00D-06  THRMLTP =  0.00D+00
 THRCPQCI=  1.00D-10  KEXTA   =  0.00D+00  THRCOARS=  0.00D+00  SYMTOL  =  1.00D-06  GRADTOL =  1.00D-06  THROVL  =  1.00D-08
 THRORTH =  1.00D-08  GRID    =  1.00D-06  GRIDMAX =  1.00D-03  DTMAX   =  0.00D+00  THROCCDE=  1.00D-01  THROCCDE=  1.00D-01



 Input parameters for SORTINT:

 COMPRESS =    0.000000
 C_FINAL  =    1.000000
 DEBUG    =   -1.000000
 C_SORT1  =    0.000000
 C_SEWARD =    0.000000
 THRESH   =    0.000000
 IO       =  molpro                                                          
 SPRI     =    0.000000
 SETTING GEOMTYP        =    XYZ
 ZUNIT=BOHR
 

 Variable memory set to  995000000 words,  buffer space   230000 words

 SETTING BASIS          =    AVTZ


 Recomputing integrals since basis changed


 Using spherical harmonics

 Library entry N      S aug-cc-pVTZ          selected for orbital group  1
 Library entry N      P aug-cc-pVTZ          selected for orbital group  1
 Library entry N      D aug-cc-pVTZ          selected for orbital group  1
 Library entry N      F aug-cc-pVTZ          selected for orbital group  1
 Library entry H      S aug-cc-pVTZ          selected for orbital group  2
 Library entry H      P aug-cc-pVTZ          selected for orbital group  2
 Library entry H      D aug-cc-pVTZ          selected for orbital group  2
 Library entry O      S aug-cc-pVTZ          selected for orbital group  3
 Library entry O      P aug-cc-pVTZ          selected for orbital group  3
 Library entry O      D aug-cc-pVTZ          selected for orbital group  3
 Library entry O      F aug-cc-pVTZ          selected for orbital group  3


 PROGRAM * SEWARD (Integral evaluation for generally contracted gaussian basis sets)     Author: Roland Lindh, 1990

 Geometry written to block  1 of record 700


 Point group  Cs  



 ATOMIC COORDINATES

 NR  ATOM    CHARGE       X              Y              Z

   1  N       7.00    0.000000000   -0.165735334   -1.161500254
   2  H       1.00    0.000000000    1.668664922   -1.927883789
   3  O       8.00    0.000000000    0.038838202    1.138794451

 Bond lengths in Bohr (Angstrom)

 1-2  1.988056342  1-3  2.309373522
     ( 1.052034110)     ( 1.222067839)

 Bond angles

  2-1-3  107.59225311

 NUCLEAR CHARGE:                   16
 NUMBER OF PRIMITIVE AOS:         161
 NUMBER OF SYMMETRY AOS:          141
 NUMBER OF CONTRACTIONS:          115   (  76A'  +  39A"  )
 NUMBER OF CORE ORBITALS:           2   (   2A'  +   0A"  )
 NUMBER OF VALENCE ORBITALS:        9   (   7A'  +   2A"  )


 NUCLEAR REPULSION ENERGY   30.07359551

 Eigenvalues of metric

         1 0.236E-03 0.508E-03 0.183E-02 0.217E-02 0.265E-02 0.380E-02 0.435E-02 0.524E-02
         2 0.411E-02 0.102E-01 0.269E-01 0.375E-01 0.517E-01 0.626E-01 0.844E-01 0.121E+00


 Contracted 2-electron integrals neglected if value below      1.0D-22

       10790064. INTEGRALS WRITTEN OUT IN    2635 BLOCKS ON RECORD 1290 OF FILE 1


 NUMBER OF SORTED TWO-ELECTRON INTEGRALS:   11433631.     BUFFER LENGTH:  32768
 NUMBER OF SEGMENTS:   1  SEGMENT LENGTH:   11433631      RECORD LENGTH: 524288

 Memory used in sort:      11.99 MW

 SORT1 READ    10790064. AND WROTE    10943632. INTEGRALS IN     32 RECORDS. CPU TIME:     0.15 SEC, REAL TIME:     0.22 SEC
 SORT2 READ    10943632. AND WROTE    11433631. INTEGRALS IN      1 RECORDS. CPU TIME:     0.15 SEC, REAL TIME:     0.23 SEC

 FILE SIZES:   FILE 1:   193.0 MBYTE,  FILE 4:   134.3 MBYTE,   TOTAL:    327.2 MBYTE

 OPERATOR DM      FOR CENTER  0  COORDINATES:    0.000000    0.000000    0.000000


 **********************************************************************************************************************************
 DATASETS  * FILE   NREC   LENGTH (MB)   RECORD NAMES
              1      19      111.05       500      610      700      900      950      970     1000      129      960     1100   
                                          VAR    BASINP    GEOM    SYMINP    ZMAT    AOBASIS   BASIS     P2S    ABASIS      S 
                                         1400     1410     1200     1210     1080     1600     1650     1300     1700   
                                           T        V       H0       H01     AOSYM     SMH    MOLCAS    ERIS     OPER   

 PROGRAMS   *        TOTAL       INT
 CPU TIMES  *         1.31      1.23
 REAL TIME  *         2.30 SEC
 DISK USED  *       327.55 MB      
 **********************************************************************************************************************************


 PROGRAM * RHF-SCF (CLOSED SHELL)       Authors: W. Meyer, H.-J. Werner


 NUMBER OF ELECTRONS:       8+    8-
 CONVERGENCE THRESHOLDS:    1.00E-10 (Density)    1.00E-13 (Energy)
 MAX. NUMBER OF ITERATIONS:      500
 INTERPOLATION TYPE:            DIIS
 INTERPOLATION STEPS:              2 (START)      1 (STEP)
 LEVEL SHIFTS:                  0.00 (CLOSED)  0.00 (OPEN) 



 Orbital guess generated from atomic densities. Full valence occupancy:    9   2

 Molecular orbital dump at record        2100.2

 Initial occupancy:   7   1

 ITERATION    DDIFF          GRAD             ENERGY        2-EL.EN.            DIPOLE MOMENTS         DIIS   ORB.
    1      0.000D+00      0.000D+00      -129.78405079    153.370437    0.00000    0.59284   -1.06566    0    start
    2      0.000D+00      0.109D-01      -129.81099518    154.605079    0.00000    0.61999   -0.19950    1    diag
    3      0.122D-01      0.863D-02      -129.83613423    154.750210    0.00000    0.56131   -0.61105    2    diag
    4      0.617D-02      0.130D-02      -129.83695401    154.451237    0.00000    0.56868   -0.54906    3    diag
    5      0.109D-02      0.430D-03      -129.83708568    154.546323    0.00000    0.57421   -0.55158    4    diag
    6      0.461D-03      0.124D-03      -129.83710678    154.530535    0.00000    0.57451   -0.54723    5    diag
    7      0.176D-03      0.624D-04      -129.83711307    154.532911    0.00000    0.57572   -0.54446    6    diag
    8      0.123D-03      0.221D-04      -129.83711383    154.532200    0.00000    0.57573   -0.54335    7    diag
    9      0.495D-04      0.425D-05      -129.83711387    154.532081    0.00000    0.57569   -0.54311    8    diag
   10      0.977D-05      0.936D-06      -129.83711387    154.532061    0.00000    0.57566   -0.54308    9    orth
   11      0.184D-05      0.184D-06      -129.83711387    154.532059    0.00000    0.57565   -0.54308    9    diag
   12      0.343D-06      0.390D-07      -129.83711387    154.532058    0.00000    0.57565   -0.54308    9    diag
   13      0.743D-07      0.103D-07      -129.83711387    154.532058    0.00000    0.57565   -0.54308    9    diag
   14      0.204D-07      0.211D-08      -129.83711387    154.532058    0.00000    0.57565   -0.54308    9    diag
   15      0.385D-08      0.576D-09      -129.83711387    154.532058    0.00000    0.57565   -0.54308    9    diag
   16      0.107D-08      0.150D-09      -129.83711387    154.532058    0.00000    0.57565   -0.54308    9    diag
   17      0.172D-09      0.405D-10      -129.83711387    154.532058    0.00000    0.57565   -0.54308    9    diag
   18      0.478D-10      0.140D-10      -129.83711387    154.532058    0.00000    0.57565   -0.54308    0    orth

 Final occupancy:   7   1

 !RHF STATE 1.1 Energy               -129.837113866775
 Nuclear energy                        30.07359551
 One-electron energy                 -237.17673855
 Two-electron energy                   77.26602917
 Virial quotient                       -1.00255291
 !RHF STATE 1.1 Dipole moment           0.00000000     0.57564899    -0.54308146
 Dipole moment /Debye                   0.00000000     1.46305797    -1.38028498

 Orbital energies:

         1.1          2.1          3.1          4.1          5.1          6.1          7.1          8.1          9.1
    -20.657773   -15.717012    -1.519693    -0.997986    -0.743070    -0.661981    -0.435116     0.029036     0.092141

         1.2          2.2          3.2
     -0.589709     0.061007     0.129877

 HOMO      7.1    -0.435116 =     -11.8401eV
 LUMO      8.1     0.029036 =       0.7901eV
 LUMO-HOMO         0.464152 =      12.6302eV


 **********************************************************************************************************************************
 DATASETS  * FILE   NREC   LENGTH (MB)   RECORD NAMES
              1      19      111.05       500      610      700      900      950      970     1000      129      960     1100   
                                          VAR    BASINP    GEOM    SYMINP    ZMAT    AOBASIS   BASIS     P2S    ABASIS      S 
                                         1400     1410     1200     1210     1080     1600     1650     1300     1700   
                                           T        V       H0       H01     AOSYM     SMH    MOLCAS    ERIS     OPER   

              2       4        2.94       700     1000      520     2100   
                                         GEOM     BASIS   MCVARS     RHF  

 PROGRAMS   *        TOTAL        HF       INT
 CPU TIMES  *         2.24      0.93      1.23
 REAL TIME  *         3.53 SEC
 DISK USED  *       327.55 MB      
 **********************************************************************************************************************************


 PROGRAM * CCSD (Closed-shell coupled cluster)     Authors: C. Hampel, H.-J. Werner, 1991, M. Deegan, P.J. Knowles, 1992


 Convergence thresholds:  THRVAR = 1.00D-08  THRDEN = 1.00D-12

 CCSD(T)     terms to be evaluated (factor= 1.000)


 Number of core orbitals:           2 (   2   0 )
 Number of closed-shell orbitals:   6 (   5   1 )
 Number of external orbitals:     107 (  69  38 )

 Molecular orbitals read from record     2100.2  Type=RHF/CANONICAL (state 1.1)

 Number of N-1 electron functions:               6
 Number of N-2 electron functions:              21
 Number of singly external CSFs:               383
 Number of doubly external CSFs:            107206
 Total number of CSFs:                      107590

 Length of J-op  integral file:               0.00 MB
 Length of K-op  integral file:               0.54 MB
 Length of 3-ext integral record:             0.00 MB

 Memory could be reduced to 5.94 Mwords without degradation in triples

 Integral transformation finished. Total CPU:   0.13 sec, npass=  1  Memory used:   1.65 MW

 Reference energy:                   -129.83711387

 MP2 singlet pair energy:              -0.28094283
 MP2 triplet pair energy:              -0.16619054
 MP2 correlation energy:               -0.44713338
 MP2 total energy:                   -130.28424724

 SCS-MP2 correlation energy:           -0.44053885   (PS=  1.200000  PT=  0.333333)
 SCS-MP2 total energy:               -130.27765271

 ITER.      SQ.NORM     CORR.ENERGY   TOTAL ENERGY   ENERGY CHANGE        DEN1      VAR(S)    VAR(P)  DIIS     TIME  TIME/IT
   1      1.12248750    -0.45068661  -130.28780048    -0.00355324     0.01310916  0.33D-02  0.33D-02  1  1     0.29     0.17
   2      1.13396183    -0.45077116  -130.28788503    -0.00008455    -0.01279207  0.11D-03  0.53D-03  2  2     0.44     0.17
   3      1.14075634    -0.45119481  -130.28830868    -0.00042365    -0.00309835  0.58D-04  0.54D-04  3  3     0.58     0.17
   4      1.14381910    -0.45120755  -130.28832141    -0.00001273    -0.00102336  0.46D-05  0.98D-05  4  4     0.72     0.17
   5      1.14495775    -0.45123914  -130.28835301    -0.00003160    -0.00024029  0.12D-05  0.17D-05  5  5     0.87     0.17
   6      1.14532152    -0.45122024  -130.28833411     0.00001890    -0.00004498  0.10D-06  0.40D-06  6  6     1.03     0.17
   7      1.14539560    -0.45122171  -130.28833557    -0.00000146    -0.00000122  0.18D-07  0.95D-07  6  1     1.20     0.17
   8      1.14541710    -0.45122222  -130.28833608    -0.00000051     0.00000160  0.34D-08  0.18D-07  6  2     1.35     0.17
   9      1.14542595    -0.45122159  -130.28833546     0.00000063    -0.00000087  0.26D-08  0.20D-08  6  3     1.51     0.17
  10      1.14542617    -0.45122213  -130.28833600    -0.00000054    -0.00000003  0.53D-09  0.28D-09  6  4     1.66     0.17
  11      1.14542453    -0.45122225  -130.28833612    -0.00000012     0.00000053  0.16D-09  0.35D-10  6  5     1.81     0.17
  12      1.14542316    -0.45122245  -130.28833632    -0.00000020     0.00000043  0.16D-10  0.98D-11  6  6     1.95     0.17
  13      1.14542239    -0.45122247  -130.28833634    -0.00000002     0.00000018  0.58D-11  0.19D-11  6  1     2.10     0.17
  14      1.14542192    -0.45122249  -130.28833636    -0.00000002     0.00000010  0.87D-12  0.61D-12  6  2     2.27     0.17
  15      1.14542173    -0.45122250  -130.28833637    -0.00000001     0.00000002  0.26D-12  0.18D-12  6  3     2.43     0.17
  16      1.14542163    -0.45122250  -130.28833637    -0.00000000     0.00000001  0.43D-13  0.63D-13  6  4     2.59     0.17
  17      1.14542157    -0.45122251  -130.28833637    -0.00000000     0.00000001  0.29D-14  0.14D-13  6  5     2.74     0.17
  18      1.14542157    -0.45122251  -130.28833637     0.00000000     0.00000000  0.11D-14  0.34D-14  6  6     2.87     0.17
  19      1.14542157    -0.45122251  -130.28833637     0.00000000    -0.00000000  0.14D-15  0.23D-15  6  5     3.03     0.17
  20      1.14542157    -0.45122251  -130.28833637    -0.00000000    -0.00000000  0.57D-16  0.39D-16  6  1     3.19     0.17
  21      1.14542157    -0.45122251  -130.28833637     0.00000000     0.00000000  0.13D-16  0.85D-17  6  2     3.34     0.17
  22      1.14542157    -0.45122251  -130.28833637    -0.00000000     0.00000000  0.37D-17  0.10D-17  6  3     3.49     0.17
  23      1.14542157    -0.45122251  -130.28833637     0.00000000     0.00000000  0.93D-18  0.31D-18  6  4     3.65     0.17
  24      1.14542157    -0.45122251  -130.28833637    -0.00000000     0.00000000  0.27D-18  0.59D-19  6  6     3.80     0.17
  25      1.14542157    -0.45122251  -130.28833637     0.00000000    -0.00000000  0.45D-19  0.27D-19  6  5     3.94     0.17
  26      1.14542157    -0.45122251  -130.28833637     0.00000000    -0.00000000  0.69D-20  0.11D-19  6  1     4.09     0.17
  27      1.14542157    -0.45122251  -130.28833637    -0.00000000    -0.00000000  0.30D-21  0.14D-20  6  3     4.24     0.17
  28      1.14542157    -0.45122251  -130.28833637     0.00000000     0.00000000  0.74D-22  0.19D-21  6  2     4.41     0.17

 Norm of t1 vector:      0.08065399      S-energy:     0.00000000      T1 diagnostic:  0.01646343
                                                                       D1 diagnostic:  0.04397154

 Doubles amplitudes (print threshold =  0.500E-01):

         I         J         SYM. A    SYM. B    A         B      T(IJ, AB)

         6         6         2         2         1         1     -0.11508572


 Total CPU time for triples:      1.23 sec


 RESULTS
 =======

  Reference energy                   -129.837113866776
  CCSD singlet pair energy             -0.309706012630
  CCSD triplet pair energy             -0.141516492726
  CCSD correlation energy              -0.451222505353

  Triples (T) contribution             -0.021351582226
  Total correlation energy             -0.472574087579

  CCSD total energy                  -130.288336372129
  CCSD[T] energy                     -130.310815101029
  CCSD-T energy                      -130.309269690468
 !CCSD(T) total energy               -130.309687954355

 Timing summary (sec):

 STEP                 CPU(USER)    SYS     CPU(TOT)    WALL
 Transformation          0.14      0.04      0.18      0.22
 CCSD iterations         4.27      0.56      4.83      4.83
 Triples                 1.23      0.05      1.28      1.27

 Program statistics:

 Available memory in ccsd:               994999756
 Min. memory needed in ccsd:                389120
 Max. memory used in ccsd:                  473124
 Max. memory used in cckext:                599488 (28 integral passes)



 **********************************************************************************************************************************
 DATASETS  * FILE   NREC   LENGTH (MB)   RECORD NAMES
              1      20      128.20       500      610      700      900      950      970     1000      129      960     1100   
                                          VAR    BASINP    GEOM    SYMINP    ZMAT    AOBASIS   BASIS     P2S    ABASIS      S 
                                         1400     1410     1200     1210     1080     1600     1650     1300     1700     1380   
                                           T        V       H0       H01     AOSYM     SMH    MOLCAS    ERIS     OPER     JKOP   

              2       4        2.94       700     1000      520     2100   
                                         GEOM     BASIS   MCVARS     RHF  

 PROGRAMS   *        TOTAL   CCSD(T)        HF       INT
 CPU TIMES  *         7.90      5.66      0.93      1.23
 REAL TIME  *         9.88 SEC
 DISK USED  *       327.55 MB      
 **********************************************************************************************************************************

 CCSD(T)/aug-cc-pVTZ energy=   -130.309687954355

        CCSD(T)         HF-SCF  
   -130.30968795   -129.83711387
 **********************************************************************************************************************************
 Molpro calculation terminated
 Variable memory released
