
 Primary working directories    : /tmp/r2666/234994.maple
 Secondary working directories  : /tmp/r2666/234994.maple
 Wavefunction directory         : /ddn/home4/r2666/wfu/
 Main file repository           : /tmp/r2666/234994.maple/

 SHA1      : d5ffa45e93fdbca01ffc919aa182cfdae0147319
 NAME      : 2015.1.35
 ARCHNAME  : linux/x86_64
 FC        : /opt/intel/composer_xe_2015.1.133/bin/intel64/ifort
 BLASLIB   : -Wl,-_start-group /opt/intel/mkl/lib/intel64/libmkl_intel_ilp64.a /opt/intel/mkl/lib/intel64/libmkl_intel_thread.a /opt/intel/mkl/lib/intel64/libmkl_core.a -Wl,-_end-group
 id        : olemiss

 Nodes     nprocs
 cn040        1

 Using customized tuning parameters: mindgm=1; mindgv=20; mindgc=4; mindgr=1; noblas=0; minvec=7
 default implementation of scratch files=df  

 ***,hno CCSD(T)/TZ-F12 QFF
 memory, 995, m;
 gthresh,energy=1.d-12,zero=1.d-22,oneint=1.d-22,twoint=1.d-22;
 gthresh,optgrad=1.d-8,optstep=1.d-8;
 nocompress;
 geomtyp=xyz
 bohr
 geometry={
 3
        108       108
 N        0.0000000000       -0.1640675477       -1.1506867287
 H        0.0000000000        1.6725291487       -1.9361411755
 O        0.0000000000        0.0333061890        1.1362383132
 }
 
 basis=avtz
   {hf,maxit=500;accu,20;}
 {ccsd(t),nocheck,maxit=250;orbital,IGNORE_ERROR;}

 Variables initialized (889), CPU time= 0.01 sec
 Commands  initialized (702), CPU time= 0.00 sec, 572 directives.
 Default parameters read. Elapsed time= 0.05 sec

 Checking input...
 Passed
1


                                         ***  PROGRAM SYSTEM MOLPRO  ***
                                       Copyright, TTI GmbH Stuttgart, 2015
                                    Version 2015.1 linked Jul  9 2018 13:16:40


 **********************************************************************************************************************************
 LABEL *   hno CCSD(T)/TZ-F12 QFF                                                        
  64 bit serial version                                                                  DATE: 08-Feb-20          TIME: 17:56:46  
 **********************************************************************************************************************************

 SHA1:             d5ffa45e93fdbca01ffc919aa182cfdae0147319
 **********************************************************************************************************************************

 THRESHOLDS:

 ZERO    =  1.00D-22  ONEINT  =  1.00D-22  TWOINT  =  1.00D-22  PREFAC  =  1.00D-14  LOCALI  =  1.00D-09  EORDER  =  1.00D-04
 ENERGY  =  1.00D-12  ETEST   =  0.00D+00  EDENS   =  0.00D+00  THRDEDEF=  1.00D-06  GRADIENT=  1.00D-02  STEP    =  1.00D-03
 ORBITAL =  1.00D-05  CIVEC   =  1.00D-05  COEFF   =  1.00D-04  PRINTCI =  5.00D-02  PUNCHCI =  9.90D+01  OPTGRAD =  3.00D-04
 OPTENERG=  1.00D-06  OPTSTEP =  3.00D-04  THRGRAD =  1.00D-10  COMPRESS=  1.00D-11  VARMIN  =  1.00D-07  VARMAX  =  1.00D-03
 THRDOUB =  0.00D+00  THRDIV  =  1.00D-05  THRRED  =  1.00D-07  THRPSP  =  1.00D+00  THRDC   =  1.00D-10  THRCS   =  1.00D-10
 THRNRM  =  1.00D-08  THREQ   =  0.00D+00  THRDE   =  1.00D+00  THRREF  =  1.00D-05  SPARFAC =  1.00D+00  THRDLP  =  1.00D-07
 THRDIA  =  1.00D-10  THRDLS  =  1.00D-07  THRGPS  =  0.00D+00  THRKEX  =  0.00D+00  THRDIS  =  2.00D-01  THRVAR  =  1.00D-10
 THRLOC  =  1.00D-06  THRGAP  =  1.00D-06  THRLOCT = -1.00D+00  THRGAPT = -1.00D+00  THRORB  =  1.00D-06  THRMLTP =  0.00D+00
 THRCPQCI=  1.00D-10  KEXTA   =  0.00D+00  THRCOARS=  0.00D+00  SYMTOL  =  1.00D-06  GRADTOL =  1.00D-06  THROVL  =  1.00D-08
 THRORTH =  1.00D-08  GRID    =  1.00D-06  GRIDMAX =  1.00D-03  DTMAX   =  0.00D+00  THROCCDE=  1.00D-01  THROCCDE=  1.00D-01



 THRESHOLDS:

 ZERO    =  1.00D-22  ONEINT  =  1.00D-22  TWOINT  =  1.00D-22  PREFAC  =  1.00D-14  LOCALI  =  1.00D-09  EORDER  =  1.00D-04
 ENERGY  =  1.00D-12  ETEST   =  0.00D+00  EDENS   =  0.00D+00  THRDEDEF=  1.00D-06  GRADIENT=  1.00D-02  STEP    =  1.00D-03
 ORBITAL =  1.00D-05  CIVEC   =  1.00D-05  COEFF   =  1.00D-04  PRINTCI =  5.00D-02  PUNCHCI =  9.90D+01  OPTGRAD =  1.00D-08
 OPTENERG=  1.00D-06  OPTSTEP =  1.00D-08  THRGRAD =  1.00D-10  COMPRESS=  1.00D-11  VARMIN  =  1.00D-07  VARMAX  =  1.00D-03
 THRDOUB =  0.00D+00  THRDIV  =  1.00D-05  THRRED  =  1.00D-07  THRPSP  =  1.00D+00  THRDC   =  1.00D-10  THRCS   =  1.00D-10
 THRNRM  =  1.00D-08  THREQ   =  0.00D+00  THRDE   =  1.00D+00  THRREF  =  1.00D-05  SPARFAC =  1.00D+00  THRDLP  =  1.00D-07
 THRDIA  =  1.00D-10  THRDLS  =  1.00D-07  THRGPS  =  0.00D+00  THRKEX  =  0.00D+00  THRDIS  =  2.00D-01  THRVAR  =  1.00D-10
 THRLOC  =  1.00D-06  THRGAP  =  1.00D-06  THRLOCT = -1.00D+00  THRGAPT = -1.00D+00  THRORB  =  1.00D-06  THRMLTP =  0.00D+00
 THRCPQCI=  1.00D-10  KEXTA   =  0.00D+00  THRCOARS=  0.00D+00  SYMTOL  =  1.00D-06  GRADTOL =  1.00D-06  THROVL  =  1.00D-08
 THRORTH =  1.00D-08  GRID    =  1.00D-06  GRIDMAX =  1.00D-03  DTMAX   =  0.00D+00  THROCCDE=  1.00D-01  THROCCDE=  1.00D-01



 Input parameters for SORTINT:

 COMPRESS =    0.000000
 C_FINAL  =    1.000000
 DEBUG    =   -1.000000
 C_SORT1  =    0.000000
 C_SEWARD =    0.000000
 THRESH   =    0.000000
 IO       =  molpro                                                          
 SPRI     =    0.000000
 SETTING GEOMTYP        =    XYZ
 ZUNIT=BOHR
 

 Variable memory set to  995000000 words,  buffer space   230000 words

 SETTING BASIS          =    AVTZ


 Recomputing integrals since basis changed


 Using spherical harmonics

 Library entry N      S aug-cc-pVTZ          selected for orbital group  1
 Library entry N      P aug-cc-pVTZ          selected for orbital group  1
 Library entry N      D aug-cc-pVTZ          selected for orbital group  1
 Library entry N      F aug-cc-pVTZ          selected for orbital group  1
 Library entry H      S aug-cc-pVTZ          selected for orbital group  2
 Library entry H      P aug-cc-pVTZ          selected for orbital group  2
 Library entry H      D aug-cc-pVTZ          selected for orbital group  2
 Library entry O      S aug-cc-pVTZ          selected for orbital group  3
 Library entry O      P aug-cc-pVTZ          selected for orbital group  3
 Library entry O      D aug-cc-pVTZ          selected for orbital group  3
 Library entry O      F aug-cc-pVTZ          selected for orbital group  3


 PROGRAM * SEWARD (Integral evaluation for generally contracted gaussian basis sets)     Author: Roland Lindh, 1990

 Geometry written to block  1 of record 700


 Point group  Cs  



 ATOMIC COORDINATES

 NR  ATOM    CHARGE       X              Y              Z

   1  N       7.00    0.000000000   -0.164067548   -1.150686729
   2  H       1.00    0.000000000    1.672529149   -1.936141175
   3  O       8.00    0.000000000    0.033306189    1.136238313

 Bond lengths in Bohr (Angstrom)

 1-2  1.997504972  1-3  2.295426440
     ( 1.057034110)     ( 1.214687361)

 Bond angles

  2-1-3  108.22216105

 NUCLEAR CHARGE:                   16
 NUMBER OF PRIMITIVE AOS:         161
 NUMBER OF SYMMETRY AOS:          141
 NUMBER OF CONTRACTIONS:          115   (  76A'  +  39A"  )
 NUMBER OF CORE ORBITALS:           2   (   2A'  +   0A"  )
 NUMBER OF VALENCE ORBITALS:        9   (   7A'  +   2A"  )


 NUCLEAR REPULSION ENERGY   30.19802767

 Eigenvalues of metric

         1 0.235E-03 0.505E-03 0.183E-02 0.216E-02 0.259E-02 0.368E-02 0.435E-02 0.524E-02
         2 0.403E-02 0.103E-01 0.266E-01 0.374E-01 0.514E-01 0.626E-01 0.831E-01 0.121E+00


 Contracted 2-electron integrals neglected if value below      1.0D-22

       10790064. INTEGRALS WRITTEN OUT IN    2635 BLOCKS ON RECORD 1290 OF FILE 1


 NUMBER OF SORTED TWO-ELECTRON INTEGRALS:   11433631.     BUFFER LENGTH:  32768
 NUMBER OF SEGMENTS:   1  SEGMENT LENGTH:   11433631      RECORD LENGTH: 524288

 Memory used in sort:      11.99 MW

 SORT1 READ    10790064. AND WROTE    10943632. INTEGRALS IN     32 RECORDS. CPU TIME:     0.34 SEC, REAL TIME:     0.46 SEC
 SORT2 READ    10943632. AND WROTE    11433631. INTEGRALS IN      1 RECORDS. CPU TIME:     0.25 SEC, REAL TIME:     0.35 SEC

 FILE SIZES:   FILE 1:   193.0 MBYTE,  FILE 4:   134.3 MBYTE,   TOTAL:    327.2 MBYTE

 OPERATOR DM      FOR CENTER  0  COORDINATES:    0.000000    0.000000    0.000000


 **********************************************************************************************************************************
 DATASETS  * FILE   NREC   LENGTH (MB)   RECORD NAMES
              1      19      111.05       500      610      700      900      950      970     1000      129      960     1100   
                                          VAR    BASINP    GEOM    SYMINP    ZMAT    AOBASIS   BASIS     P2S    ABASIS      S 
                                         1400     1410     1200     1210     1080     1600     1650     1300     1700   
                                           T        V       H0       H01     AOSYM     SMH    MOLCAS    ERIS     OPER   

 PROGRAMS   *        TOTAL       INT
 CPU TIMES  *         1.92      1.81
 REAL TIME  *         3.01 SEC
 DISK USED  *       327.55 MB      
 **********************************************************************************************************************************


 PROGRAM * RHF-SCF (CLOSED SHELL)       Authors: W. Meyer, H.-J. Werner


 NUMBER OF ELECTRONS:       8+    8-
 CONVERGENCE THRESHOLDS:    1.00E-10 (Density)    1.00E-13 (Energy)
 MAX. NUMBER OF ITERATIONS:      500
 INTERPOLATION TYPE:            DIIS
 INTERPOLATION STEPS:              2 (START)      1 (STEP)
 LEVEL SHIFTS:                  0.00 (CLOSED)  0.00 (OPEN) 



 Orbital guess generated from atomic densities. Full valence occupancy:    9   2

 Molecular orbital dump at record        2100.2

 Initial occupancy:   7   1

 ITERATION    DDIFF          GRAD             ENERGY        2-EL.EN.            DIPOLE MOMENTS         DIIS   ORB.
    1      0.000D+00      0.000D+00      -129.78598563    153.586058    0.00000    0.59210   -1.04365    0    start
    2      0.000D+00      0.109D-01      -129.81320991    154.846666    0.00000    0.61467   -0.20457    1    diag
    3      0.121D-01      0.845D-02      -129.83720488    154.972228    0.00000    0.55886   -0.60227    2    diag
    4      0.606D-02      0.129D-02      -129.83801171    154.677849    0.00000    0.56607   -0.54128    3    diag
    5      0.108D-02      0.426D-03      -129.83814120    154.772863    0.00000    0.57174   -0.54400    4    diag
    6      0.456D-03      0.123D-03      -129.83816194    154.757135    0.00000    0.57208   -0.53978    5    diag
    7      0.175D-03      0.614D-04      -129.83816800    154.759603    0.00000    0.57333   -0.53713    6    diag
    8      0.121D-03      0.213D-04      -129.83816868    154.758921    0.00000    0.57335   -0.53608    7    diag
    9      0.469D-04      0.408D-05      -129.83816871    154.758806    0.00000    0.57331   -0.53585    8    diag
   10      0.918D-05      0.918D-06      -129.83816871    154.758786    0.00000    0.57328   -0.53582    9    orth
   11      0.181D-05      0.181D-06      -129.83816871    154.758783    0.00000    0.57327   -0.53582    9    diag
   12      0.344D-06      0.377D-07      -129.83816871    154.758782    0.00000    0.57327   -0.53582    9    diag
   13      0.740D-07      0.971D-08      -129.83816871    154.758782    0.00000    0.57327   -0.53582    9    diag
   14      0.198D-07      0.200D-08      -129.83816871    154.758782    0.00000    0.57327   -0.53582    9    diag
   15      0.384D-08      0.550D-09      -129.83816871    154.758782    0.00000    0.57327   -0.53582    9    diag
   16      0.105D-08      0.145D-09      -129.83816871    154.758782    0.00000    0.57327   -0.53582    9    diag
   17      0.175D-09      0.399D-10      -129.83816871    154.758782    0.00000    0.57327   -0.53582    9    diag
   18      0.474D-10      0.140D-10      -129.83816871    154.758782    0.00000    0.57327   -0.53582    9    diag
   19      0.248D-10      0.292D-11      -129.83816871    154.758782    0.00000    0.57327   -0.53582    9    fixocc
   20      0.584D-11      0.486D-12      -129.83816871    154.758782    0.00000    0.57327   -0.53582    9    orth
   21      0.113D-11      0.186D-12      -129.83816871    154.758782    0.00000    0.57327   -0.53582    0    orth

 Final occupancy:   7   1

 !RHF STATE 1.1 Energy               -129.838168714311
 Nuclear energy                        30.19802767
 One-electron energy                 -237.41558744
 Two-electron energy                   77.37939106
 Virial quotient                       -1.00241792
 !RHF STATE 1.1 Dipole moment           0.00000000     0.57326742    -0.53582006
 Dipole moment /Debye                   0.00000000     1.45700501    -1.36182954

 Orbital energies:

         1.1          2.1          3.1          4.1          5.1          6.1          7.1          8.1          9.1
    -20.657311   -15.716295    -1.525224    -0.995387    -0.744704    -0.664177    -0.432184     0.029078     0.092139

         1.2          2.2          3.2
     -0.593120     0.062999     0.130120

 HOMO      7.1    -0.432184 =     -11.7603eV
 LUMO      8.1     0.029078 =       0.7913eV
 LUMO-HOMO         0.461262 =      12.5516eV


 **********************************************************************************************************************************
 DATASETS  * FILE   NREC   LENGTH (MB)   RECORD NAMES
              1      19      111.05       500      610      700      900      950      970     1000      129      960     1100   
                                          VAR    BASINP    GEOM    SYMINP    ZMAT    AOBASIS   BASIS     P2S    ABASIS      S 
                                         1400     1410     1200     1210     1080     1600     1650     1300     1700   
                                           T        V       H0       H01     AOSYM     SMH    MOLCAS    ERIS     OPER   

              2       4        2.94       700     1000      520     2100   
                                         GEOM     BASIS   MCVARS     RHF  

 PROGRAMS   *        TOTAL        HF       INT
 CPU TIMES  *         3.51      1.59      1.81
 REAL TIME  *         5.05 SEC
 DISK USED  *       327.55 MB      
 **********************************************************************************************************************************


 PROGRAM * CCSD (Closed-shell coupled cluster)     Authors: C. Hampel, H.-J. Werner, 1991, M. Deegan, P.J. Knowles, 1992


 Convergence thresholds:  THRVAR = 1.00D-08  THRDEN = 1.00D-12

 CCSD(T)     terms to be evaluated (factor= 1.000)


 Number of core orbitals:           2 (   2   0 )
 Number of closed-shell orbitals:   6 (   5   1 )
 Number of external orbitals:     107 (  69  38 )

 Molecular orbitals read from record     2100.2  Type=RHF/CANONICAL (state 1.1)

 Number of N-1 electron functions:               6
 Number of N-2 electron functions:              21
 Number of singly external CSFs:               383
 Number of doubly external CSFs:            107206
 Total number of CSFs:                      107590

 Length of J-op  integral file:               0.00 MB
 Length of K-op  integral file:               0.54 MB
 Length of 3-ext integral record:             0.00 MB

 Memory could be reduced to 5.94 Mwords without degradation in triples

 Integral transformation finished. Total CPU:   0.24 sec, npass=  1  Memory used:   1.65 MW

 Reference energy:                   -129.83816871

 MP2 singlet pair energy:              -0.28027221
 MP2 triplet pair energy:              -0.16573078
 MP2 correlation energy:               -0.44600299
 MP2 total energy:                   -130.28417171

 SCS-MP2 correlation energy:           -0.43944803   (PS=  1.200000  PT=  0.333333)
 SCS-MP2 total energy:               -130.27761674

 ITER.      SQ.NORM     CORR.ENERGY   TOTAL ENERGY   ENERGY CHANGE        DEN1      VAR(S)    VAR(P)  DIIS     TIME  TIME/IT
   1      1.12185917    -0.44983876  -130.28800748    -0.00383577     0.01256135  0.32D-02  0.32D-02  1  1     0.48     0.27
   2      1.13318588    -0.44997914  -130.28814785    -0.00014038    -0.01263858  0.11D-03  0.52D-03  2  2     0.74     0.27
   3      1.13985875    -0.45039482  -130.28856354    -0.00041568    -0.00306015  0.56D-04  0.53D-04  3  3     0.99     0.28
   4      1.14284255    -0.45040586  -130.28857457    -0.00001104    -0.00100299  0.45D-05  0.96D-05  4  4     1.23     0.28
   5      1.14394764    -0.45043635  -130.28860506    -0.00003049    -0.00023364  0.12D-05  0.17D-05  5  5     1.46     0.28
   6      1.14430437    -0.45041838  -130.28858709     0.00001797    -0.00004372  0.11D-06  0.40D-06  6  6     1.70     0.28
   7      1.14438020    -0.45041956  -130.28858828    -0.00000119    -0.00000161  0.19D-07  0.95D-07  6  1     1.96     0.28
   8      1.14440226    -0.45042017  -130.28858889    -0.00000061     0.00000142  0.35D-08  0.18D-07  6  2     2.22     0.28
   9      1.14440787    -0.45041968  -130.28858840     0.00000049     0.00000052  0.29D-08  0.20D-08  6  4     2.48     0.28
  10      1.14441035    -0.45042018  -130.28858890    -0.00000050    -0.00000077  0.48D-09  0.24D-09  6  3     2.73     0.28
  11      1.14440986    -0.45042020  -130.28858892    -0.00000002    -0.00000008  0.17D-09  0.36D-10  6  5     2.97     0.28
  12      1.14440876    -0.45042037  -130.28858908    -0.00000016     0.00000035  0.19D-10  0.12D-10  6  6     3.21     0.28
  13      1.14440786    -0.45042040  -130.28858912    -0.00000004     0.00000023  0.67D-11  0.24D-11  6  1     3.44     0.28
  14      1.14440728    -0.45042043  -130.28858915    -0.00000003     0.00000015  0.10D-11  0.75D-12  6  2     3.71     0.28
  15      1.14440703    -0.45042044  -130.28858916    -0.00000001     0.00000004  0.30D-12  0.23D-12  6  4     3.96     0.28
  16      1.14440693    -0.45042044  -130.28858916    -0.00000000     0.00000001  0.56D-13  0.82D-13  6  3     4.21     0.28
  17      1.14440687    -0.45042045  -130.28858916    -0.00000000     0.00000001  0.41D-14  0.20D-13  6  5     4.47     0.28
  18      1.14440686    -0.45042045  -130.28858916     0.00000000    -0.00000000  0.14D-14  0.42D-14  6  6     4.74     0.28
  19      1.14440686    -0.45042045  -130.28858916    -0.00000000     0.00000000  0.12D-14  0.75D-15  6  1     4.98     0.28
  20      1.14440686    -0.45042045  -130.28858916     0.00000000    -0.00000000  0.24D-15  0.13D-15  6  2     5.21     0.28
  21      1.14440686    -0.45042045  -130.28858916     0.00000000    -0.00000000  0.59D-16  0.33D-16  6  3     5.46     0.28
  22      1.14440686    -0.45042045  -130.28858916     0.00000000    -0.00000000  0.67D-17  0.30D-17  6  4     5.72     0.28
  23      1.14440686    -0.45042045  -130.28858916     0.00000000    -0.00000000  0.25D-17  0.63D-18  6  5     5.96     0.28
  24      1.14440686    -0.45042045  -130.28858916     0.00000000     0.00000000  0.17D-18  0.55D-19  6  2     6.21     0.28
  25      1.14440686    -0.45042045  -130.28858916    -0.00000000    -0.00000000  0.26D-19  0.14D-19  6  6     6.48     0.28
  26      1.14440686    -0.45042045  -130.28858916     0.00000000    -0.00000000  0.40D-20  0.25D-20  6  1     6.72     0.28
  27      1.14440686    -0.45042045  -130.28858916    -0.00000000    -0.00000000  0.54D-21  0.60D-21  6  4     6.97     0.28

 Norm of t1 vector:      0.07979665      S-energy:    -0.00000000      T1 diagnostic:  0.01628842
                                                                       D1 diagnostic:  0.04302331

 Doubles amplitudes (print threshold =  0.500E-01):

         I         J         SYM. A    SYM. B    A         B      T(IJ, AB)

         6         6         2         2         1         1     -0.11185521


 Total CPU time for triples:      1.98 sec


 RESULTS
 =======

  Reference energy                   -129.838168714312
  CCSD singlet pair energy             -0.309013455199
  CCSD triplet pair energy             -0.141406991311
  CCSD correlation energy              -0.450420446509

  Triples (T) contribution             -0.021157316819
  Total correlation energy             -0.471577763329

  CCSD total energy                  -130.288589160821
  CCSD[T] energy                     -130.310848662231
  CCSD-T energy                      -130.309332993449
 !CCSD(T) total energy               -130.309746477640

 Timing summary (sec):

 STEP                 CPU(USER)    SYS     CPU(TOT)    WALL
 Transformation          0.25      0.04      0.29      0.30
 CCSD iterations         6.72      0.89      7.61      7.62
 Triples                 1.98      0.04      2.02      2.01

 Program statistics:

 Available memory in ccsd:               994999756
 Min. memory needed in ccsd:                389120
 Max. memory used in ccsd:                  473124
 Max. memory used in cckext:                599488 (27 integral passes)



 **********************************************************************************************************************************
 DATASETS  * FILE   NREC   LENGTH (MB)   RECORD NAMES
              1      20      128.20       500      610      700      900      950      970     1000      129      960     1100   
                                          VAR    BASINP    GEOM    SYMINP    ZMAT    AOBASIS   BASIS     P2S    ABASIS      S 
                                         1400     1410     1200     1210     1080     1600     1650     1300     1700     1380   
                                           T        V       H0       H01     AOSYM     SMH    MOLCAS    ERIS     OPER     JKOP   

              2       4        2.94       700     1000      520     2100   
                                         GEOM     BASIS   MCVARS     RHF  

 PROGRAMS   *        TOTAL   CCSD(T)        HF       INT
 CPU TIMES  *        12.48      8.97      1.59      1.81
 REAL TIME  *        15.03 SEC
 DISK USED  *       327.55 MB      
 **********************************************************************************************************************************

 CCSD(T)/aug-cc-pVTZ energy=   -130.309746477640

        CCSD(T)         HF-SCF  
   -130.30974648   -129.83816871
 **********************************************************************************************************************************
 Molpro calculation terminated
 Variable memory released
