
 Primary working directories    : /tmp/r2666/235005.maple
 Secondary working directories  : /tmp/r2666/235005.maple
 Wavefunction directory         : /ddn/home4/r2666/wfu/
 Main file repository           : /tmp/r2666/235005.maple/

 SHA1      : d5ffa45e93fdbca01ffc919aa182cfdae0147319
 NAME      : 2015.1.35
 ARCHNAME  : linux/x86_64
 FC        : /opt/intel/composer_xe_2015.1.133/bin/intel64/ifort
 BLASLIB   : -Wl,-_start-group /opt/intel/mkl/lib/intel64/libmkl_intel_ilp64.a /opt/intel/mkl/lib/intel64/libmkl_intel_thread.a /opt/intel/mkl/lib/intel64/libmkl_core.a -Wl,-_end-group
 id        : olemiss

 Nodes     nprocs
 cn033        1

 Using customized tuning parameters: mindgm=1; mindgv=20; mindgc=4; mindgr=1; noblas=0; minvec=7
 default implementation of scratch files=df  

 ***,hno CCSD(T)/TZ-F12 QFF
 memory, 995, m;
 gthresh,energy=1.d-12,zero=1.d-22,oneint=1.d-22,twoint=1.d-22;
 gthresh,optgrad=1.d-8,optstep=1.d-8;
 nocompress;
 geomtyp=xyz
 bohr
 geometry={
 3
        119       119
 N        0.0000000000       -0.1775913438       -1.1555726639
 H        0.0000000000        1.6761514910       -1.9246632065
 O        0.0000000000        0.0432076428        1.1296462794
 }
 
 basis=avtz
   {hf,maxit=500;accu,20;}
 {ccsd(t),nocheck,maxit=250;orbital,IGNORE_ERROR;}

 Variables initialized (889), CPU time= 0.00 sec
 Commands  initialized (702), CPU time= 0.01 sec, 572 directives.
 Default parameters read. Elapsed time= 0.04 sec

 Checking input...
 Passed
1


                                         ***  PROGRAM SYSTEM MOLPRO  ***
                                       Copyright, TTI GmbH Stuttgart, 2015
                                    Version 2015.1 linked Jul  9 2018 13:16:40


 **********************************************************************************************************************************
 LABEL *   hno CCSD(T)/TZ-F12 QFF                                                        
  64 bit serial version                                                                  DATE: 08-Feb-20          TIME: 17:56:51  
 **********************************************************************************************************************************

 SHA1:             d5ffa45e93fdbca01ffc919aa182cfdae0147319
 **********************************************************************************************************************************

 THRESHOLDS:

 ZERO    =  1.00D-22  ONEINT  =  1.00D-22  TWOINT  =  1.00D-22  PREFAC  =  1.00D-14  LOCALI  =  1.00D-09  EORDER  =  1.00D-04
 ENERGY  =  1.00D-12  ETEST   =  0.00D+00  EDENS   =  0.00D+00  THRDEDEF=  1.00D-06  GRADIENT=  1.00D-02  STEP    =  1.00D-03
 ORBITAL =  1.00D-05  CIVEC   =  1.00D-05  COEFF   =  1.00D-04  PRINTCI =  5.00D-02  PUNCHCI =  9.90D+01  OPTGRAD =  3.00D-04
 OPTENERG=  1.00D-06  OPTSTEP =  3.00D-04  THRGRAD =  1.00D-10  COMPRESS=  1.00D-11  VARMIN  =  1.00D-07  VARMAX  =  1.00D-03
 THRDOUB =  0.00D+00  THRDIV  =  1.00D-05  THRRED  =  1.00D-07  THRPSP  =  1.00D+00  THRDC   =  1.00D-10  THRCS   =  1.00D-10
 THRNRM  =  1.00D-08  THREQ   =  0.00D+00  THRDE   =  1.00D+00  THRREF  =  1.00D-05  SPARFAC =  1.00D+00  THRDLP  =  1.00D-07
 THRDIA  =  1.00D-10  THRDLS  =  1.00D-07  THRGPS  =  0.00D+00  THRKEX  =  0.00D+00  THRDIS  =  2.00D-01  THRVAR  =  1.00D-10
 THRLOC  =  1.00D-06  THRGAP  =  1.00D-06  THRLOCT = -1.00D+00  THRGAPT = -1.00D+00  THRORB  =  1.00D-06  THRMLTP =  0.00D+00
 THRCPQCI=  1.00D-10  KEXTA   =  0.00D+00  THRCOARS=  0.00D+00  SYMTOL  =  1.00D-06  GRADTOL =  1.00D-06  THROVL  =  1.00D-08
 THRORTH =  1.00D-08  GRID    =  1.00D-06  GRIDMAX =  1.00D-03  DTMAX   =  0.00D+00  THROCCDE=  1.00D-01  THROCCDE=  1.00D-01



 THRESHOLDS:

 ZERO    =  1.00D-22  ONEINT  =  1.00D-22  TWOINT  =  1.00D-22  PREFAC  =  1.00D-14  LOCALI  =  1.00D-09  EORDER  =  1.00D-04
 ENERGY  =  1.00D-12  ETEST   =  0.00D+00  EDENS   =  0.00D+00  THRDEDEF=  1.00D-06  GRADIENT=  1.00D-02  STEP    =  1.00D-03
 ORBITAL =  1.00D-05  CIVEC   =  1.00D-05  COEFF   =  1.00D-04  PRINTCI =  5.00D-02  PUNCHCI =  9.90D+01  OPTGRAD =  1.00D-08
 OPTENERG=  1.00D-06  OPTSTEP =  1.00D-08  THRGRAD =  1.00D-10  COMPRESS=  1.00D-11  VARMIN  =  1.00D-07  VARMAX  =  1.00D-03
 THRDOUB =  0.00D+00  THRDIV  =  1.00D-05  THRRED  =  1.00D-07  THRPSP  =  1.00D+00  THRDC   =  1.00D-10  THRCS   =  1.00D-10
 THRNRM  =  1.00D-08  THREQ   =  0.00D+00  THRDE   =  1.00D+00  THRREF  =  1.00D-05  SPARFAC =  1.00D+00  THRDLP  =  1.00D-07
 THRDIA  =  1.00D-10  THRDLS  =  1.00D-07  THRGPS  =  0.00D+00  THRKEX  =  0.00D+00  THRDIS  =  2.00D-01  THRVAR  =  1.00D-10
 THRLOC  =  1.00D-06  THRGAP  =  1.00D-06  THRLOCT = -1.00D+00  THRGAPT = -1.00D+00  THRORB  =  1.00D-06  THRMLTP =  0.00D+00
 THRCPQCI=  1.00D-10  KEXTA   =  0.00D+00  THRCOARS=  0.00D+00  SYMTOL  =  1.00D-06  GRADTOL =  1.00D-06  THROVL  =  1.00D-08
 THRORTH =  1.00D-08  GRID    =  1.00D-06  GRIDMAX =  1.00D-03  DTMAX   =  0.00D+00  THROCCDE=  1.00D-01  THROCCDE=  1.00D-01



 Input parameters for SORTINT:

 COMPRESS =    0.000000
 C_FINAL  =    1.000000
 DEBUG    =   -1.000000
 C_SORT1  =    0.000000
 C_SEWARD =    0.000000
 THRESH   =    0.000000
 IO       =  molpro                                                          
 SPRI     =    0.000000
 SETTING GEOMTYP        =    XYZ
 ZUNIT=BOHR
 

 Variable memory set to  995000000 words,  buffer space   230000 words

 SETTING BASIS          =    AVTZ


 Recomputing integrals since basis changed


 Using spherical harmonics

 Library entry N      S aug-cc-pVTZ          selected for orbital group  1
 Library entry N      P aug-cc-pVTZ          selected for orbital group  1
 Library entry N      D aug-cc-pVTZ          selected for orbital group  1
 Library entry N      F aug-cc-pVTZ          selected for orbital group  1
 Library entry H      S aug-cc-pVTZ          selected for orbital group  2
 Library entry H      P aug-cc-pVTZ          selected for orbital group  2
 Library entry H      D aug-cc-pVTZ          selected for orbital group  2
 Library entry O      S aug-cc-pVTZ          selected for orbital group  3
 Library entry O      P aug-cc-pVTZ          selected for orbital group  3
 Library entry O      D aug-cc-pVTZ          selected for orbital group  3
 Library entry O      F aug-cc-pVTZ          selected for orbital group  3


 PROGRAM * SEWARD (Integral evaluation for generally contracted gaussian basis sets)     Author: Roland Lindh, 1990

 Geometry written to block  1 of record 700


 Point group  Cs  



 ATOMIC COORDINATES

 NR  ATOM    CHARGE       X              Y              Z

   1  N       7.00    0.000000000   -0.177591344   -1.155572664
   2  H       1.00    0.000000000    1.676151491   -1.924663207
   3  O       8.00    0.000000000    0.043207643    1.129646279

 Bond lengths in Bohr (Angstrom)

 1-2  2.006953602  1-3  2.295861017
     ( 1.062034110)     ( 1.214917330)

 Bond angles

  2-1-3  107.01402516

 NUCLEAR CHARGE:                   16
 NUMBER OF PRIMITIVE AOS:         161
 NUMBER OF SYMMETRY AOS:          141
 NUMBER OF CONTRACTIONS:          115   (  76A'  +  39A"  )
 NUMBER OF CORE ORBITALS:           2   (   2A'  +   0A"  )
 NUMBER OF VALENCE ORBITALS:        9   (   7A'  +   2A"  )


 NUCLEAR REPULSION ENERGY   30.18944606

 Eigenvalues of metric

         1 0.235E-03 0.512E-03 0.182E-02 0.217E-02 0.260E-02 0.370E-02 0.436E-02 0.533E-02
         2 0.404E-02 0.104E-01 0.267E-01 0.378E-01 0.518E-01 0.629E-01 0.841E-01 0.120E+00


 Contracted 2-electron integrals neglected if value below      1.0D-22

       10790064. INTEGRALS WRITTEN OUT IN    2635 BLOCKS ON RECORD 1290 OF FILE 1


 NUMBER OF SORTED TWO-ELECTRON INTEGRALS:   11433631.     BUFFER LENGTH:  32768
 NUMBER OF SEGMENTS:   1  SEGMENT LENGTH:   11433631      RECORD LENGTH: 524288

 Memory used in sort:      11.99 MW

 SORT1 READ    10790064. AND WROTE    10943632. INTEGRALS IN     32 RECORDS. CPU TIME:     0.24 SEC, REAL TIME:     0.36 SEC
 SORT2 READ    10943632. AND WROTE    11433631. INTEGRALS IN      1 RECORDS. CPU TIME:     0.20 SEC, REAL TIME:     0.26 SEC

 FILE SIZES:   FILE 1:   193.0 MBYTE,  FILE 4:   134.3 MBYTE,   TOTAL:    327.2 MBYTE

 OPERATOR DM      FOR CENTER  0  COORDINATES:    0.000000    0.000000    0.000000


 **********************************************************************************************************************************
 DATASETS  * FILE   NREC   LENGTH (MB)   RECORD NAMES
              1      19      111.05       500      610      700      900      950      970     1000      129      960     1100   
                                          VAR    BASINP    GEOM    SYMINP    ZMAT    AOBASIS   BASIS     P2S    ABASIS      S 
                                         1400     1410     1200     1210     1080     1600     1650     1300     1700   
                                           T        V       H0       H01     AOSYM     SMH    MOLCAS    ERIS     OPER   

 PROGRAMS   *        TOTAL       INT
 CPU TIMES  *         1.55      1.45
 REAL TIME  *         2.46 SEC
 DISK USED  *       327.55 MB      
 **********************************************************************************************************************************


 PROGRAM * RHF-SCF (CLOSED SHELL)       Authors: W. Meyer, H.-J. Werner


 NUMBER OF ELECTRONS:       8+    8-
 CONVERGENCE THRESHOLDS:    1.00E-10 (Density)    1.00E-13 (Energy)
 MAX. NUMBER OF ITERATIONS:      500
 INTERPOLATION TYPE:            DIIS
 INTERPOLATION STEPS:              2 (START)      1 (STEP)
 LEVEL SHIFTS:                  0.00 (CLOSED)  0.00 (OPEN) 



 Orbital guess generated from atomic densities. Full valence occupancy:    9   2

 Molecular orbital dump at record        2100.2

 Initial occupancy:   7   1

 ITERATION    DDIFF          GRAD             ENERGY        2-EL.EN.            DIPOLE MOMENTS         DIIS   ORB.
    1      0.000D+00      0.000D+00      -129.78529079    153.572905    0.00000    0.57822   -1.04234    0    start
    2      0.000D+00      0.109D-01      -129.81251376    154.832978    0.00000    0.61550   -0.19725    1    diag
    3      0.121D-01      0.852D-02      -129.83690041    154.958850    0.00000    0.55259   -0.59723    2    diag
    4      0.610D-02      0.128D-02      -129.83770571    154.664223    0.00000    0.56035   -0.53654    3    diag
    5      0.108D-02      0.428D-03      -129.83783665    154.759287    0.00000    0.56597   -0.53918    4    diag
    6      0.458D-03      0.124D-03      -129.83785776    154.743449    0.00000    0.56629   -0.53493    5    diag
    7      0.176D-03      0.620D-04      -129.83786393    154.745939    0.00000    0.56755   -0.53226    6    diag
    8      0.122D-03      0.215D-04      -129.83786463    154.745243    0.00000    0.56756   -0.53120    7    diag
    9      0.474D-04      0.410D-05      -129.83786466    154.745127    0.00000    0.56753   -0.53097    8    diag
   10      0.923D-05      0.915D-06      -129.83786467    154.745107    0.00000    0.56749   -0.53094    9    orth
   11      0.179D-05      0.182D-06      -129.83786467    154.745104    0.00000    0.56748   -0.53094    9    diag
   12      0.343D-06      0.381D-07      -129.83786467    154.745104    0.00000    0.56748   -0.53094    9    diag
   13      0.751D-07      0.985D-08      -129.83786467    154.745104    0.00000    0.56748   -0.53094    9    diag
   14      0.202D-07      0.202D-08      -129.83786467    154.745104    0.00000    0.56748   -0.53094    9    diag
   15      0.390D-08      0.556D-09      -129.83786467    154.745104    0.00000    0.56748   -0.53094    9    diag
   16      0.107D-08      0.147D-09      -129.83786467    154.745104    0.00000    0.56748   -0.53094    9    diag
   17      0.181D-09      0.416D-10      -129.83786467    154.745104    0.00000    0.56748   -0.53094    9    diag
   18      0.502D-10      0.148D-10      -129.83786467    154.745104    0.00000    0.56748   -0.53094    9    diag
   19      0.268D-10      0.315D-11      -129.83786467    154.745104    0.00000    0.56748   -0.53094    9    fixocc
   20      0.611D-11      0.559D-12      -129.83786467    154.745104    0.00000    0.56748   -0.53094    9    orth
   21      0.139D-11      0.204D-12      -129.83786467    154.745104    0.00000    0.56748   -0.53094    9    diag
   22      0.132D-11      0.807D-13      -129.83786467    154.745104    0.00000    0.56748   -0.53094    9    diag
   23      0.565D-12      0.684D-13      -129.83786467    154.745104    0.00000    0.56748   -0.53094    9    diag
   24      0.432D-12      0.473D-13      -129.83786467    154.745104    0.00000    0.56748   -0.53094    0    orth

 Final occupancy:   7   1

 !RHF STATE 1.1 Energy               -129.837864665377
 Nuclear energy                        30.18944606
 One-electron energy                 -237.39986259
 Two-electron energy                   77.37255187
 Virial quotient                       -1.00244697
 !RHF STATE 1.1 Dipole moment           0.00000000     0.56748158    -0.53093916
 Dipole moment /Debye                   0.00000000     1.44229984    -1.34942434

 Orbital energies:

         1.1          2.1          3.1          4.1          5.1          6.1          7.1          8.1          9.1
    -20.657118   -15.717215    -1.525587    -0.993487    -0.744129    -0.663887    -0.432720     0.029174     0.092201

         1.2          2.2          3.2
     -0.593237     0.063120     0.130237

 HOMO      7.1    -0.432720 =     -11.7749eV
 LUMO      8.1     0.029174 =       0.7939eV
 LUMO-HOMO         0.461893 =      12.5688eV


 **********************************************************************************************************************************
 DATASETS  * FILE   NREC   LENGTH (MB)   RECORD NAMES
              1      19      111.05       500      610      700      900      950      970     1000      129      960     1100   
                                          VAR    BASINP    GEOM    SYMINP    ZMAT    AOBASIS   BASIS     P2S    ABASIS      S 
                                         1400     1410     1200     1210     1080     1600     1650     1300     1700   
                                           T        V       H0       H01     AOSYM     SMH    MOLCAS    ERIS     OPER   

              2       4        2.94       700     1000      520     2100   
                                         GEOM     BASIS   MCVARS     RHF  

 PROGRAMS   *        TOTAL        HF       INT
 CPU TIMES  *         2.93      1.38      1.45
 REAL TIME  *         4.28 SEC
 DISK USED  *       327.55 MB      
 **********************************************************************************************************************************


 PROGRAM * CCSD (Closed-shell coupled cluster)     Authors: C. Hampel, H.-J. Werner, 1991, M. Deegan, P.J. Knowles, 1992


 Convergence thresholds:  THRVAR = 1.00D-08  THRDEN = 1.00D-12

 CCSD(T)     terms to be evaluated (factor= 1.000)


 Number of core orbitals:           2 (   2   0 )
 Number of closed-shell orbitals:   6 (   5   1 )
 Number of external orbitals:     107 (  69  38 )

 Molecular orbitals read from record     2100.2  Type=RHF/CANONICAL (state 1.1)

 Number of N-1 electron functions:               6
 Number of N-2 electron functions:              21
 Number of singly external CSFs:               383
 Number of doubly external CSFs:            107206
 Total number of CSFs:                      107590

 Length of J-op  integral file:               0.00 MB
 Length of K-op  integral file:               0.54 MB
 Length of 3-ext integral record:             0.00 MB

 Memory could be reduced to 5.94 Mwords without degradation in triples

 Integral transformation finished. Total CPU:   0.20 sec, npass=  1  Memory used:   1.65 MW

 Reference energy:                   -129.83786467

 MP2 singlet pair energy:              -0.28041828
 MP2 triplet pair energy:              -0.16581534
 MP2 correlation energy:               -0.44623361
 MP2 total energy:                   -130.28409828

 SCS-MP2 correlation energy:           -0.43967592   (PS=  1.200000  PT=  0.333333)
 SCS-MP2 total energy:               -130.27754058

 ITER.      SQ.NORM     CORR.ENERGY   TOTAL ENERGY   ENERGY CHANGE        DEN1      VAR(S)    VAR(P)  DIIS     TIME  TIME/IT
   1      1.12202173    -0.45004743  -130.28791209    -0.00381381     0.01261140  0.32D-02  0.32D-02  1  1     0.39     0.21
   2      1.13336731    -0.45018796  -130.28805263    -0.00014054    -0.01265873  0.11D-03  0.53D-03  2  2     0.60     0.22
   3      1.14005171    -0.45060432  -130.28846899    -0.00041636    -0.00306996  0.56D-04  0.53D-04  3  3     0.80     0.22
   4      1.14303173    -0.45061553  -130.28848019    -0.00001121    -0.00100362  0.45D-05  0.94D-05  4  4     1.00     0.22
   5      1.14412883    -0.45064615  -130.28851081    -0.00003062    -0.00023241  0.12D-05  0.16D-05  5  5     1.20     0.23
   6      1.14448153    -0.45062815  -130.28849282     0.00001799    -0.00004346  0.11D-06  0.38D-06  6  6     1.40     0.23
   7      1.14455572    -0.45062928  -130.28849395    -0.00000113    -0.00000151  0.20D-07  0.91D-07  6  1     1.61     0.23
   8      1.14457751    -0.45062982  -130.28849448    -0.00000054     0.00000141  0.34D-08  0.17D-07  6  2     1.82     0.23
   9      1.14458305    -0.45062933  -130.28849400     0.00000049     0.00000049  0.27D-08  0.20D-08  6  4     2.04     0.23
  10      1.14458550    -0.45062982  -130.28849448    -0.00000049    -0.00000075  0.45D-09  0.23D-09  6  3     2.21     0.23
  11      1.14458504    -0.45062984  -130.28849450    -0.00000002    -0.00000008  0.16D-09  0.35D-10  6  5     2.41     0.23
  12      1.14458396    -0.45063000  -130.28849466    -0.00000016     0.00000034  0.18D-10  0.11D-10  6  6     2.61     0.23
  13      1.14458308    -0.45063003  -130.28849470    -0.00000004     0.00000022  0.65D-11  0.22D-11  6  1     2.81     0.23
  14      1.14458251    -0.45063006  -130.28849473    -0.00000003     0.00000015  0.10D-11  0.71D-12  6  2     3.01     0.23
  15      1.14458227    -0.45063007  -130.28849474    -0.00000001     0.00000004  0.29D-12  0.22D-12  6  4     3.22     0.23
  16      1.14458217    -0.45063007  -130.28849474    -0.00000000     0.00000001  0.55D-13  0.75D-13  6  3     3.43     0.23
  17      1.14458211    -0.45063008  -130.28849474    -0.00000000     0.00000001  0.40D-14  0.18D-13  6  5     3.62     0.23
  18      1.14458211    -0.45063008  -130.28849474     0.00000000    -0.00000000  0.12D-14  0.39D-14  6  6     3.82     0.23
  19      1.14458211    -0.45063008  -130.28849474     0.00000000    -0.00000000  0.14D-15  0.25D-15  6  5     4.02     0.23
  20      1.14458211    -0.45063008  -130.28849474    -0.00000000     0.00000000  0.59D-16  0.44D-16  6  1     4.21     0.23
  21      1.14458211    -0.45063008  -130.28849474    -0.00000000     0.00000000  0.13D-16  0.96D-17  6  2     4.41     0.23
  22      1.14458211    -0.45063008  -130.28849474    -0.00000000     0.00000000  0.45D-17  0.11D-17  6  4     4.60     0.23
  23      1.14458211    -0.45063008  -130.28849474     0.00000000     0.00000000  0.12D-17  0.36D-18  6  3     4.81     0.23
  24      1.14458211    -0.45063008  -130.28849474    -0.00000000     0.00000000  0.35D-18  0.70D-19  6  6     5.01     0.23
  25      1.14458211    -0.45063008  -130.28849474     0.00000000    -0.00000000  0.56D-19  0.34D-19  6  5     5.23     0.23
  26      1.14458211    -0.45063008  -130.28849474     0.00000000    -0.00000000  0.92D-20  0.14D-19  6  1     5.43     0.23
  27      1.14458211    -0.45063008  -130.28849474    -0.00000000    -0.00000000  0.47D-21  0.20D-20  6  4     5.65     0.23
  28      1.14458211    -0.45063008  -130.28849474     0.00000000     0.00000000  0.87D-22  0.23D-21  6  2     5.86     0.23

 Norm of t1 vector:      0.07970418      S-energy:     0.00000000      T1 diagnostic:  0.01626955
                                                                       D1 diagnostic:  0.04295300

 Doubles amplitudes (print threshold =  0.500E-01):

         I         J         SYM. A    SYM. B    A         B      T(IJ, AB)

         6         6         2         2         1         1     -0.11191641


 Total CPU time for triples:      1.69 sec


 RESULTS
 =======

  Reference energy                   -129.837864665377
  CCSD singlet pair energy             -0.309191347938
  CCSD triplet pair energy             -0.141438728556
  CCSD correlation energy              -0.450630076493

  Triples (T) contribution             -0.021184485926
  Total correlation energy             -0.471814562419

  CCSD total energy                  -130.288494741870
  CCSD[T] energy                     -130.310780821905
  CCSD-T energy                      -130.309265206599
 !CCSD(T) total energy               -130.309679227796

 Timing summary (sec):

 STEP                 CPU(USER)    SYS     CPU(TOT)    WALL
 Transformation          0.20      0.04      0.24      0.26
 CCSD iterations         5.66      0.77      6.43      6.43
 Triples                 1.69      0.06      1.75      1.74

 Program statistics:

 Available memory in ccsd:               994999756
 Min. memory needed in ccsd:                389120
 Max. memory used in ccsd:                  473124
 Max. memory used in cckext:                599488 (28 integral passes)



 **********************************************************************************************************************************
 DATASETS  * FILE   NREC   LENGTH (MB)   RECORD NAMES
              1      20      128.20       500      610      700      900      950      970     1000      129      960     1100   
                                          VAR    BASINP    GEOM    SYMINP    ZMAT    AOBASIS   BASIS     P2S    ABASIS      S 
                                         1400     1410     1200     1210     1080     1600     1650     1300     1700     1380   
                                           T        V       H0       H01     AOSYM     SMH    MOLCAS    ERIS     OPER     JKOP   

              2       4        2.94       700     1000      520     2100   
                                         GEOM     BASIS   MCVARS     RHF  

 PROGRAMS   *        TOTAL   CCSD(T)        HF       INT
 CPU TIMES  *        10.50      7.57      1.38      1.45
 REAL TIME  *        13.16 SEC
 DISK USED  *       327.55 MB      
 **********************************************************************************************************************************

 CCSD(T)/aug-cc-pVTZ energy=   -130.309679227796

        CCSD(T)         HF-SCF  
   -130.30967923   -129.83786467
 **********************************************************************************************************************************
 Molpro calculation terminated
 Variable memory released
