
 Primary working directories    : /tmp/r2666/234949.maple
 Secondary working directories  : /tmp/r2666/234949.maple
 Wavefunction directory         : /ddn/home4/r2666/wfu/
 Main file repository           : /tmp/r2666/234949.maple/

 SHA1      : d5ffa45e93fdbca01ffc919aa182cfdae0147319
 NAME      : 2015.1.35
 ARCHNAME  : linux/x86_64
 FC        : /opt/intel/composer_xe_2015.1.133/bin/intel64/ifort
 BLASLIB   : -Wl,-_start-group /opt/intel/mkl/lib/intel64/libmkl_intel_ilp64.a /opt/intel/mkl/lib/intel64/libmkl_intel_thread.a /opt/intel/mkl/lib/intel64/libmkl_core.a -Wl,-_end-group
 id        : olemiss

 Nodes     nprocs
 cn036        1

 Using customized tuning parameters: mindgm=1; mindgv=20; mindgc=4; mindgr=1; noblas=0; minvec=7
 default implementation of scratch files=df  

 ***,hno CCSD(T)/TZ-F12 QFF
 memory, 995, m;
 gthresh,energy=1.d-12,zero=1.d-22,oneint=1.d-22,twoint=1.d-22;
 gthresh,optgrad=1.d-8,optstep=1.d-8;
 nocompress;
 geomtyp=xyz
 bohr
 geometry={
 3
         63        63
 N        0.0000000000       -0.1523639759       -1.1306686812
 H        0.0000000000        1.6651666753       -1.9362432286
 O        0.0000000000        0.0289650906        1.1163223188
 }
 
 basis=avtz
   {hf,maxit=500;accu,20;}
 {ccsd(t),nocheck,maxit=250;orbital,IGNORE_ERROR;}

 Variables initialized (889), CPU time= 0.00 sec
 Commands  initialized (702), CPU time= 0.01 sec, 572 directives.
 Default parameters read. Elapsed time= 0.05 sec

 Checking input...
 Passed
1


                                         ***  PROGRAM SYSTEM MOLPRO  ***
                                       Copyright, TTI GmbH Stuttgart, 2015
                                    Version 2015.1 linked Jul  9 2018 13:16:40


 **********************************************************************************************************************************
 LABEL *   hno CCSD(T)/TZ-F12 QFF                                                        
  64 bit serial version                                                                  DATE: 08-Feb-20          TIME: 17:56:28  
 **********************************************************************************************************************************

 SHA1:             d5ffa45e93fdbca01ffc919aa182cfdae0147319
 **********************************************************************************************************************************

 THRESHOLDS:

 ZERO    =  1.00D-22  ONEINT  =  1.00D-22  TWOINT  =  1.00D-22  PREFAC  =  1.00D-14  LOCALI  =  1.00D-09  EORDER  =  1.00D-04
 ENERGY  =  1.00D-12  ETEST   =  0.00D+00  EDENS   =  0.00D+00  THRDEDEF=  1.00D-06  GRADIENT=  1.00D-02  STEP    =  1.00D-03
 ORBITAL =  1.00D-05  CIVEC   =  1.00D-05  COEFF   =  1.00D-04  PRINTCI =  5.00D-02  PUNCHCI =  9.90D+01  OPTGRAD =  3.00D-04
 OPTENERG=  1.00D-06  OPTSTEP =  3.00D-04  THRGRAD =  1.00D-10  COMPRESS=  1.00D-11  VARMIN  =  1.00D-07  VARMAX  =  1.00D-03
 THRDOUB =  0.00D+00  THRDIV  =  1.00D-05  THRRED  =  1.00D-07  THRPSP  =  1.00D+00  THRDC   =  1.00D-10  THRCS   =  1.00D-10
 THRNRM  =  1.00D-08  THREQ   =  0.00D+00  THRDE   =  1.00D+00  THRREF  =  1.00D-05  SPARFAC =  1.00D+00  THRDLP  =  1.00D-07
 THRDIA  =  1.00D-10  THRDLS  =  1.00D-07  THRGPS  =  0.00D+00  THRKEX  =  0.00D+00  THRDIS  =  2.00D-01  THRVAR  =  1.00D-10
 THRLOC  =  1.00D-06  THRGAP  =  1.00D-06  THRLOCT = -1.00D+00  THRGAPT = -1.00D+00  THRORB  =  1.00D-06  THRMLTP =  0.00D+00
 THRCPQCI=  1.00D-10  KEXTA   =  0.00D+00  THRCOARS=  0.00D+00  SYMTOL  =  1.00D-06  GRADTOL =  1.00D-06  THROVL  =  1.00D-08
 THRORTH =  1.00D-08  GRID    =  1.00D-06  GRIDMAX =  1.00D-03  DTMAX   =  0.00D+00  THROCCDE=  1.00D-01  THROCCDE=  1.00D-01



 THRESHOLDS:

 ZERO    =  1.00D-22  ONEINT  =  1.00D-22  TWOINT  =  1.00D-22  PREFAC  =  1.00D-14  LOCALI  =  1.00D-09  EORDER  =  1.00D-04
 ENERGY  =  1.00D-12  ETEST   =  0.00D+00  EDENS   =  0.00D+00  THRDEDEF=  1.00D-06  GRADIENT=  1.00D-02  STEP    =  1.00D-03
 ORBITAL =  1.00D-05  CIVEC   =  1.00D-05  COEFF   =  1.00D-04  PRINTCI =  5.00D-02  PUNCHCI =  9.90D+01  OPTGRAD =  1.00D-08
 OPTENERG=  1.00D-06  OPTSTEP =  1.00D-08  THRGRAD =  1.00D-10  COMPRESS=  1.00D-11  VARMIN  =  1.00D-07  VARMAX  =  1.00D-03
 THRDOUB =  0.00D+00  THRDIV  =  1.00D-05  THRRED  =  1.00D-07  THRPSP  =  1.00D+00  THRDC   =  1.00D-10  THRCS   =  1.00D-10
 THRNRM  =  1.00D-08  THREQ   =  0.00D+00  THRDE   =  1.00D+00  THRREF  =  1.00D-05  SPARFAC =  1.00D+00  THRDLP  =  1.00D-07
 THRDIA  =  1.00D-10  THRDLS  =  1.00D-07  THRGPS  =  0.00D+00  THRKEX  =  0.00D+00  THRDIS  =  2.00D-01  THRVAR  =  1.00D-10
 THRLOC  =  1.00D-06  THRGAP  =  1.00D-06  THRLOCT = -1.00D+00  THRGAPT = -1.00D+00  THRORB  =  1.00D-06  THRMLTP =  0.00D+00
 THRCPQCI=  1.00D-10  KEXTA   =  0.00D+00  THRCOARS=  0.00D+00  SYMTOL  =  1.00D-06  GRADTOL =  1.00D-06  THROVL  =  1.00D-08
 THRORTH =  1.00D-08  GRID    =  1.00D-06  GRIDMAX =  1.00D-03  DTMAX   =  0.00D+00  THROCCDE=  1.00D-01  THROCCDE=  1.00D-01



 Input parameters for SORTINT:

 COMPRESS =    0.000000
 C_FINAL  =    1.000000
 DEBUG    =   -1.000000
 C_SORT1  =    0.000000
 C_SEWARD =    0.000000
 THRESH   =    0.000000
 IO       =  molpro                                                          
 SPRI     =    0.000000
 SETTING GEOMTYP        =    XYZ
 ZUNIT=BOHR
 

 Variable memory set to  995000000 words,  buffer space   230000 words

 SETTING BASIS          =    AVTZ


 Recomputing integrals since basis changed


 Using spherical harmonics

 Library entry N      S aug-cc-pVTZ          selected for orbital group  1
 Library entry N      P aug-cc-pVTZ          selected for orbital group  1
 Library entry N      D aug-cc-pVTZ          selected for orbital group  1
 Library entry N      F aug-cc-pVTZ          selected for orbital group  1
 Library entry H      S aug-cc-pVTZ          selected for orbital group  2
 Library entry H      P aug-cc-pVTZ          selected for orbital group  2
 Library entry H      D aug-cc-pVTZ          selected for orbital group  2
 Library entry O      S aug-cc-pVTZ          selected for orbital group  3
 Library entry O      P aug-cc-pVTZ          selected for orbital group  3
 Library entry O      D aug-cc-pVTZ          selected for orbital group  3
 Library entry O      F aug-cc-pVTZ          selected for orbital group  3


 PROGRAM * SEWARD (Integral evaluation for generally contracted gaussian basis sets)     Author: Roland Lindh, 1990

 Geometry written to block  1 of record 700


 Point group  Cs  



 ATOMIC COORDINATES

 NR  ATOM    CHARGE       X              Y              Z

   1  N       7.00    0.000000000   -0.152363976   -1.130668681
   2  H       1.00    0.000000000    1.665166675   -1.936243229
   3  O       8.00    0.000000000    0.028965091    1.116322319

 Bond lengths in Bohr (Angstrom)

 1-2  1.988056342  1-3  2.254295629
     ( 1.052034110)     ( 1.192921874)

 Bond angles

  2-1-3  109.29041350

 NUCLEAR CHARGE:                   16
 NUMBER OF PRIMITIVE AOS:         161
 NUMBER OF SYMMETRY AOS:          141
 NUMBER OF CONTRACTIONS:          115   (  76A'  +  39A"  )
 NUMBER OF CORE ORBITALS:           2   (   2A'  +   0A"  )
 NUMBER OF VALENCE ORBITALS:        9   (   7A'  +   2A"  )


 NUCLEAR REPULSION ENERGY   30.67234163

 Eigenvalues of metric

         1 0.228E-03 0.489E-03 0.179E-02 0.208E-02 0.241E-02 0.335E-02 0.429E-02 0.504E-02
         2 0.378E-02 0.999E-02 0.255E-01 0.365E-01 0.505E-01 0.618E-01 0.786E-01 0.119E+00


 Contracted 2-electron integrals neglected if value below      1.0D-22

       10790064. INTEGRALS WRITTEN OUT IN    2635 BLOCKS ON RECORD 1290 OF FILE 1


 NUMBER OF SORTED TWO-ELECTRON INTEGRALS:   11433631.     BUFFER LENGTH:  32768
 NUMBER OF SEGMENTS:   1  SEGMENT LENGTH:   11433631      RECORD LENGTH: 524288

 Memory used in sort:      11.99 MW

 SORT1 READ    10790064. AND WROTE    10943632. INTEGRALS IN     32 RECORDS. CPU TIME:     0.26 SEC, REAL TIME:     0.37 SEC
 SORT2 READ    10943632. AND WROTE    11433631. INTEGRALS IN      1 RECORDS. CPU TIME:     0.17 SEC, REAL TIME:     0.25 SEC

 FILE SIZES:   FILE 1:   193.0 MBYTE,  FILE 4:   134.3 MBYTE,   TOTAL:    327.2 MBYTE

 OPERATOR DM      FOR CENTER  0  COORDINATES:    0.000000    0.000000    0.000000


 **********************************************************************************************************************************
 DATASETS  * FILE   NREC   LENGTH (MB)   RECORD NAMES
              1      19      111.05       500      610      700      900      950      970     1000      129      960     1100   
                                          VAR    BASINP    GEOM    SYMINP    ZMAT    AOBASIS   BASIS     P2S    ABASIS      S 
                                         1400     1410     1200     1210     1080     1600     1650     1300     1700   
                                           T        V       H0       H01     AOSYM     SMH    MOLCAS    ERIS     OPER   

 PROGRAMS   *        TOTAL       INT
 CPU TIMES  *         1.54      1.45
 REAL TIME  *         2.50 SEC
 DISK USED  *       327.55 MB      
 **********************************************************************************************************************************


 PROGRAM * RHF-SCF (CLOSED SHELL)       Authors: W. Meyer, H.-J. Werner


 NUMBER OF ELECTRONS:       8+    8-
 CONVERGENCE THRESHOLDS:    1.00E-10 (Density)    1.00E-13 (Energy)
 MAX. NUMBER OF ITERATIONS:      500
 INTERPOLATION TYPE:            DIIS
 INTERPOLATION STEPS:              2 (START)      1 (STEP)
 LEVEL SHIFTS:                  0.00 (CLOSED)  0.00 (OPEN) 



 Orbital guess generated from atomic densities. Full valence occupancy:    9   2

 Molecular orbital dump at record        2100.2

 Initial occupancy:   7   1

 ITERATION    DDIFF          GRAD             ENERGY        2-EL.EN.            DIPOLE MOMENTS         DIIS   ORB.
    1      0.000D+00      0.000D+00      -129.79229097    154.432947    0.00000    0.59417   -0.97482    0    start
    2      0.000D+00      0.106D-01      -129.82010141    155.735785    0.00000    0.60059   -0.21990    1    diag
    3      0.115D-01      0.779D-02      -129.84028686    155.812290    0.00000    0.55417   -0.57392    2    diag
    4      0.567D-02      0.126D-02      -129.84104751    155.535422    0.00000    0.56147   -0.51624    3    diag
    5      0.105D-02      0.411D-03      -129.84116688    155.628360    0.00000    0.56715   -0.51944    4    diag
    6      0.437D-03      0.118D-03      -129.84118578    155.613041    0.00000    0.56763   -0.51565    5    diag
    7      0.167D-03      0.577D-04      -129.84119100    155.615688    0.00000    0.56893   -0.51333    6    diag
    8      0.114D-03      0.188D-04      -129.84119150    155.615090    0.00000    0.56897   -0.51244    7    diag
    9      0.395D-04      0.351D-05      -129.84119152    155.614993    0.00000    0.56893   -0.51225    8    diag
   10      0.741D-05      0.832D-06      -129.84119152    155.614974    0.00000    0.56890   -0.51222    9    orth
   11      0.164D-05      0.169D-06      -129.84119152    155.614971    0.00000    0.56889   -0.51222    9    diag
   12      0.329D-06      0.340D-07      -129.84119152    155.614970    0.00000    0.56889   -0.51222    9    diag
   13      0.706D-07      0.832D-08      -129.84119152    155.614970    0.00000    0.56889   -0.51222    9    diag
   14      0.178D-07      0.177D-08      -129.84119152    155.614970    0.00000    0.56889   -0.51222    9    diag
   15      0.371D-08      0.510D-09      -129.84119152    155.614970    0.00000    0.56889   -0.51222    9    diag
   16      0.101D-08      0.147D-09      -129.84119152    155.614970    0.00000    0.56889   -0.51222    9    diag
   17      0.194D-09      0.427D-10      -129.84119152    155.614970    0.00000    0.56889   -0.51222    9    diag
   18      0.556D-10      0.150D-10      -129.84119152    155.614970    0.00000    0.56889   -0.51222    9    diag
   19      0.269D-10      0.341D-11      -129.84119152    155.614970    0.00000    0.56889   -0.51222    9    fixocc
   20      0.627D-11      0.530D-12      -129.84119152    155.614970    0.00000    0.56889   -0.51222    9    orth
   21      0.141D-11      0.175D-12      -129.84119152    155.614970    0.00000    0.56889   -0.51222    9    diag
   22      0.906D-12      0.807D-13      -129.84119152    155.614970    0.00000    0.56889   -0.51222    9    diag
   23      0.859D-12      0.708D-13      -129.84119152    155.614970    0.00000    0.56889   -0.51222    9    diag
   24      0.549D-12      0.839D-13      -129.84119152    155.614970    0.00000    0.56889   -0.51222    9    diag
   25      0.261D-12      0.442D-13      -129.84119152    155.614970    0.00000    0.56889   -0.51222    9    diag
   26      0.178D-12      0.328D-13      -129.84119152    155.614970    0.00000    0.56889   -0.51222    9    diag
   27      0.111D-12      0.395D-13      -129.84119152    155.614970    0.00000    0.56889   -0.51222    9    diag
   28      0.122D-12      0.381D-13      -129.84119152    155.614970    0.00000    0.56889   -0.51222    9    diag
   29      0.699D-13      0.386D-13      -129.84119152    155.614970    0.00000    0.56889   -0.51222    0    orth

 Final occupancy:   7   1

 !RHF STATE 1.1 Energy               -129.841191521035
 Nuclear energy                        30.67234163
 One-electron energy                 -238.32101827
 Two-electron energy                   77.80748512
 Virial quotient                       -1.00171491
 !RHF STATE 1.1 Dipole moment           0.00000000     0.56888833    -0.51221729
 Dipole moment /Debye                   0.00000000     1.44587520    -1.30184122

 Orbital energies:

         1.1          2.1          3.1          4.1          5.1          6.1          7.1          8.1          9.1
    -20.655392   -15.711680    -1.542748    -0.992218    -0.751902    -0.670711    -0.425002     0.029305     0.092159

         1.2          2.2          3.2
     -0.603371     0.068845     0.130609

 HOMO      7.1    -0.425002 =     -11.5649eV
 LUMO      8.1     0.029305 =       0.7974eV
 LUMO-HOMO         0.454308 =      12.3623eV


 **********************************************************************************************************************************
 DATASETS  * FILE   NREC   LENGTH (MB)   RECORD NAMES
              1      19      111.05       500      610      700      900      950      970     1000      129      960     1100   
                                          VAR    BASINP    GEOM    SYMINP    ZMAT    AOBASIS   BASIS     P2S    ABASIS      S 
                                         1400     1410     1200     1210     1080     1600     1650     1300     1700   
                                           T        V       H0       H01     AOSYM     SMH    MOLCAS    ERIS     OPER   

              2       4        2.94       700     1000      520     2100   
                                         GEOM     BASIS   MCVARS     RHF  

 PROGRAMS   *        TOTAL        HF       INT
 CPU TIMES  *         3.32      1.78      1.45
 REAL TIME  *         4.70 SEC
 DISK USED  *       327.55 MB      
 **********************************************************************************************************************************


 PROGRAM * CCSD (Closed-shell coupled cluster)     Authors: C. Hampel, H.-J. Werner, 1991, M. Deegan, P.J. Knowles, 1992


 Convergence thresholds:  THRVAR = 1.00D-08  THRDEN = 1.00D-12

 CCSD(T)     terms to be evaluated (factor= 1.000)


 Number of core orbitals:           2 (   2   0 )
 Number of closed-shell orbitals:   6 (   5   1 )
 Number of external orbitals:     107 (  69  38 )

 Molecular orbitals read from record     2100.2  Type=RHF/CANONICAL (state 1.1)

 Number of N-1 electron functions:               6
 Number of N-2 electron functions:              21
 Number of singly external CSFs:               383
 Number of doubly external CSFs:            107206
 Total number of CSFs:                      107590

 Length of J-op  integral file:               0.00 MB
 Length of K-op  integral file:               0.54 MB
 Length of 3-ext integral record:             0.00 MB

 Memory could be reduced to 5.94 Mwords without degradation in triples

 Integral transformation finished. Total CPU:   0.18 sec, npass=  1  Memory used:   1.65 MW

 Reference energy:                   -129.84119152

 MP2 singlet pair energy:              -0.27787732
 MP2 triplet pair energy:              -0.16415228
 MP2 correlation energy:               -0.44202960
 MP2 total energy:                   -130.28322112

 SCS-MP2 correlation energy:           -0.43559198   (PS=  1.200000  PT=  0.333333)
 SCS-MP2 total energy:               -130.27678350

 ITER.      SQ.NORM     CORR.ENERGY   TOTAL ENERGY   ENERGY CHANGE        DEN1      VAR(S)    VAR(P)  DIIS     TIME  TIME/IT
   1      1.11935365    -0.44670329  -130.28789481    -0.00467369     0.01080509  0.30D-02  0.30D-02  1  1     0.38     0.21
   2      1.13013215    -0.44700580  -130.28819732    -0.00030251    -0.01209913  0.93D-04  0.49D-03  2  2     0.57     0.21
   3      1.13633341    -0.44738433  -130.28857585    -0.00037853    -0.00290481  0.50D-04  0.48D-04  3  3     0.77     0.22
   4      1.13905667    -0.44739411  -130.28858564    -0.00000978    -0.00093116  0.38D-05  0.88D-05  4  4     0.97     0.22
   5      1.14003653    -0.44742051  -130.28861203    -0.00002639    -0.00020781  0.11D-05  0.16D-05  5  5     1.16     0.22
   6      1.14036460    -0.44740533  -130.28859685     0.00001517    -0.00003933  0.98D-07  0.40D-06  6  6     1.36     0.22
   7      1.14044166    -0.44740620  -130.28859772    -0.00000087    -0.00000240  0.20D-07  0.90D-07  6  1     1.55     0.22
   8      1.14046357    -0.44740705  -130.28859858    -0.00000086     0.00000137  0.39D-08  0.15D-07  6  2     1.76     0.22
   9      1.14046892    -0.44740663  -130.28859816     0.00000042     0.00000045  0.27D-08  0.17D-08  6  4     1.94     0.22
  10      1.14047103    -0.44740710  -130.28859862    -0.00000046    -0.00000066  0.42D-09  0.19D-09  6  3     2.14     0.22
  11      1.14047047    -0.44740713  -130.28859865    -0.00000003    -0.00000004  0.14D-09  0.30D-10  6  5     2.34     0.22
  12      1.14046943    -0.44740727  -130.28859879    -0.00000014     0.00000033  0.17D-10  0.98D-11  6  6     2.54     0.22
  13      1.14046862    -0.44740730  -130.28859882    -0.00000003     0.00000021  0.61D-11  0.20D-11  6  1     2.74     0.22
  14      1.14046812    -0.44740733  -130.28859885    -0.00000003     0.00000013  0.10D-11  0.62D-12  6  2     2.93     0.22
  15      1.14046791    -0.44740733  -130.28859885    -0.00000001     0.00000003  0.27D-12  0.20D-12  6  4     3.12     0.22
  16      1.14046779    -0.44740733  -130.28859886    -0.00000000     0.00000001  0.36D-13  0.25D-13  6  5     3.31     0.22
  17      1.14046776    -0.44740734  -130.28859886    -0.00000000     0.00000000  0.70D-15  0.19D-14  6  3     3.52     0.22
  18      1.14046776    -0.44740734  -130.28859886     0.00000000    -0.00000000  0.25D-15  0.26D-15  6  6     3.74     0.22
  19      1.14046776    -0.44740734  -130.28859886     0.00000000    -0.00000000  0.80D-16  0.40D-16  6  1     3.96     0.22
  20      1.14046776    -0.44740734  -130.28859886     0.00000000    -0.00000000  0.21D-16  0.75D-17  6  2     4.16     0.22
  21      1.14046776    -0.44740734  -130.28859886     0.00000000    -0.00000000  0.34D-17  0.21D-17  6  5     4.36     0.23
  22      1.14046776    -0.44740734  -130.28859886    -0.00000000     0.00000000  0.40D-18  0.23D-18  6  4     4.55     0.23
  23      1.14046776    -0.44740734  -130.28859886     0.00000000     0.00000000  0.14D-18  0.48D-19  6  3     4.75     0.23
  24      1.14046776    -0.44740734  -130.28859886     0.00000000    -0.00000000  0.28D-19  0.93D-20  6  6     4.94     0.22
  25      1.14046776    -0.44740734  -130.28859886     0.00000000    -0.00000000  0.35D-20  0.12D-20  6  1     5.14     0.22
  26      1.14046776    -0.44740734  -130.28859886     0.00000000    -0.00000000  0.86D-21  0.24D-21  6  2     5.34     0.22
  27      1.14046776    -0.44740734  -130.28859886    -0.00000000     0.00000000  0.18D-21  0.60D-22  6  5     5.54     0.22

 Norm of t1 vector:      0.07636728      S-energy:     0.00000000      T1 diagnostic:  0.01558841
                                                                       D1 diagnostic:  0.04021209

 Doubles amplitudes (print threshold =  0.500E-01):

         I         J         SYM. A    SYM. B    A         B      T(IJ, AB)

         6         6         2         2         1         1     -0.10211303


 Total CPU time for triples:      1.61 sec


 RESULTS
 =======

  Reference energy                   -129.841191521036
  CCSD singlet pair energy             -0.306416743630
  CCSD triplet pair energy             -0.140990592865
  CCSD correlation energy              -0.447407336496

  Triples (T) contribution             -0.020467701173
  Total correlation energy             -0.467875037668

  CCSD total energy                  -130.288598857531
  CCSD[T] energy                     -130.310076404096
  CCSD-T energy                      -130.308675933526
 !CCSD(T) total energy               -130.309066558704

 Timing summary (sec):

 STEP                 CPU(USER)    SYS     CPU(TOT)    WALL
 Transformation          0.18      0.04      0.22      0.22
 CCSD iterations         5.36      0.72      6.08      6.09
 Triples                 1.61      0.05      1.66      1.66

 Program statistics:

 Available memory in ccsd:               994999756
 Min. memory needed in ccsd:                389120
 Max. memory used in ccsd:                  473124
 Max. memory used in cckext:                599488 (27 integral passes)



 **********************************************************************************************************************************
 DATASETS  * FILE   NREC   LENGTH (MB)   RECORD NAMES
              1      20      128.20       500      610      700      900      950      970     1000      129      960     1100   
                                          VAR    BASINP    GEOM    SYMINP    ZMAT    AOBASIS   BASIS     P2S    ABASIS      S 
                                         1400     1410     1200     1210     1080     1600     1650     1300     1700     1380   
                                           T        V       H0       H01     AOSYM     SMH    MOLCAS    ERIS     OPER     JKOP   

              2       4        2.94       700     1000      520     2100   
                                         GEOM     BASIS   MCVARS     RHF  

 PROGRAMS   *        TOTAL   CCSD(T)        HF       INT
 CPU TIMES  *        10.50      7.18      1.78      1.45
 REAL TIME  *        12.70 SEC
 DISK USED  *       327.55 MB      
 **********************************************************************************************************************************

 CCSD(T)/aug-cc-pVTZ energy=   -130.309066558704

        CCSD(T)         HF-SCF  
   -130.30906656   -129.84119152
 **********************************************************************************************************************************
 Molpro calculation terminated
 Variable memory released
