
 Primary working directories    : /tmp/r2666/234964.maple
 Secondary working directories  : /tmp/r2666/234964.maple
 Wavefunction directory         : /ddn/home4/r2666/wfu/
 Main file repository           : /tmp/r2666/234964.maple/

 SHA1      : d5ffa45e93fdbca01ffc919aa182cfdae0147319
 NAME      : 2015.1.35
 ARCHNAME  : linux/x86_64
 FC        : /opt/intel/composer_xe_2015.1.133/bin/intel64/ifort
 BLASLIB   : -Wl,-_start-group /opt/intel/mkl/lib/intel64/libmkl_intel_ilp64.a /opt/intel/mkl/lib/intel64/libmkl_intel_thread.a /opt/intel/mkl/lib/intel64/libmkl_core.a -Wl,-_end-group
 id        : olemiss

 Nodes     nprocs
 cn089        1

 Using customized tuning parameters: mindgm=1; mindgv=20; mindgc=4; mindgr=1; noblas=0; minvec=7
 default implementation of scratch files=df  

 ***,hno CCSD(T)/TZ-F12 QFF
 memory, 995, m;
 gthresh,energy=1.d-12,zero=1.d-22,oneint=1.d-22,twoint=1.d-22;
 gthresh,optgrad=1.d-8,optstep=1.d-8;
 nocompress;
 geomtyp=xyz
 bohr
 geometry={
 3
         78        78
 N        0.0000000000       -0.1558388963       -1.1468290584
 H        0.0000000000        1.6678456551       -1.9383735464
 O        0.0000000000        0.0297610312        1.1346130138
 }
 
 basis=avtz
   {hf,maxit=500;accu,20;}
 {ccsd(t),nocheck,maxit=250;orbital,IGNORE_ERROR;}

 Variables initialized (889), CPU time= 0.01 sec
 Commands  initialized (702), CPU time= 0.01 sec, 572 directives.
 Default parameters read. Elapsed time= 0.04 sec

 Checking input...
 Passed
1


                                         ***  PROGRAM SYSTEM MOLPRO  ***
                                       Copyright, TTI GmbH Stuttgart, 2015
                                    Version 2015.1 linked Jul  9 2018 13:16:40


 **********************************************************************************************************************************
 LABEL *   hno CCSD(T)/TZ-F12 QFF                                                        
  64 bit serial version                                                                  DATE: 08-Feb-20          TIME: 17:56:36  
 **********************************************************************************************************************************

 SHA1:             d5ffa45e93fdbca01ffc919aa182cfdae0147319
 **********************************************************************************************************************************

 THRESHOLDS:

 ZERO    =  1.00D-22  ONEINT  =  1.00D-22  TWOINT  =  1.00D-22  PREFAC  =  1.00D-14  LOCALI  =  1.00D-09  EORDER  =  1.00D-04
 ENERGY  =  1.00D-12  ETEST   =  0.00D+00  EDENS   =  0.00D+00  THRDEDEF=  1.00D-06  GRADIENT=  1.00D-02  STEP    =  1.00D-03
 ORBITAL =  1.00D-05  CIVEC   =  1.00D-05  COEFF   =  1.00D-04  PRINTCI =  5.00D-02  PUNCHCI =  9.90D+01  OPTGRAD =  3.00D-04
 OPTENERG=  1.00D-06  OPTSTEP =  3.00D-04  THRGRAD =  1.00D-10  COMPRESS=  1.00D-11  VARMIN  =  1.00D-07  VARMAX  =  1.00D-03
 THRDOUB =  0.00D+00  THRDIV  =  1.00D-05  THRRED  =  1.00D-07  THRPSP  =  1.00D+00  THRDC   =  1.00D-10  THRCS   =  1.00D-10
 THRNRM  =  1.00D-08  THREQ   =  0.00D+00  THRDE   =  1.00D+00  THRREF  =  1.00D-05  SPARFAC =  1.00D+00  THRDLP  =  1.00D-07
 THRDIA  =  1.00D-10  THRDLS  =  1.00D-07  THRGPS  =  0.00D+00  THRKEX  =  0.00D+00  THRDIS  =  2.00D-01  THRVAR  =  1.00D-10
 THRLOC  =  1.00D-06  THRGAP  =  1.00D-06  THRLOCT = -1.00D+00  THRGAPT = -1.00D+00  THRORB  =  1.00D-06  THRMLTP =  0.00D+00
 THRCPQCI=  1.00D-10  KEXTA   =  0.00D+00  THRCOARS=  0.00D+00  SYMTOL  =  1.00D-06  GRADTOL =  1.00D-06  THROVL  =  1.00D-08
 THRORTH =  1.00D-08  GRID    =  1.00D-06  GRIDMAX =  1.00D-03  DTMAX   =  0.00D+00  THROCCDE=  1.00D-01  THROCCDE=  1.00D-01



 THRESHOLDS:

 ZERO    =  1.00D-22  ONEINT  =  1.00D-22  TWOINT  =  1.00D-22  PREFAC  =  1.00D-14  LOCALI  =  1.00D-09  EORDER  =  1.00D-04
 ENERGY  =  1.00D-12  ETEST   =  0.00D+00  EDENS   =  0.00D+00  THRDEDEF=  1.00D-06  GRADIENT=  1.00D-02  STEP    =  1.00D-03
 ORBITAL =  1.00D-05  CIVEC   =  1.00D-05  COEFF   =  1.00D-04  PRINTCI =  5.00D-02  PUNCHCI =  9.90D+01  OPTGRAD =  1.00D-08
 OPTENERG=  1.00D-06  OPTSTEP =  1.00D-08  THRGRAD =  1.00D-10  COMPRESS=  1.00D-11  VARMIN  =  1.00D-07  VARMAX  =  1.00D-03
 THRDOUB =  0.00D+00  THRDIV  =  1.00D-05  THRRED  =  1.00D-07  THRPSP  =  1.00D+00  THRDC   =  1.00D-10  THRCS   =  1.00D-10
 THRNRM  =  1.00D-08  THREQ   =  0.00D+00  THRDE   =  1.00D+00  THRREF  =  1.00D-05  SPARFAC =  1.00D+00  THRDLP  =  1.00D-07
 THRDIA  =  1.00D-10  THRDLS  =  1.00D-07  THRGPS  =  0.00D+00  THRKEX  =  0.00D+00  THRDIS  =  2.00D-01  THRVAR  =  1.00D-10
 THRLOC  =  1.00D-06  THRGAP  =  1.00D-06  THRLOCT = -1.00D+00  THRGAPT = -1.00D+00  THRORB  =  1.00D-06  THRMLTP =  0.00D+00
 THRCPQCI=  1.00D-10  KEXTA   =  0.00D+00  THRCOARS=  0.00D+00  SYMTOL  =  1.00D-06  GRADTOL =  1.00D-06  THROVL  =  1.00D-08
 THRORTH =  1.00D-08  GRID    =  1.00D-06  GRIDMAX =  1.00D-03  DTMAX   =  0.00D+00  THROCCDE=  1.00D-01  THROCCDE=  1.00D-01



 Input parameters for SORTINT:

 COMPRESS =    0.000000
 C_FINAL  =    1.000000
 DEBUG    =   -1.000000
 C_SORT1  =    0.000000
 C_SEWARD =    0.000000
 THRESH   =    0.000000
 IO       =  molpro                                                          
 SPRI     =    0.000000
 SETTING GEOMTYP        =    XYZ
 ZUNIT=BOHR
 

 Variable memory set to  995000000 words,  buffer space   230000 words

 SETTING BASIS          =    AVTZ


 Recomputing integrals since basis changed


 Using spherical harmonics

 Library entry N      S aug-cc-pVTZ          selected for orbital group  1
 Library entry N      P aug-cc-pVTZ          selected for orbital group  1
 Library entry N      D aug-cc-pVTZ          selected for orbital group  1
 Library entry N      F aug-cc-pVTZ          selected for orbital group  1
 Library entry H      S aug-cc-pVTZ          selected for orbital group  2
 Library entry H      P aug-cc-pVTZ          selected for orbital group  2
 Library entry H      D aug-cc-pVTZ          selected for orbital group  2
 Library entry O      S aug-cc-pVTZ          selected for orbital group  3
 Library entry O      P aug-cc-pVTZ          selected for orbital group  3
 Library entry O      D aug-cc-pVTZ          selected for orbital group  3
 Library entry O      F aug-cc-pVTZ          selected for orbital group  3


 PROGRAM * SEWARD (Integral evaluation for generally contracted gaussian basis sets)     Author: Roland Lindh, 1990

 Geometry written to block  1 of record 700


 Point group  Cs  



 ATOMIC COORDINATES

 NR  ATOM    CHARGE       X              Y              Z

   1  N       7.00    0.000000000   -0.155838896   -1.146829058
   2  H       1.00    0.000000000    1.667845655   -1.938373546
   3  O       8.00    0.000000000    0.029761031    1.134613014

 Bond lengths in Bohr (Angstrom)

 1-2  1.988056342  1-3  2.288979087
     ( 1.052034110)     ( 1.211275569)

 Bond angles

  2-1-3  108.81168682

 NUCLEAR CHARGE:                   16
 NUMBER OF PRIMITIVE AOS:         161
 NUMBER OF SYMMETRY AOS:          141
 NUMBER OF CONTRACTIONS:          115   (  76A'  +  39A"  )
 NUMBER OF CORE ORBITALS:           2   (   2A'  +   0A"  )
 NUMBER OF VALENCE ORBITALS:        9   (   7A'  +   2A"  )


 NUCLEAR REPULSION ENERGY   30.28339990

 Eigenvalues of metric

         1 0.233E-03 0.499E-03 0.182E-02 0.214E-02 0.256E-02 0.363E-02 0.433E-02 0.515E-02
         2 0.398E-02 0.101E-01 0.264E-01 0.370E-01 0.511E-01 0.622E-01 0.819E-01 0.120E+00


 Contracted 2-electron integrals neglected if value below      1.0D-22

       10790064. INTEGRALS WRITTEN OUT IN    2635 BLOCKS ON RECORD 1290 OF FILE 1


 NUMBER OF SORTED TWO-ELECTRON INTEGRALS:   11433631.     BUFFER LENGTH:  32768
 NUMBER OF SEGMENTS:   1  SEGMENT LENGTH:   11433631      RECORD LENGTH: 524288

 Memory used in sort:      11.99 MW

 SORT1 READ    10790064. AND WROTE    10943632. INTEGRALS IN     32 RECORDS. CPU TIME:     0.17 SEC, REAL TIME:     0.23 SEC
 SORT2 READ    10943632. AND WROTE    11433631. INTEGRALS IN      1 RECORDS. CPU TIME:     0.18 SEC, REAL TIME:     0.23 SEC

 FILE SIZES:   FILE 1:   193.0 MBYTE,  FILE 4:   134.3 MBYTE,   TOTAL:    327.2 MBYTE

 OPERATOR DM      FOR CENTER  0  COORDINATES:    0.000000    0.000000    0.000000


 **********************************************************************************************************************************
 DATASETS  * FILE   NREC   LENGTH (MB)   RECORD NAMES
              1      19      111.05       500      610      700      900      950      970     1000      129      960     1100   
                                          VAR    BASINP    GEOM    SYMINP    ZMAT    AOBASIS   BASIS     P2S    ABASIS      S 
                                         1400     1410     1200     1210     1080     1600     1650     1300     1700   
                                           T        V       H0       H01     AOSYM     SMH    MOLCAS    ERIS     OPER   

 PROGRAMS   *        TOTAL       INT
 CPU TIMES  *         1.31      1.22
 REAL TIME  *         2.21 SEC
 DISK USED  *       327.55 MB      
 **********************************************************************************************************************************


 PROGRAM * RHF-SCF (CLOSED SHELL)       Authors: W. Meyer, H.-J. Werner


 NUMBER OF ELECTRONS:       8+    8-
 CONVERGENCE THRESHOLDS:    1.00E-10 (Density)    1.00E-13 (Energy)
 MAX. NUMBER OF ITERATIONS:      500
 INTERPOLATION TYPE:            DIIS
 INTERPOLATION STEPS:              2 (START)      1 (STEP)
 LEVEL SHIFTS:                  0.00 (CLOSED)  0.00 (OPEN) 



 Orbital guess generated from atomic densities. Full valence occupancy:    9   2

 Molecular orbital dump at record        2100.2

 Initial occupancy:   7   1

 ITERATION    DDIFF          GRAD             ENERGY        2-EL.EN.            DIPOLE MOMENTS         DIIS   ORB.
    1      0.000D+00      0.000D+00      -129.78746158    153.739605    0.00000    0.59895   -1.03313    0    start
    2      0.000D+00      0.108D-01      -129.81480823    155.004674    0.00000    0.61247   -0.21092    1    diag
    3      0.120D-01      0.830D-02      -129.83792630    155.123027    0.00000    0.56124   -0.60004    2    diag
    4      0.597D-02      0.128D-02      -129.83872636    154.831730    0.00000    0.56829   -0.53942    3    diag
    5      0.108D-02      0.423D-03      -129.83885330    154.926198    0.00000    0.57394   -0.54224    4    diag
    6      0.452D-03      0.122D-03      -129.83887352    154.910603    0.00000    0.57431   -0.53810    5    diag
    7      0.173D-03      0.605D-04      -129.83887937    154.913078    0.00000    0.57555   -0.53550    6    diag
    8      0.119D-03      0.208D-04      -129.83888002    154.912417    0.00000    0.57558   -0.53448    7    diag
    9      0.454D-04      0.397D-05      -129.83888005    154.912306    0.00000    0.57554   -0.53426    8    diag
   10      0.883D-05      0.902D-06      -129.83888005    154.912286    0.00000    0.57551   -0.53423    9    orth
   11      0.178D-05      0.178D-06      -129.83888005    154.912283    0.00000    0.57550   -0.53423    9    diag
   12      0.339D-06      0.367D-07      -129.83888005    154.912283    0.00000    0.57550   -0.53423    9    diag
   13      0.725D-07      0.934D-08      -129.83888005    154.912283    0.00000    0.57550   -0.53423    9    diag
   14      0.191D-07      0.193D-08      -129.83888005    154.912283    0.00000    0.57550   -0.53423    9    diag
   15      0.375D-08      0.534D-09      -129.83888005    154.912283    0.00000    0.57550   -0.53423    9    diag
   16      0.102D-08      0.143D-09      -129.83888005    154.912283    0.00000    0.57550   -0.53423    9    diag
   17      0.175D-09      0.391D-10      -129.83888005    154.912283    0.00000    0.57550   -0.53423    9    diag
   18      0.469D-10      0.137D-10      -129.83888005    154.912283    0.00000    0.57550   -0.53423    9    diag
   19      0.245D-10      0.294D-11      -129.83888005    154.912283    0.00000    0.57550   -0.53423    0    orth

 Final occupancy:   7   1

 !RHF STATE 1.1 Energy               -129.838880048936
 Nuclear energy                        30.28339990
 One-electron energy                 -237.57842133
 Two-electron energy                   77.45614139
 Virial quotient                       -1.00227441
 !RHF STATE 1.1 Dipole moment           0.00000000     0.57549622    -0.53423058
 Dipole moment /Debye                   0.00000000     1.46266967    -1.35778976

 Orbital energies:

         1.1          2.1          3.1          4.1          5.1          6.1          7.1          8.1          9.1
    -20.657039   -15.714925    -1.527754    -0.996199    -0.746274    -0.665262    -0.431039     0.029081     0.092122

         1.2          2.2          3.2
     -0.594578     0.063859     0.130093

 HOMO      7.1    -0.431039 =     -11.7292eV
 LUMO      8.1     0.029081 =       0.7913eV
 LUMO-HOMO         0.460120 =      12.5205eV


 **********************************************************************************************************************************
 DATASETS  * FILE   NREC   LENGTH (MB)   RECORD NAMES
              1      19      111.05       500      610      700      900      950      970     1000      129      960     1100   
                                          VAR    BASINP    GEOM    SYMINP    ZMAT    AOBASIS   BASIS     P2S    ABASIS      S 
                                         1400     1410     1200     1210     1080     1600     1650     1300     1700   
                                           T        V       H0       H01     AOSYM     SMH    MOLCAS    ERIS     OPER   

              2       4        2.94       700     1000      520     2100   
                                         GEOM     BASIS   MCVARS     RHF  

 PROGRAMS   *        TOTAL        HF       INT
 CPU TIMES  *         2.32      1.00      1.22
 REAL TIME  *         3.48 SEC
 DISK USED  *       327.55 MB      
 **********************************************************************************************************************************


 PROGRAM * CCSD (Closed-shell coupled cluster)     Authors: C. Hampel, H.-J. Werner, 1991, M. Deegan, P.J. Knowles, 1992


 Convergence thresholds:  THRVAR = 1.00D-08  THRDEN = 1.00D-12

 CCSD(T)     terms to be evaluated (factor= 1.000)


 Number of core orbitals:           2 (   2   0 )
 Number of closed-shell orbitals:   6 (   5   1 )
 Number of external orbitals:     107 (  69  38 )

 Molecular orbitals read from record     2100.2  Type=RHF/CANONICAL (state 1.1)

 Number of N-1 electron functions:               6
 Number of N-2 electron functions:              21
 Number of singly external CSFs:               383
 Number of doubly external CSFs:            107206
 Total number of CSFs:                      107590

 Length of J-op  integral file:               0.00 MB
 Length of K-op  integral file:               0.54 MB
 Length of 3-ext integral record:             0.00 MB

 Memory could be reduced to 5.94 Mwords without degradation in triples

 Integral transformation finished. Total CPU:   0.12 sec, npass=  1  Memory used:   1.65 MW

 Reference energy:                   -129.83888005

 MP2 singlet pair energy:              -0.27979175
 MP2 triplet pair energy:              -0.16542115
 MP2 correlation energy:               -0.44521290
 MP2 total energy:                   -130.28409294

 SCS-MP2 correlation energy:           -0.43867881   (PS=  1.200000  PT=  0.333333)
 SCS-MP2 total energy:               -130.27755886

 ITER.      SQ.NORM     CORR.ENERGY   TOTAL ENERGY   ENERGY CHANGE        DEN1      VAR(S)    VAR(P)  DIIS     TIME  TIME/IT
   1      1.12133065    -0.44919418  -130.28807423    -0.00398128     0.01223851  0.32D-02  0.32D-02  1  1     0.28     0.16
   2      1.13254848    -0.44936269  -130.28824274    -0.00016851    -0.01253298  0.10D-03  0.52D-03  2  2     0.42     0.17
   3      1.13912800    -0.44977057  -130.28865062    -0.00040788    -0.00302724  0.55D-04  0.52D-04  3  3     0.57     0.17
   4      1.14206712    -0.44978175  -130.28866180    -0.00001119    -0.00098985  0.43D-05  0.95D-05  4  4     0.73     0.17
   5      1.14315001    -0.44981136  -130.28869141    -0.00002960    -0.00022884  0.12D-05  0.17D-05  5  5     0.89     0.17
   6      1.14350212    -0.44979389  -130.28867394     0.00001747    -0.00004296  0.10D-06  0.41D-06  6  6     1.05     0.17
   7      1.14357830    -0.44979510  -130.28867515    -0.00000121    -0.00000173  0.19D-07  0.96D-07  6  1     1.20     0.17
   8      1.14360027    -0.44979579  -130.28867584    -0.00000069     0.00000147  0.37D-08  0.17D-07  6  2     1.35     0.17
   9      1.14360581    -0.44979532  -130.28867537     0.00000047     0.00000050  0.29D-08  0.20D-08  6  4     1.51     0.17
  10      1.14360823    -0.44979581  -130.28867586    -0.00000050    -0.00000075  0.48D-09  0.23D-09  6  3     1.66     0.17
  11      1.14360773    -0.44979584  -130.28867588    -0.00000002    -0.00000008  0.17D-09  0.36D-10  6  5     1.83     0.17
  12      1.14360663    -0.44979599  -130.28867604    -0.00000016     0.00000035  0.19D-10  0.11D-10  6  6     1.97     0.17
  13      1.14360574    -0.44979603  -130.28867608    -0.00000004     0.00000022  0.66D-11  0.23D-11  6  1     2.14     0.17
  14      1.14360517    -0.44979606  -130.28867611    -0.00000003     0.00000015  0.10D-11  0.75D-12  6  2     2.29     0.17
  15      1.14360493    -0.44979607  -130.28867612    -0.00000001     0.00000004  0.29D-12  0.24D-12  6  4     2.45     0.17
  16      1.14360483    -0.44979607  -130.28867612    -0.00000000     0.00000001  0.54D-13  0.84D-13  6  3     2.59     0.17
  17      1.14360477    -0.44979607  -130.28867612    -0.00000000     0.00000001  0.40D-14  0.20D-13  6  5     2.73     0.17
  18      1.14360476    -0.44979607  -130.28867612     0.00000000    -0.00000000  0.15D-14  0.42D-14  6  6     2.89     0.17
  19      1.14360476    -0.44979607  -130.28867612    -0.00000000     0.00000000  0.12D-14  0.76D-15  6  1     3.05     0.17
  20      1.14360476    -0.44979607  -130.28867612     0.00000000    -0.00000000  0.25D-15  0.13D-15  6  2     3.21     0.17
  21      1.14360476    -0.44979607  -130.28867612     0.00000000    -0.00000000  0.60D-16  0.34D-16  6  3     3.36     0.17
  22      1.14360476    -0.44979607  -130.28867612     0.00000000     0.00000000  0.68D-17  0.30D-17  6  4     3.51     0.17
  23      1.14360476    -0.44979607  -130.28867612     0.00000000    -0.00000000  0.25D-17  0.63D-18  6  5     3.67     0.17
  24      1.14360476    -0.44979607  -130.28867612     0.00000000     0.00000000  0.17D-18  0.54D-19  6  2     3.81     0.17
  25      1.14360476    -0.44979607  -130.28867612    -0.00000000    -0.00000000  0.26D-19  0.14D-19  6  6     3.95     0.17
  26      1.14360476    -0.44979607  -130.28867612     0.00000000    -0.00000000  0.40D-20  0.24D-20  6  1     4.11     0.17
  27      1.14360476    -0.44979607  -130.28867612    -0.00000000    -0.00000000  0.54D-21  0.59D-21  6  4     4.25     0.17

 Norm of t1 vector:      0.07917272      S-energy:     0.00000000      T1 diagnostic:  0.01616106
                                                                       D1 diagnostic:  0.04260022

 Doubles amplitudes (print threshold =  0.500E-01):

         I         J         SYM. A    SYM. B    A         B      T(IJ, AB)

         6         6         2         2         1         1     -0.11039807


 Total CPU time for triples:      1.13 sec


 RESULTS
 =======

  Reference energy                   -129.838880048936
  CCSD singlet pair energy             -0.308476748149
  CCSD triplet pair energy             -0.141319325812
  CCSD correlation energy              -0.449796073959

  Triples (T) contribution             -0.021023813695
  Total correlation energy             -0.470819887655

  CCSD total energy                  -130.288676122896
  CCSD[T] energy                     -130.310784805206
  CCSD-T energy                      -130.309291193257
 !CCSD(T) total energy               -130.309699936591

 Timing summary (sec):

 STEP                 CPU(USER)    SYS     CPU(TOT)    WALL
 Transformation          0.12      0.05      0.17      0.18
 CCSD iterations         4.13      0.55      4.68      4.69
 Triples                 1.13      0.04      1.17      1.17

 Program statistics:

 Available memory in ccsd:               994999756
 Min. memory needed in ccsd:                389120
 Max. memory used in ccsd:                  473124
 Max. memory used in cckext:                599488 (27 integral passes)



 **********************************************************************************************************************************
 DATASETS  * FILE   NREC   LENGTH (MB)   RECORD NAMES
              1      20      128.20       500      610      700      900      950      970     1000      129      960     1100   
                                          VAR    BASINP    GEOM    SYMINP    ZMAT    AOBASIS   BASIS     P2S    ABASIS      S 
                                         1400     1410     1200     1210     1080     1600     1650     1300     1700     1380   
                                           T        V       H0       H01     AOSYM     SMH    MOLCAS    ERIS     OPER     JKOP   

              2       4        2.94       700     1000      520     2100   
                                         GEOM     BASIS   MCVARS     RHF  

 PROGRAMS   *        TOTAL   CCSD(T)        HF       INT
 CPU TIMES  *         7.72      5.41      1.00      1.22
 REAL TIME  *         9.54 SEC
 DISK USED  *       327.55 MB      
 **********************************************************************************************************************************

 CCSD(T)/aug-cc-pVTZ energy=   -130.309699936591

        CCSD(T)         HF-SCF  
   -130.30969994   -129.83888005
 **********************************************************************************************************************************
 Molpro calculation terminated
 Variable memory released
