
 Primary working directories    : /tmp/r2666/234934.maple
 Secondary working directories  : /tmp/r2666/234934.maple
 Wavefunction directory         : /ddn/home4/r2666/wfu/
 Main file repository           : /tmp/r2666/234934.maple/

 SHA1      : d5ffa45e93fdbca01ffc919aa182cfdae0147319
 NAME      : 2015.1.35
 ARCHNAME  : linux/x86_64
 FC        : /opt/intel/composer_xe_2015.1.133/bin/intel64/ifort
 BLASLIB   : -Wl,-_start-group /opt/intel/mkl/lib/intel64/libmkl_intel_ilp64.a /opt/intel/mkl/lib/intel64/libmkl_intel_thread.a /opt/intel/mkl/lib/intel64/libmkl_core.a -Wl,-_end-group
 id        : olemiss

 Nodes     nprocs
 cn031        1

 Using customized tuning parameters: mindgm=1; mindgv=20; mindgc=4; mindgr=1; noblas=0; minvec=7
 default implementation of scratch files=df  

 ***,hno CCSD(T)/TZ-F12 QFF
 memory, 995, m;
 gthresh,energy=1.d-12,zero=1.d-22,oneint=1.d-22,twoint=1.d-22;
 gthresh,optgrad=1.d-8,optstep=1.d-8;
 nocompress;
 geomtyp=xyz
 bohr
 geometry={
 3
         48        48
 N        0.0000000000       -0.1647963980       -1.1405073955
 H        0.0000000000        1.6645343148       -1.9189142060
 O        0.0000000000        0.0420298732        1.1088320105
 }
 
 basis=avtz
   {hf,maxit=500;accu,20;}
 {ccsd(t),nocheck,maxit=250;orbital,IGNORE_ERROR;}

 Variables initialized (889), CPU time= 0.00 sec
 Commands  initialized (702), CPU time= 0.01 sec, 572 directives.
 Default parameters read. Elapsed time= 0.06 sec

 Checking input...
 Passed
1


                                         ***  PROGRAM SYSTEM MOLPRO  ***
                                       Copyright, TTI GmbH Stuttgart, 2015
                                    Version 2015.1 linked Jul  9 2018 13:16:40


 **********************************************************************************************************************************
 LABEL *   hno CCSD(T)/TZ-F12 QFF                                                        
  64 bit serial version                                                                  DATE: 08-Feb-20          TIME: 17:56:22  
 **********************************************************************************************************************************

 SHA1:             d5ffa45e93fdbca01ffc919aa182cfdae0147319
 **********************************************************************************************************************************

 THRESHOLDS:

 ZERO    =  1.00D-22  ONEINT  =  1.00D-22  TWOINT  =  1.00D-22  PREFAC  =  1.00D-14  LOCALI  =  1.00D-09  EORDER  =  1.00D-04
 ENERGY  =  1.00D-12  ETEST   =  0.00D+00  EDENS   =  0.00D+00  THRDEDEF=  1.00D-06  GRADIENT=  1.00D-02  STEP    =  1.00D-03
 ORBITAL =  1.00D-05  CIVEC   =  1.00D-05  COEFF   =  1.00D-04  PRINTCI =  5.00D-02  PUNCHCI =  9.90D+01  OPTGRAD =  3.00D-04
 OPTENERG=  1.00D-06  OPTSTEP =  3.00D-04  THRGRAD =  1.00D-10  COMPRESS=  1.00D-11  VARMIN  =  1.00D-07  VARMAX  =  1.00D-03
 THRDOUB =  0.00D+00  THRDIV  =  1.00D-05  THRRED  =  1.00D-07  THRPSP  =  1.00D+00  THRDC   =  1.00D-10  THRCS   =  1.00D-10
 THRNRM  =  1.00D-08  THREQ   =  0.00D+00  THRDE   =  1.00D+00  THRREF  =  1.00D-05  SPARFAC =  1.00D+00  THRDLP  =  1.00D-07
 THRDIA  =  1.00D-10  THRDLS  =  1.00D-07  THRGPS  =  0.00D+00  THRKEX  =  0.00D+00  THRDIS  =  2.00D-01  THRVAR  =  1.00D-10
 THRLOC  =  1.00D-06  THRGAP  =  1.00D-06  THRLOCT = -1.00D+00  THRGAPT = -1.00D+00  THRORB  =  1.00D-06  THRMLTP =  0.00D+00
 THRCPQCI=  1.00D-10  KEXTA   =  0.00D+00  THRCOARS=  0.00D+00  SYMTOL  =  1.00D-06  GRADTOL =  1.00D-06  THROVL  =  1.00D-08
 THRORTH =  1.00D-08  GRID    =  1.00D-06  GRIDMAX =  1.00D-03  DTMAX   =  0.00D+00  THROCCDE=  1.00D-01  THROCCDE=  1.00D-01



 THRESHOLDS:

 ZERO    =  1.00D-22  ONEINT  =  1.00D-22  TWOINT  =  1.00D-22  PREFAC  =  1.00D-14  LOCALI  =  1.00D-09  EORDER  =  1.00D-04
 ENERGY  =  1.00D-12  ETEST   =  0.00D+00  EDENS   =  0.00D+00  THRDEDEF=  1.00D-06  GRADIENT=  1.00D-02  STEP    =  1.00D-03
 ORBITAL =  1.00D-05  CIVEC   =  1.00D-05  COEFF   =  1.00D-04  PRINTCI =  5.00D-02  PUNCHCI =  9.90D+01  OPTGRAD =  1.00D-08
 OPTENERG=  1.00D-06  OPTSTEP =  1.00D-08  THRGRAD =  1.00D-10  COMPRESS=  1.00D-11  VARMIN  =  1.00D-07  VARMAX  =  1.00D-03
 THRDOUB =  0.00D+00  THRDIV  =  1.00D-05  THRRED  =  1.00D-07  THRPSP  =  1.00D+00  THRDC   =  1.00D-10  THRCS   =  1.00D-10
 THRNRM  =  1.00D-08  THREQ   =  0.00D+00  THRDE   =  1.00D+00  THRREF  =  1.00D-05  SPARFAC =  1.00D+00  THRDLP  =  1.00D-07
 THRDIA  =  1.00D-10  THRDLS  =  1.00D-07  THRGPS  =  0.00D+00  THRKEX  =  0.00D+00  THRDIS  =  2.00D-01  THRVAR  =  1.00D-10
 THRLOC  =  1.00D-06  THRGAP  =  1.00D-06  THRLOCT = -1.00D+00  THRGAPT = -1.00D+00  THRORB  =  1.00D-06  THRMLTP =  0.00D+00
 THRCPQCI=  1.00D-10  KEXTA   =  0.00D+00  THRCOARS=  0.00D+00  SYMTOL  =  1.00D-06  GRADTOL =  1.00D-06  THROVL  =  1.00D-08
 THRORTH =  1.00D-08  GRID    =  1.00D-06  GRIDMAX =  1.00D-03  DTMAX   =  0.00D+00  THROCCDE=  1.00D-01  THROCCDE=  1.00D-01



 Input parameters for SORTINT:

 COMPRESS =    0.000000
 C_FINAL  =    1.000000
 DEBUG    =   -1.000000
 C_SORT1  =    0.000000
 C_SEWARD =    0.000000
 THRESH   =    0.000000
 IO       =  molpro                                                          
 SPRI     =    0.000000
 SETTING GEOMTYP        =    XYZ
 ZUNIT=BOHR
 

 Variable memory set to  995000000 words,  buffer space   230000 words

 SETTING BASIS          =    AVTZ


 Recomputing integrals since basis changed


 Using spherical harmonics

 Library entry N      S aug-cc-pVTZ          selected for orbital group  1
 Library entry N      P aug-cc-pVTZ          selected for orbital group  1
 Library entry N      D aug-cc-pVTZ          selected for orbital group  1
 Library entry N      F aug-cc-pVTZ          selected for orbital group  1
 Library entry H      S aug-cc-pVTZ          selected for orbital group  2
 Library entry H      P aug-cc-pVTZ          selected for orbital group  2
 Library entry H      D aug-cc-pVTZ          selected for orbital group  2
 Library entry O      S aug-cc-pVTZ          selected for orbital group  3
 Library entry O      P aug-cc-pVTZ          selected for orbital group  3
 Library entry O      D aug-cc-pVTZ          selected for orbital group  3
 Library entry O      F aug-cc-pVTZ          selected for orbital group  3


 PROGRAM * SEWARD (Integral evaluation for generally contracted gaussian basis sets)     Author: Roland Lindh, 1990

 Geometry written to block  1 of record 700


 Point group  Cs  



 ATOMIC COORDINATES

 NR  ATOM    CHARGE       X              Y              Z

   1  N       7.00    0.000000000   -0.164796398   -1.140507396
   2  H       1.00    0.000000000    1.664534315   -1.918914206
   3  O       8.00    0.000000000    0.042029873    1.108832011

 Bond lengths in Bohr (Angstrom)

 1-2  1.988056342  1-3  2.258828207
     ( 1.052034110)     ( 1.195320411)

 Bond angles

  2-1-3  107.79689599

 NUCLEAR CHARGE:                   16
 NUMBER OF PRIMITIVE AOS:         161
 NUMBER OF SYMMETRY AOS:          141
 NUMBER OF CONTRACTIONS:          115   (  76A'  +  39A"  )
 NUMBER OF CORE ORBITALS:           2   (   2A'  +   0A"  )
 NUMBER OF VALENCE ORBITALS:        9   (   7A'  +   2A"  )


 NUCLEAR REPULSION ENERGY   30.64155525

 Eigenvalues of metric

         1 0.228E-03 0.495E-03 0.177E-02 0.208E-02 0.243E-02 0.339E-02 0.427E-02 0.509E-02
         2 0.381E-02 0.101E-01 0.256E-01 0.369E-01 0.510E-01 0.619E-01 0.798E-01 0.118E+00


 Contracted 2-electron integrals neglected if value below      1.0D-22

       10790064. INTEGRALS WRITTEN OUT IN    2635 BLOCKS ON RECORD 1290 OF FILE 1


 NUMBER OF SORTED TWO-ELECTRON INTEGRALS:   11433631.     BUFFER LENGTH:  32768
 NUMBER OF SEGMENTS:   1  SEGMENT LENGTH:   11433631      RECORD LENGTH: 524288

 Memory used in sort:      11.99 MW

 SORT1 READ    10790064. AND WROTE    10943632. INTEGRALS IN     32 RECORDS. CPU TIME:     0.38 SEC, REAL TIME:     0.53 SEC
 SORT2 READ    10943632. AND WROTE    11433631. INTEGRALS IN      1 RECORDS. CPU TIME:     0.33 SEC, REAL TIME:     0.43 SEC

 FILE SIZES:   FILE 1:   193.0 MBYTE,  FILE 4:   134.3 MBYTE,   TOTAL:    327.2 MBYTE

 OPERATOR DM      FOR CENTER  0  COORDINATES:    0.000000    0.000000    0.000000


 **********************************************************************************************************************************
 DATASETS  * FILE   NREC   LENGTH (MB)   RECORD NAMES
              1      19      111.05       500      610      700      900      950      970     1000      129      960     1100   
                                          VAR    BASINP    GEOM    SYMINP    ZMAT    AOBASIS   BASIS     P2S    ABASIS      S 
                                         1400     1410     1200     1210     1080     1600     1650     1300     1700   
                                           T        V       H0       H01     AOSYM     SMH    MOLCAS    ERIS     OPER   

 PROGRAMS   *        TOTAL       INT
 CPU TIMES  *         2.21      2.11
 REAL TIME  *         3.48 SEC
 DISK USED  *       327.55 MB      
 **********************************************************************************************************************************


 PROGRAM * RHF-SCF (CLOSED SHELL)       Authors: W. Meyer, H.-J. Werner


 NUMBER OF ELECTRONS:       8+    8-
 CONVERGENCE THRESHOLDS:    1.00E-10 (Density)    1.00E-13 (Energy)
 MAX. NUMBER OF ITERATIONS:      500
 INTERPOLATION TYPE:            DIIS
 INTERPOLATION STEPS:              2 (START)      1 (STEP)
 LEVEL SHIFTS:                  0.00 (CLOSED)  0.00 (OPEN) 



 Orbital guess generated from atomic densities. Full valence occupancy:    9   2

 Molecular orbital dump at record        2100.2

 Initial occupancy:   7   1

 ITERATION    DDIFF          GRAD             ENERGY        2-EL.EN.            DIPOLE MOMENTS         DIIS   ORB.
    1      0.000D+00      0.000D+00      -129.79158507    154.385140    0.00000    0.58282   -0.97938    0    start
    2      0.000D+00      0.106D-01      -129.81938298    155.676408    0.00000    0.60295   -0.21311    1    diag
    3      0.116D-01      0.788D-02      -129.84004507    155.759984    0.00000    0.54974   -0.57189    2    diag
    4      0.572D-02      0.126D-02      -129.84080775    155.481851    0.00000    0.55770   -0.51420    3    diag
    5      0.105D-02      0.413D-03      -129.84092850    155.574557    0.00000    0.56324   -0.51721    4    diag
    6      0.440D-03      0.119D-03      -129.84094769    155.559171    0.00000    0.56368   -0.51337    5    diag
    7      0.168D-03      0.583D-04      -129.84095303    155.561800    0.00000    0.56496   -0.51099    6    diag
    8      0.115D-03      0.191D-04      -129.84095355    155.561186    0.00000    0.56499   -0.51009    7    diag
    9      0.403D-04      0.356D-05      -129.84095357    155.561089    0.00000    0.56495   -0.50989    8    diag
   10      0.757D-05      0.831D-06      -129.84095357    155.561070    0.00000    0.56492   -0.50986    9    orth
   11      0.163D-05      0.169D-06      -129.84095357    155.561067    0.00000    0.56491   -0.50986    9    diag
   12      0.326D-06      0.344D-07      -129.84095357    155.561067    0.00000    0.56491   -0.50986    9    diag
   13      0.712D-07      0.850D-08      -129.84095357    155.561067    0.00000    0.56491   -0.50986    9    diag
   14      0.181D-07      0.179D-08      -129.84095357    155.561067    0.00000    0.56491   -0.50986    9    diag
   15      0.372D-08      0.517D-09      -129.84095357    155.561067    0.00000    0.56491   -0.50986    9    diag
   16      0.101D-08      0.148D-09      -129.84095357    155.561067    0.00000    0.56491   -0.50986    9    diag
   17      0.195D-09      0.438D-10      -129.84095357    155.561067    0.00000    0.56491   -0.50986    9    diag
   18      0.568D-10      0.153D-10      -129.84095357    155.561067    0.00000    0.56491   -0.50986    9    diag
   19      0.274D-10      0.345D-11      -129.84095357    155.561067    0.00000    0.56491   -0.50986    9    fixocc
   20      0.676D-11      0.539D-12      -129.84095357    155.561067    0.00000    0.56491   -0.50986    0    orth

 Final occupancy:   7   1

 !RHF STATE 1.1 Energy               -129.840953568898
 Nuclear energy                        30.64155525
 One-electron energy                 -238.26304216
 Two-electron energy                   77.78053334
 Virial quotient                       -1.00174811
 !RHF STATE 1.1 Dipole moment           0.00000000     0.56491145    -0.50985719
 Dipole moment /Debye                   0.00000000     1.43576764    -1.29584285

 Orbital energies:

         1.1          2.1          3.1          4.1          5.1          6.1          7.1          8.1          9.1
    -20.655229   -15.712360    -1.541477    -0.991845    -0.751251    -0.669665    -0.426782     0.029394     0.092234

         1.2          2.2          3.2
     -0.602379     0.068423     0.130575

 HOMO      7.1    -0.426782 =     -11.6133eV
 LUMO      8.1     0.029394 =       0.7999eV
 LUMO-HOMO         0.456176 =      12.4132eV


 **********************************************************************************************************************************
 DATASETS  * FILE   NREC   LENGTH (MB)   RECORD NAMES
              1      19      111.05       500      610      700      900      950      970     1000      129      960     1100   
                                          VAR    BASINP    GEOM    SYMINP    ZMAT    AOBASIS   BASIS     P2S    ABASIS      S 
                                         1400     1410     1200     1210     1080     1600     1650     1300     1700   
                                           T        V       H0       H01     AOSYM     SMH    MOLCAS    ERIS     OPER   

              2       4        2.94       700     1000      520     2100   
                                         GEOM     BASIS   MCVARS     RHF  

 PROGRAMS   *        TOTAL        HF       INT
 CPU TIMES  *         3.80      1.59      2.11
 REAL TIME  *         5.63 SEC
 DISK USED  *       327.55 MB      
 **********************************************************************************************************************************


 PROGRAM * CCSD (Closed-shell coupled cluster)     Authors: C. Hampel, H.-J. Werner, 1991, M. Deegan, P.J. Knowles, 1992


 Convergence thresholds:  THRVAR = 1.00D-08  THRDEN = 1.00D-12

 CCSD(T)     terms to be evaluated (factor= 1.000)


 Number of core orbitals:           2 (   2   0 )
 Number of closed-shell orbitals:   6 (   5   1 )
 Number of external orbitals:     107 (  69  38 )

 Molecular orbitals read from record     2100.2  Type=RHF/CANONICAL (state 1.1)

 Number of N-1 electron functions:               6
 Number of N-2 electron functions:              21
 Number of singly external CSFs:               383
 Number of doubly external CSFs:            107206
 Total number of CSFs:                      107590

 Length of J-op  integral file:               0.00 MB
 Length of K-op  integral file:               0.54 MB
 Length of 3-ext integral record:             0.00 MB

 Memory could be reduced to 5.94 Mwords without degradation in triples

 Integral transformation finished. Total CPU:   0.30 sec, npass=  1  Memory used:   1.65 MW

 Reference energy:                   -129.84095357

 MP2 singlet pair energy:              -0.27812143
 MP2 triplet pair energy:              -0.16430394
 MP2 correlation energy:               -0.44242538
 MP2 total energy:                   -130.28337895

 SCS-MP2 correlation energy:           -0.43597929   (PS=  1.200000  PT=  0.333333)
 SCS-MP2 total energy:               -130.27693285

 ITER.      SQ.NORM     CORR.ENERGY   TOTAL ENERGY   ENERGY CHANGE        DEN1      VAR(S)    VAR(P)  DIIS     TIME  TIME/IT
   1      1.11956479    -0.44701515  -130.28796872    -0.00458977     0.01095189  0.30D-02  0.30D-02  1  1     0.59     0.30
   2      1.13037599    -0.44730726  -130.28826082    -0.00029211    -0.01213885  0.94D-04  0.49D-03  2  2     0.88     0.31
   3      1.13659752    -0.44768581  -130.28863938    -0.00037855    -0.00291719  0.50D-04  0.48D-04  3  3     1.16     0.32
   4      1.13932931    -0.44769672  -130.28865029    -0.00001091    -0.00093449  0.38D-05  0.87D-05  4  4     1.46     0.32
   5      1.14030136    -0.44772318  -130.28867675    -0.00002646    -0.00020642  0.11D-05  0.16D-05  5  5     1.74     0.32
   6      1.14062419    -0.44770781  -130.28866138     0.00001537    -0.00003911  0.96D-07  0.39D-06  6  6     2.01     0.32
   7      1.14069800    -0.44770876  -130.28866233    -0.00000096    -0.00000211  0.19D-07  0.88D-07  6  1     2.30     0.32
   8      1.14071914    -0.44770953  -130.28866310    -0.00000077     0.00000146  0.37D-08  0.15D-07  6  2     2.58     0.32
   9      1.14072428    -0.44770912  -130.28866269     0.00000041     0.00000039  0.25D-08  0.16D-08  6  4     2.87     0.32
  10      1.14072638    -0.44770958  -130.28866315    -0.00000045    -0.00000064  0.40D-09  0.19D-09  6  3     3.16     0.32
  11      1.14072585    -0.44770960  -130.28866317    -0.00000003    -0.00000005  0.14D-09  0.29D-10  6  5     3.44     0.32
  12      1.14072485    -0.44770974  -130.28866331    -0.00000014     0.00000032  0.16D-10  0.93D-11  6  6     3.70     0.32
  13      1.14072407    -0.44770977  -130.28866334    -0.00000003     0.00000020  0.57D-11  0.19D-11  6  1     3.96     0.32
  14      1.14072358    -0.44770980  -130.28866337    -0.00000003     0.00000013  0.93D-12  0.59D-12  6  2     4.24     0.32
  15      1.14072337    -0.44770981  -130.28866338    -0.00000001     0.00000003  0.25D-12  0.19D-12  6  4     4.50     0.32
  16      1.14072326    -0.44770981  -130.28866338    -0.00000000     0.00000001  0.33D-13  0.22D-13  6  5     4.77     0.32
  17      1.14072323    -0.44770981  -130.28866338    -0.00000000     0.00000000  0.63D-15  0.16D-14  6  3     5.06     0.32
  18      1.14072323    -0.44770981  -130.28866338     0.00000000    -0.00000000  0.22D-15  0.22D-15  6  6     5.34     0.32
  19      1.14072323    -0.44770981  -130.28866338     0.00000000    -0.00000000  0.64D-16  0.32D-16  6  1     5.60     0.32
  20      1.14072323    -0.44770981  -130.28866338     0.00000000    -0.00000000  0.17D-16  0.57D-17  6  2     5.86     0.31
  21      1.14072323    -0.44770981  -130.28866338     0.00000000    -0.00000000  0.28D-17  0.15D-17  6  5     6.12     0.31
  22      1.14072323    -0.44770981  -130.28866338    -0.00000000     0.00000000  0.29D-18  0.17D-18  6  4     6.37     0.31
  23      1.14072323    -0.44770981  -130.28866338     0.00000000     0.00000000  0.11D-18  0.36D-19  6  3     6.63     0.31
  24      1.14072323    -0.44770981  -130.28866338     0.00000000    -0.00000000  0.11D-19  0.49D-20  6  2     6.87     0.31
  25      1.14072323    -0.44770981  -130.28866338     0.00000000    -0.00000000  0.18D-20  0.78D-21  6  6     7.13     0.31
  26      1.14072323    -0.44770981  -130.28866338     0.00000000    -0.00000000  0.42D-21  0.19D-21  6  1     7.36     0.31

 Norm of t1 vector:      0.07631448      S-energy:     0.00000000      T1 diagnostic:  0.01557763
                                                                       D1 diagnostic:  0.04039222

 Doubles amplitudes (print threshold =  0.500E-01):

         I         J         SYM. A    SYM. B    A         B      T(IJ, AB)

         6         6         2         2         1         1     -0.10321215


 Total CPU time for triples:      2.35 sec


 RESULTS
 =======

  Reference energy                   -129.840953568898
  CCSD singlet pair energy             -0.306680082466
  CCSD triplet pair energy             -0.141029727301
  CCSD correlation energy              -0.447709809766

  Triples (T) contribution             -0.020521684608
  Total correlation energy             -0.468231494374

  CCSD total energy                  -130.288663378664
  CCSD[T] energy                     -130.310196513322
  CCSD-T energy                      -130.308794069463
 !CCSD(T) total energy               -130.309185063271

 Timing summary (sec):

 STEP                 CPU(USER)    SYS     CPU(TOT)    WALL
 Transformation          0.31      0.06      0.37      0.37
 CCSD iterations         7.06      0.95      8.01      8.01
 Triples                 2.35      0.09      2.44      2.44

 Program statistics:

 Available memory in ccsd:               994999756
 Min. memory needed in ccsd:                389120
 Max. memory used in ccsd:                  473124
 Max. memory used in cckext:                599488 (26 integral passes)



 **********************************************************************************************************************************
 DATASETS  * FILE   NREC   LENGTH (MB)   RECORD NAMES
              1      20      128.20       500      610      700      900      950      970     1000      129      960     1100   
                                          VAR    BASINP    GEOM    SYMINP    ZMAT    AOBASIS   BASIS     P2S    ABASIS      S 
                                         1400     1410     1200     1210     1080     1600     1650     1300     1700     1380   
                                           T        V       H0       H01     AOSYM     SMH    MOLCAS    ERIS     OPER     JKOP   

              2       4        2.94       700     1000      520     2100   
                                         GEOM     BASIS   MCVARS     RHF  

 PROGRAMS   *        TOTAL   CCSD(T)        HF       INT
 CPU TIMES  *        13.54      9.74      1.59      2.11
 REAL TIME  *        16.50 SEC
 DISK USED  *       327.55 MB      
 **********************************************************************************************************************************

 CCSD(T)/aug-cc-pVTZ energy=   -130.309185063271

        CCSD(T)         HF-SCF  
   -130.30918506   -129.84095357
 **********************************************************************************************************************************
 Molpro calculation terminated
 Variable memory released
