
 Primary working directories    : /tmp/r2666/234906.maple
 Secondary working directories  : /tmp/r2666/234906.maple
 Wavefunction directory         : /ddn/home4/r2666/wfu/
 Main file repository           : /tmp/r2666/234906.maple/

 SHA1      : d5ffa45e93fdbca01ffc919aa182cfdae0147319
 NAME      : 2015.1.35
 ARCHNAME  : linux/x86_64
 FC        : /opt/intel/composer_xe_2015.1.133/bin/intel64/ifort
 BLASLIB   : -Wl,-_start-group /opt/intel/mkl/lib/intel64/libmkl_intel_ilp64.a /opt/intel/mkl/lib/intel64/libmkl_intel_thread.a /opt/intel/mkl/lib/intel64/libmkl_core.a -Wl,-_end-group
 id        : olemiss

 Nodes     nprocs
 cn035        1

 Using customized tuning parameters: mindgm=1; mindgv=20; mindgc=4; mindgr=1; noblas=0; minvec=7
 default implementation of scratch files=df  

 ***,hno CCSD(T)/TZ-F12 QFF
 memory, 995, m;
 gthresh,energy=1.d-12,zero=1.d-22,oneint=1.d-22,twoint=1.d-22;
 gthresh,optgrad=1.d-8,optstep=1.d-8;
 nocompress;
 geomtyp=xyz
 bohr
 geometry={
 3
         20        20
 N        0.0000000000       -0.1481600244       -1.1562031038
 H        0.0000000000        1.6601252549       -1.9357490228
 O        0.0000000000        0.0298025595        1.1413625356
 }
 
 basis=avtz
   {hf,maxit=500;accu,20;}
 {ccsd(t),nocheck,maxit=250;orbital,IGNORE_ERROR;}

 Variables initialized (889), CPU time= 0.01 sec
 Commands  initialized (702), CPU time= 0.00 sec, 572 directives.
 Default parameters read. Elapsed time= 0.04 sec

 Checking input...
 Passed
1


                                         ***  PROGRAM SYSTEM MOLPRO  ***
                                       Copyright, TTI GmbH Stuttgart, 2015
                                    Version 2015.1 linked Jul  9 2018 13:16:40


 **********************************************************************************************************************************
 LABEL *   hno CCSD(T)/TZ-F12 QFF                                                        
  64 bit serial version                                                                  DATE: 08-Feb-20          TIME: 17:56:02  
 **********************************************************************************************************************************

 SHA1:             d5ffa45e93fdbca01ffc919aa182cfdae0147319
 **********************************************************************************************************************************

 THRESHOLDS:

 ZERO    =  1.00D-22  ONEINT  =  1.00D-22  TWOINT  =  1.00D-22  PREFAC  =  1.00D-14  LOCALI  =  1.00D-09  EORDER  =  1.00D-04
 ENERGY  =  1.00D-12  ETEST   =  0.00D+00  EDENS   =  0.00D+00  THRDEDEF=  1.00D-06  GRADIENT=  1.00D-02  STEP    =  1.00D-03
 ORBITAL =  1.00D-05  CIVEC   =  1.00D-05  COEFF   =  1.00D-04  PRINTCI =  5.00D-02  PUNCHCI =  9.90D+01  OPTGRAD =  3.00D-04
 OPTENERG=  1.00D-06  OPTSTEP =  3.00D-04  THRGRAD =  1.00D-10  COMPRESS=  1.00D-11  VARMIN  =  1.00D-07  VARMAX  =  1.00D-03
 THRDOUB =  0.00D+00  THRDIV  =  1.00D-05  THRRED  =  1.00D-07  THRPSP  =  1.00D+00  THRDC   =  1.00D-10  THRCS   =  1.00D-10
 THRNRM  =  1.00D-08  THREQ   =  0.00D+00  THRDE   =  1.00D+00  THRREF  =  1.00D-05  SPARFAC =  1.00D+00  THRDLP  =  1.00D-07
 THRDIA  =  1.00D-10  THRDLS  =  1.00D-07  THRGPS  =  0.00D+00  THRKEX  =  0.00D+00  THRDIS  =  2.00D-01  THRVAR  =  1.00D-10
 THRLOC  =  1.00D-06  THRGAP  =  1.00D-06  THRLOCT = -1.00D+00  THRGAPT = -1.00D+00  THRORB  =  1.00D-06  THRMLTP =  0.00D+00
 THRCPQCI=  1.00D-10  KEXTA   =  0.00D+00  THRCOARS=  0.00D+00  SYMTOL  =  1.00D-06  GRADTOL =  1.00D-06  THROVL  =  1.00D-08
 THRORTH =  1.00D-08  GRID    =  1.00D-06  GRIDMAX =  1.00D-03  DTMAX   =  0.00D+00  THROCCDE=  1.00D-01  THROCCDE=  1.00D-01



 THRESHOLDS:

 ZERO    =  1.00D-22  ONEINT  =  1.00D-22  TWOINT  =  1.00D-22  PREFAC  =  1.00D-14  LOCALI  =  1.00D-09  EORDER  =  1.00D-04
 ENERGY  =  1.00D-12  ETEST   =  0.00D+00  EDENS   =  0.00D+00  THRDEDEF=  1.00D-06  GRADIENT=  1.00D-02  STEP    =  1.00D-03
 ORBITAL =  1.00D-05  CIVEC   =  1.00D-05  COEFF   =  1.00D-04  PRINTCI =  5.00D-02  PUNCHCI =  9.90D+01  OPTGRAD =  1.00D-08
 OPTENERG=  1.00D-06  OPTSTEP =  1.00D-08  THRGRAD =  1.00D-10  COMPRESS=  1.00D-11  VARMIN  =  1.00D-07  VARMAX  =  1.00D-03
 THRDOUB =  0.00D+00  THRDIV  =  1.00D-05  THRRED  =  1.00D-07  THRPSP  =  1.00D+00  THRDC   =  1.00D-10  THRCS   =  1.00D-10
 THRNRM  =  1.00D-08  THREQ   =  0.00D+00  THRDE   =  1.00D+00  THRREF  =  1.00D-05  SPARFAC =  1.00D+00  THRDLP  =  1.00D-07
 THRDIA  =  1.00D-10  THRDLS  =  1.00D-07  THRGPS  =  0.00D+00  THRKEX  =  0.00D+00  THRDIS  =  2.00D-01  THRVAR  =  1.00D-10
 THRLOC  =  1.00D-06  THRGAP  =  1.00D-06  THRLOCT = -1.00D+00  THRGAPT = -1.00D+00  THRORB  =  1.00D-06  THRMLTP =  0.00D+00
 THRCPQCI=  1.00D-10  KEXTA   =  0.00D+00  THRCOARS=  0.00D+00  SYMTOL  =  1.00D-06  GRADTOL =  1.00D-06  THROVL  =  1.00D-08
 THRORTH =  1.00D-08  GRID    =  1.00D-06  GRIDMAX =  1.00D-03  DTMAX   =  0.00D+00  THROCCDE=  1.00D-01  THROCCDE=  1.00D-01



 Input parameters for SORTINT:

 COMPRESS =    0.000000
 C_FINAL  =    1.000000
 DEBUG    =   -1.000000
 C_SORT1  =    0.000000
 C_SEWARD =    0.000000
 THRESH   =    0.000000
 IO       =  molpro                                                          
 SPRI     =    0.000000
 SETTING GEOMTYP        =    XYZ
 ZUNIT=BOHR
 

 Variable memory set to  995000000 words,  buffer space   230000 words

 SETTING BASIS          =    AVTZ


 Recomputing integrals since basis changed


 Using spherical harmonics

 Library entry N      S aug-cc-pVTZ          selected for orbital group  1
 Library entry N      P aug-cc-pVTZ          selected for orbital group  1
 Library entry N      D aug-cc-pVTZ          selected for orbital group  1
 Library entry N      F aug-cc-pVTZ          selected for orbital group  1
 Library entry H      S aug-cc-pVTZ          selected for orbital group  2
 Library entry H      P aug-cc-pVTZ          selected for orbital group  2
 Library entry H      D aug-cc-pVTZ          selected for orbital group  2
 Library entry O      S aug-cc-pVTZ          selected for orbital group  3
 Library entry O      P aug-cc-pVTZ          selected for orbital group  3
 Library entry O      D aug-cc-pVTZ          selected for orbital group  3
 Library entry O      F aug-cc-pVTZ          selected for orbital group  3


 PROGRAM * SEWARD (Integral evaluation for generally contracted gaussian basis sets)     Author: Roland Lindh, 1990

 Geometry written to block  1 of record 700


 Point group  Cs  



 ATOMIC COORDINATES

 NR  ATOM    CHARGE       X              Y              Z

   1  N       7.00    0.000000000   -0.148160024   -1.156203104
   2  H       1.00    0.000000000    1.660125255   -1.935749023
   3  O       8.00    0.000000000    0.029802559    1.141362536

 Bond lengths in Bohr (Angstrom)

 1-2  1.969159082  1-3  2.304447558
     ( 1.042034111)     ( 1.219461132)

 Bond angles

  2-1-3  108.89160056

 NUCLEAR CHARGE:                   16
 NUMBER OF PRIMITIVE AOS:         161
 NUMBER OF SYMMETRY AOS:          141
 NUMBER OF CONTRACTIONS:          115   (  76A'  +  39A"  )
 NUMBER OF CORE ORBITALS:           2   (   2A'  +   0A"  )
 NUMBER OF VALENCE ORBITALS:        9   (   7A'  +   2A"  )


 NUCLEAR REPULSION ENERGY   30.15296956

 Eigenvalues of metric

         1 0.234E-03 0.497E-03 0.183E-02 0.213E-02 0.262E-02 0.375E-02 0.431E-02 0.509E-02
         2 0.407E-02 0.991E-02 0.266E-01 0.369E-01 0.512E-01 0.619E-01 0.826E-01 0.121E+00


 Contracted 2-electron integrals neglected if value below      1.0D-22

       10790064. INTEGRALS WRITTEN OUT IN    2635 BLOCKS ON RECORD 1290 OF FILE 1


 NUMBER OF SORTED TWO-ELECTRON INTEGRALS:   11433631.     BUFFER LENGTH:  32768
 NUMBER OF SEGMENTS:   1  SEGMENT LENGTH:   11433631      RECORD LENGTH: 524288

 Memory used in sort:      11.99 MW

 SORT1 READ    10790064. AND WROTE    10943632. INTEGRALS IN     32 RECORDS. CPU TIME:     0.29 SEC, REAL TIME:     0.36 SEC
 SORT2 READ    10943632. AND WROTE    11433631. INTEGRALS IN      1 RECORDS. CPU TIME:     0.19 SEC, REAL TIME:     0.26 SEC

 FILE SIZES:   FILE 1:   193.0 MBYTE,  FILE 4:   134.3 MBYTE,   TOTAL:    327.2 MBYTE

 OPERATOR DM      FOR CENTER  0  COORDINATES:    0.000000    0.000000    0.000000


 **********************************************************************************************************************************
 DATASETS  * FILE   NREC   LENGTH (MB)   RECORD NAMES
              1      19      111.05       500      610      700      900      950      970     1000      129      960     1100   
                                          VAR    BASINP    GEOM    SYMINP    ZMAT    AOBASIS   BASIS     P2S    ABASIS      S 
                                         1400     1410     1200     1210     1080     1600     1650     1300     1700   
                                           T        V       H0       H01     AOSYM     SMH    MOLCAS    ERIS     OPER   

 PROGRAMS   *        TOTAL       INT
 CPU TIMES  *         1.65      1.56
 REAL TIME  *         2.51 SEC
 DISK USED  *       327.55 MB      
 **********************************************************************************************************************************


 PROGRAM * RHF-SCF (CLOSED SHELL)       Authors: W. Meyer, H.-J. Werner


 NUMBER OF ELECTRONS:       8+    8-
 CONVERGENCE THRESHOLDS:    1.00E-10 (Density)    1.00E-13 (Energy)
 MAX. NUMBER OF ITERATIONS:      500
 INTERPOLATION TYPE:            DIIS
 INTERPOLATION STEPS:              2 (START)      1 (STEP)
 LEVEL SHIFTS:                  0.00 (CLOSED)  0.00 (OPEN) 



 Orbital guess generated from atomic densities. Full valence occupancy:    9   2

 Molecular orbital dump at record        2100.2

 Initial occupancy:   7   1

 ITERATION    DDIFF          GRAD             ENERGY        2-EL.EN.            DIPOLE MOMENTS         DIIS   ORB.
    1      0.000D+00      0.000D+00      -129.78575557    153.512293    0.00000    0.60941   -1.05808    0    start
    2      0.000D+00      0.108D-01      -129.81281832    154.748610    0.00000    0.61789   -0.21072    1    diag
    3      0.121D-01      0.845D-02      -129.83686271    154.888532    0.00000    0.56839   -0.61320    2    diag
    4      0.607D-02      0.130D-02      -129.83767876    154.592304    0.00000    0.57527   -0.55122    3    diag
    5      0.109D-02      0.426D-03      -129.83780696    154.686731    0.00000    0.58078   -0.55384    4    diag
    6      0.455D-03      0.122D-03      -129.83782727    154.671156    0.00000    0.58112   -0.54959    5    diag
    7      0.173D-03      0.612D-04      -129.83783329    154.673508    0.00000    0.58231   -0.54688    6    diag
    8      0.120D-03      0.216D-04      -129.83783400    154.672826    0.00000    0.58233   -0.54580    7    diag
    9      0.479D-04      0.413D-05      -129.83783403    154.672711    0.00000    0.58228   -0.54557    8    diag
   10      0.943D-05      0.923D-06      -129.83783403    154.672692    0.00000    0.58225   -0.54554    9    orth
   11      0.182D-05      0.180D-06      -129.83783403    154.672690    0.00000    0.58224   -0.54554    9    diag
   12      0.338D-06      0.378D-07      -129.83783403    154.672689    0.00000    0.58224   -0.54554    9    diag
   13      0.719D-07      0.984D-08      -129.83783403    154.672689    0.00000    0.58224   -0.54554    9    diag
   14      0.194D-07      0.203D-08      -129.83783403    154.672689    0.00000    0.58224   -0.54554    9    diag
   15      0.371D-08      0.561D-09      -129.83783403    154.672689    0.00000    0.58224   -0.54554    9    diag
   16      0.103D-08      0.148D-09      -129.83783403    154.672689    0.00000    0.58224   -0.54554    9    diag
   17      0.168D-09      0.393D-10      -129.83783403    154.672689    0.00000    0.58224   -0.54554    9    diag
   18      0.461D-10      0.135D-10      -129.83783403    154.672689    0.00000    0.58224   -0.54554    9    diag
   19      0.230D-10      0.286D-11      -129.83783403    154.672689    0.00000    0.58224   -0.54554    9    fixocc
   20      0.549D-11      0.426D-12      -129.83783403    154.672689    0.00000    0.58224   -0.54554    0    orth

 Final occupancy:   7   1

 !RHF STATE 1.1 Energy               -129.837834034564
 Nuclear energy                        30.15296956
 One-electron energy                 -237.32714829
 Two-electron energy                   77.33634469
 Virial quotient                       -1.00239388
 !RHF STATE 1.1 Dipole moment           0.00000000     0.58224270    -0.54553764
 Dipole moment /Debye                   0.00000000     1.47981641    -1.38652756

 Orbital energies:

         1.1          2.1          3.1          4.1          5.1          6.1          7.1          8.1          9.1
    -20.657685   -15.714987    -1.521256    -1.000745    -0.744941    -0.662954    -0.434043     0.028972     0.092084

         1.2          2.2          3.2
     -0.590620     0.061528     0.129705

 HOMO      7.1    -0.434043 =     -11.8109eV
 LUMO      8.1     0.028972 =       0.7884eV
 LUMO-HOMO         0.463015 =      12.5993eV


 **********************************************************************************************************************************
 DATASETS  * FILE   NREC   LENGTH (MB)   RECORD NAMES
              1      19      111.05       500      610      700      900      950      970     1000      129      960     1100   
                                          VAR    BASINP    GEOM    SYMINP    ZMAT    AOBASIS   BASIS     P2S    ABASIS      S 
                                         1400     1410     1200     1210     1080     1600     1650     1300     1700   
                                           T        V       H0       H01     AOSYM     SMH    MOLCAS    ERIS     OPER   

              2       4        2.94       700     1000      520     2100   
                                         GEOM     BASIS   MCVARS     RHF  

 PROGRAMS   *        TOTAL        HF       INT
 CPU TIMES  *         2.81      1.16      1.56
 REAL TIME  *         4.02 SEC
 DISK USED  *       327.55 MB      
 **********************************************************************************************************************************


 PROGRAM * CCSD (Closed-shell coupled cluster)     Authors: C. Hampel, H.-J. Werner, 1991, M. Deegan, P.J. Knowles, 1992


 Convergence thresholds:  THRVAR = 1.00D-08  THRDEN = 1.00D-12

 CCSD(T)     terms to be evaluated (factor= 1.000)


 Number of core orbitals:           2 (   2   0 )
 Number of closed-shell orbitals:   6 (   5   1 )
 Number of external orbitals:     107 (  69  38 )

 Molecular orbitals read from record     2100.2  Type=RHF/CANONICAL (state 1.1)

 Number of N-1 electron functions:               6
 Number of N-2 electron functions:              21
 Number of singly external CSFs:               383
 Number of doubly external CSFs:            107206
 Total number of CSFs:                      107590

 Length of J-op  integral file:               0.00 MB
 Length of K-op  integral file:               0.54 MB
 Length of 3-ext integral record:             0.00 MB

 Memory could be reduced to 5.94 Mwords without degradation in triples

 Integral transformation finished. Total CPU:   0.17 sec, npass=  1  Memory used:   1.65 MW

 Reference energy:                   -129.83783403

 MP2 singlet pair energy:              -0.28042832
 MP2 triplet pair energy:              -0.16586646
 MP2 correlation energy:               -0.44629478
 MP2 total energy:                   -130.28412881

 SCS-MP2 correlation energy:           -0.43971978   (PS=  1.200000  PT=  0.333333)
 SCS-MP2 total energy:               -130.27755382

 ITER.      SQ.NORM     CORR.ENERGY   TOTAL ENERGY   ENERGY CHANGE        DEN1      VAR(S)    VAR(P)  DIIS     TIME  TIME/IT
   1      1.12190231    -0.44997881  -130.28781285    -0.00368403     0.01280413  0.33D-02  0.33D-02  1  1     0.37     0.21
   2      1.13326825    -0.45008723  -130.28792126    -0.00010841    -0.01268596  0.11D-03  0.53D-03  2  2     0.57     0.21
   3      1.13997251    -0.45050311  -130.28833714    -0.00041588    -0.00306222  0.57D-04  0.54D-04  3  3     0.77     0.22
   4      1.14300203    -0.45051633  -130.28835036    -0.00001322    -0.00101194  0.45D-05  0.97D-05  4  4     0.98     0.22
   5      1.14412542    -0.45054699  -130.28838103    -0.00003066    -0.00023653  0.11D-05  0.17D-05  5  5     1.17     0.22
   6      1.14448748    -0.45052854  -130.28836258     0.00001845    -0.00004449  0.98D-07  0.41D-06  6  6     1.37     0.22
   7      1.14456266    -0.45053013  -130.28836416    -0.00000159    -0.00000135  0.17D-07  0.99D-07  6  1     1.57     0.22
   8      1.14458419    -0.45053076  -130.28836479    -0.00000063     0.00000170  0.37D-08  0.18D-07  6  2     1.76     0.22
   9      1.14459305    -0.45053015  -130.28836418     0.00000061    -0.00000091  0.28D-08  0.19D-08  6  3     1.95     0.22
  10      1.14459322    -0.45053069  -130.28836472    -0.00000054    -0.00000002  0.56D-09  0.28D-09  6  4     2.16     0.22
  11      1.14459154    -0.45053081  -130.28836485    -0.00000012     0.00000054  0.16D-09  0.36D-10  6  5     2.36     0.22
  12      1.14459017    -0.45053101  -130.28836505    -0.00000020     0.00000044  0.17D-10  0.99D-11  6  6     2.57     0.22
  13      1.14458940    -0.45053104  -130.28836507    -0.00000002     0.00000018  0.58D-11  0.19D-11  6  1     2.76     0.22
  14      1.14458894    -0.45053106  -130.28836509    -0.00000002     0.00000010  0.86D-12  0.63D-12  6  2     2.97     0.22
  15      1.14458874    -0.45053106  -130.28836510    -0.00000001     0.00000002  0.25D-12  0.19D-12  6  3     3.17     0.22
  16      1.14458865    -0.45053107  -130.28836510    -0.00000000     0.00000001  0.41D-13  0.68D-13  6  4     3.38     0.22
  17      1.14458859    -0.45053107  -130.28836510    -0.00000000     0.00000001  0.29D-14  0.15D-13  6  5     3.57     0.22
  18      1.14458858    -0.45053107  -130.28836510     0.00000000     0.00000000  0.13D-14  0.35D-14  6  6     3.77     0.22
  19      1.14458858    -0.45053107  -130.28836510     0.00000000    -0.00000000  0.16D-15  0.25D-15  6  5     3.97     0.22
  20      1.14458858    -0.45053107  -130.28836510    -0.00000000    -0.00000000  0.67D-16  0.43D-16  6  1     4.18     0.22
  21      1.14458858    -0.45053107  -130.28836510     0.00000000     0.00000000  0.15D-16  0.94D-17  6  2     4.39     0.23
  22      1.14458858    -0.45053107  -130.28836510    -0.00000000     0.00000000  0.41D-17  0.11D-17  6  3     4.60     0.23
  23      1.14458858    -0.45053107  -130.28836510     0.00000000     0.00000000  0.10D-17  0.34D-18  6  4     4.81     0.23
  24      1.14458858    -0.45053107  -130.28836510    -0.00000000     0.00000000  0.29D-18  0.65D-19  6  6     5.02     0.23
  25      1.14458858    -0.45053107  -130.28836510     0.00000000    -0.00000000  0.47D-19  0.31D-19  6  5     5.22     0.23
  26      1.14458858    -0.45053107  -130.28836510     0.00000000    -0.00000000  0.66D-20  0.12D-19  6  1     5.41     0.23
  27      1.14458858    -0.45053107  -130.28836510    -0.00000000    -0.00000000  0.32D-21  0.16D-20  6  3     5.59     0.23
  28      1.14458858    -0.45053107  -130.28836510     0.00000000     0.00000000  0.82D-22  0.21D-21  6  2     5.80     0.23

 Norm of t1 vector:      0.08015144      S-energy:     0.00000000      T1 diagnostic:  0.01636084
                                                                       D1 diagnostic:  0.04370890

 Doubles amplitudes (print threshold =  0.500E-01):

         I         J         SYM. A    SYM. B    A         B      T(IJ, AB)

         6         6         2         2         1         1     -0.11405754


 Total CPU time for triples:      1.66 sec


 RESULTS
 =======

  Reference energy                   -129.837834034563
  CCSD singlet pair energy             -0.309114922144
  CCSD triplet pair energy             -0.141416147533
  CCSD correlation energy              -0.450531069676

  Triples (T) contribution             -0.021217876562
  Total correlation energy             -0.471748946238

  CCSD total energy                  -130.288365104239
  CCSD[T] energy                     -130.310694788495
  CCSD-T energy                      -130.309169628009
 !CCSD(T) total energy               -130.309582980801

 Timing summary (sec):

 STEP                 CPU(USER)    SYS     CPU(TOT)    WALL
 Transformation          0.18      0.05      0.23      0.23
 CCSD iterations         5.62      0.71      6.33      6.35
 Triples                 1.66      0.06      1.72      1.72

 Program statistics:

 Available memory in ccsd:               994999756
 Min. memory needed in ccsd:                389120
 Max. memory used in ccsd:                  473124
 Max. memory used in cckext:                599488 (28 integral passes)



 **********************************************************************************************************************************
 DATASETS  * FILE   NREC   LENGTH (MB)   RECORD NAMES
              1      20      128.20       500      610      700      900      950      970     1000      129      960     1100   
                                          VAR    BASINP    GEOM    SYMINP    ZMAT    AOBASIS   BASIS     P2S    ABASIS      S 
                                         1400     1410     1200     1210     1080     1600     1650     1300     1700     1380   
                                           T        V       H0       H01     AOSYM     SMH    MOLCAS    ERIS     OPER     JKOP   

              2       4        2.94       700     1000      520     2100   
                                         GEOM     BASIS   MCVARS     RHF  

 PROGRAMS   *        TOTAL   CCSD(T)        HF       INT
 CPU TIMES  *        10.30      7.49      1.16      1.56
 REAL TIME  *        12.36 SEC
 DISK USED  *       327.55 MB      
 **********************************************************************************************************************************

 CCSD(T)/aug-cc-pVTZ energy=   -130.309582980801

        CCSD(T)         HF-SCF  
   -130.30958298   -129.83783403
 **********************************************************************************************************************************
 Molpro calculation terminated
 Variable memory released
