
 Primary working directories    : /tmp/r2666/234975.maple
 Secondary working directories  : /tmp/r2666/234975.maple
 Wavefunction directory         : /ddn/home4/r2666/wfu/
 Main file repository           : /tmp/r2666/234975.maple/

 SHA1      : d5ffa45e93fdbca01ffc919aa182cfdae0147319
 NAME      : 2015.1.35
 ARCHNAME  : linux/x86_64
 FC        : /opt/intel/composer_xe_2015.1.133/bin/intel64/ifort
 BLASLIB   : -Wl,-_start-group /opt/intel/mkl/lib/intel64/libmkl_intel_ilp64.a /opt/intel/mkl/lib/intel64/libmkl_intel_thread.a /opt/intel/mkl/lib/intel64/libmkl_core.a -Wl,-_end-group
 id        : olemiss

 Nodes     nprocs
 cn047        1

 Using customized tuning parameters: mindgm=1; mindgv=20; mindgc=4; mindgr=1; noblas=0; minvec=7
 default implementation of scratch files=df  

 ***,hno CCSD(T)/TZ-F12 QFF
 memory, 995, m;
 gthresh,energy=1.d-12,zero=1.d-22,oneint=1.d-22,twoint=1.d-22;
 gthresh,optgrad=1.d-8,optstep=1.d-8;
 nocompress;
 geomtyp=xyz
 bohr
 geometry={
 3
         89        89
 N        0.0000000000       -0.1717957784       -1.1468134723
 H        0.0000000000        1.6699623977       -1.9200876371
 O        0.0000000000        0.0436011708        1.1163115184
 }
 
 basis=avtz
   {hf,maxit=500;accu,20;}
 {ccsd(t),nocheck,maxit=250;orbital,IGNORE_ERROR;}

 Variables initialized (889), CPU time= 0.01 sec
 Commands  initialized (702), CPU time= 0.00 sec, 572 directives.
 Default parameters read. Elapsed time= 0.05 sec

 Checking input...
 Passed
1


                                         ***  PROGRAM SYSTEM MOLPRO  ***
                                       Copyright, TTI GmbH Stuttgart, 2015
                                    Version 2015.1 linked Jul  9 2018 13:16:40


 **********************************************************************************************************************************
 LABEL *   hno CCSD(T)/TZ-F12 QFF                                                        
  64 bit serial version                                                                  DATE: 08-Feb-20          TIME: 17:56:40  
 **********************************************************************************************************************************

 SHA1:             d5ffa45e93fdbca01ffc919aa182cfdae0147319
 **********************************************************************************************************************************

 THRESHOLDS:

 ZERO    =  1.00D-22  ONEINT  =  1.00D-22  TWOINT  =  1.00D-22  PREFAC  =  1.00D-14  LOCALI  =  1.00D-09  EORDER  =  1.00D-04
 ENERGY  =  1.00D-12  ETEST   =  0.00D+00  EDENS   =  0.00D+00  THRDEDEF=  1.00D-06  GRADIENT=  1.00D-02  STEP    =  1.00D-03
 ORBITAL =  1.00D-05  CIVEC   =  1.00D-05  COEFF   =  1.00D-04  PRINTCI =  5.00D-02  PUNCHCI =  9.90D+01  OPTGRAD =  3.00D-04
 OPTENERG=  1.00D-06  OPTSTEP =  3.00D-04  THRGRAD =  1.00D-10  COMPRESS=  1.00D-11  VARMIN  =  1.00D-07  VARMAX  =  1.00D-03
 THRDOUB =  0.00D+00  THRDIV  =  1.00D-05  THRRED  =  1.00D-07  THRPSP  =  1.00D+00  THRDC   =  1.00D-10  THRCS   =  1.00D-10
 THRNRM  =  1.00D-08  THREQ   =  0.00D+00  THRDE   =  1.00D+00  THRREF  =  1.00D-05  SPARFAC =  1.00D+00  THRDLP  =  1.00D-07
 THRDIA  =  1.00D-10  THRDLS  =  1.00D-07  THRGPS  =  0.00D+00  THRKEX  =  0.00D+00  THRDIS  =  2.00D-01  THRVAR  =  1.00D-10
 THRLOC  =  1.00D-06  THRGAP  =  1.00D-06  THRLOCT = -1.00D+00  THRGAPT = -1.00D+00  THRORB  =  1.00D-06  THRMLTP =  0.00D+00
 THRCPQCI=  1.00D-10  KEXTA   =  0.00D+00  THRCOARS=  0.00D+00  SYMTOL  =  1.00D-06  GRADTOL =  1.00D-06  THROVL  =  1.00D-08
 THRORTH =  1.00D-08  GRID    =  1.00D-06  GRIDMAX =  1.00D-03  DTMAX   =  0.00D+00  THROCCDE=  1.00D-01  THROCCDE=  1.00D-01



 THRESHOLDS:

 ZERO    =  1.00D-22  ONEINT  =  1.00D-22  TWOINT  =  1.00D-22  PREFAC  =  1.00D-14  LOCALI  =  1.00D-09  EORDER  =  1.00D-04
 ENERGY  =  1.00D-12  ETEST   =  0.00D+00  EDENS   =  0.00D+00  THRDEDEF=  1.00D-06  GRADIENT=  1.00D-02  STEP    =  1.00D-03
 ORBITAL =  1.00D-05  CIVEC   =  1.00D-05  COEFF   =  1.00D-04  PRINTCI =  5.00D-02  PUNCHCI =  9.90D+01  OPTGRAD =  1.00D-08
 OPTENERG=  1.00D-06  OPTSTEP =  1.00D-08  THRGRAD =  1.00D-10  COMPRESS=  1.00D-11  VARMIN  =  1.00D-07  VARMAX  =  1.00D-03
 THRDOUB =  0.00D+00  THRDIV  =  1.00D-05  THRRED  =  1.00D-07  THRPSP  =  1.00D+00  THRDC   =  1.00D-10  THRCS   =  1.00D-10
 THRNRM  =  1.00D-08  THREQ   =  0.00D+00  THRDE   =  1.00D+00  THRREF  =  1.00D-05  SPARFAC =  1.00D+00  THRDLP  =  1.00D-07
 THRDIA  =  1.00D-10  THRDLS  =  1.00D-07  THRGPS  =  0.00D+00  THRKEX  =  0.00D+00  THRDIS  =  2.00D-01  THRVAR  =  1.00D-10
 THRLOC  =  1.00D-06  THRGAP  =  1.00D-06  THRLOCT = -1.00D+00  THRGAPT = -1.00D+00  THRORB  =  1.00D-06  THRMLTP =  0.00D+00
 THRCPQCI=  1.00D-10  KEXTA   =  0.00D+00  THRCOARS=  0.00D+00  SYMTOL  =  1.00D-06  GRADTOL =  1.00D-06  THROVL  =  1.00D-08
 THRORTH =  1.00D-08  GRID    =  1.00D-06  GRIDMAX =  1.00D-03  DTMAX   =  0.00D+00  THROCCDE=  1.00D-01  THROCCDE=  1.00D-01



 Input parameters for SORTINT:

 COMPRESS =    0.000000
 C_FINAL  =    1.000000
 DEBUG    =   -1.000000
 C_SORT1  =    0.000000
 C_SEWARD =    0.000000
 THRESH   =    0.000000
 IO       =  molpro                                                          
 SPRI     =    0.000000
 SETTING GEOMTYP        =    XYZ
 ZUNIT=BOHR
 

 Variable memory set to  995000000 words,  buffer space   230000 words

 SETTING BASIS          =    AVTZ


 Recomputing integrals since basis changed


 Using spherical harmonics

 Library entry N      S aug-cc-pVTZ          selected for orbital group  1
 Library entry N      P aug-cc-pVTZ          selected for orbital group  1
 Library entry N      D aug-cc-pVTZ          selected for orbital group  1
 Library entry N      F aug-cc-pVTZ          selected for orbital group  1
 Library entry H      S aug-cc-pVTZ          selected for orbital group  2
 Library entry H      P aug-cc-pVTZ          selected for orbital group  2
 Library entry H      D aug-cc-pVTZ          selected for orbital group  2
 Library entry O      S aug-cc-pVTZ          selected for orbital group  3
 Library entry O      P aug-cc-pVTZ          selected for orbital group  3
 Library entry O      D aug-cc-pVTZ          selected for orbital group  3
 Library entry O      F aug-cc-pVTZ          selected for orbital group  3


 PROGRAM * SEWARD (Integral evaluation for generally contracted gaussian basis sets)     Author: Roland Lindh, 1990

 Geometry written to block  1 of record 700


 Point group  Cs  



 ATOMIC COORDINATES

 NR  ATOM    CHARGE       X              Y              Z

   1  N       7.00    0.000000000   -0.171795778   -1.146813472
   2  H       1.00    0.000000000    1.669962398   -1.920087637
   3  O       8.00    0.000000000    0.043601171    1.116311518

 Bond lengths in Bohr (Angstrom)

 1-2  1.997504972  1-3  2.273352276
     ( 1.057034110)     ( 1.203006217)

 Bond angles

  2-1-3  107.33856643

 NUCLEAR CHARGE:                   16
 NUMBER OF PRIMITIVE AOS:         161
 NUMBER OF SYMMETRY AOS:          141
 NUMBER OF CONTRACTIONS:          115   (  76A'  +  39A"  )
 NUMBER OF CORE ORBITALS:           2   (   2A'  +   0A"  )
 NUMBER OF VALENCE ORBITALS:        9   (   7A'  +   2A"  )


 NUCLEAR REPULSION ENERGY   30.46012213

 Eigenvalues of metric

         1 0.231E-03 0.503E-03 0.179E-02 0.212E-02 0.250E-02 0.351E-02 0.431E-02 0.520E-02
         2 0.390E-02 0.102E-01 0.260E-01 0.373E-01 0.514E-01 0.624E-01 0.816E-01 0.119E+00


 Contracted 2-electron integrals neglected if value below      1.0D-22

       10790064. INTEGRALS WRITTEN OUT IN    2635 BLOCKS ON RECORD 1290 OF FILE 1


 NUMBER OF SORTED TWO-ELECTRON INTEGRALS:   11433631.     BUFFER LENGTH:  32768
 NUMBER OF SEGMENTS:   1  SEGMENT LENGTH:   11433631      RECORD LENGTH: 524288

 Memory used in sort:      11.99 MW

 SORT1 READ    10790064. AND WROTE    10943632. INTEGRALS IN     32 RECORDS. CPU TIME:     0.33 SEC, REAL TIME:     0.42 SEC
 SORT2 READ    10943632. AND WROTE    11433631. INTEGRALS IN      1 RECORDS. CPU TIME:     0.20 SEC, REAL TIME:     0.29 SEC

 FILE SIZES:   FILE 1:   193.0 MBYTE,  FILE 4:   134.3 MBYTE,   TOTAL:    327.2 MBYTE

 OPERATOR DM      FOR CENTER  0  COORDINATES:    0.000000    0.000000    0.000000


 **********************************************************************************************************************************
 DATASETS  * FILE   NREC   LENGTH (MB)   RECORD NAMES
              1      19      111.05       500      610      700      900      950      970     1000      129      960     1100   
                                          VAR    BASINP    GEOM    SYMINP    ZMAT    AOBASIS   BASIS     P2S    ABASIS      S 
                                         1400     1410     1200     1210     1080     1600     1650     1300     1700   
                                           T        V       H0       H01     AOSYM     SMH    MOLCAS    ERIS     OPER   

 PROGRAMS   *        TOTAL       INT
 CPU TIMES  *         1.81      1.71
 REAL TIME  *         2.84 SEC
 DISK USED  *       327.55 MB      
 **********************************************************************************************************************************


 PROGRAM * RHF-SCF (CLOSED SHELL)       Authors: W. Meyer, H.-J. Werner


 NUMBER OF ELECTRONS:       8+    8-
 CONVERGENCE THRESHOLDS:    1.00E-10 (Density)    1.00E-13 (Energy)
 MAX. NUMBER OF ITERATIONS:      500
 INTERPOLATION TYPE:            DIIS
 INTERPOLATION STEPS:              2 (START)      1 (STEP)
 LEVEL SHIFTS:                  0.00 (CLOSED)  0.00 (OPEN) 



 Orbital guess generated from atomic densities. Full valence occupancy:    9   2

 Molecular orbital dump at record        2100.2

 Initial occupancy:   7   1

 ITERATION    DDIFF          GRAD             ENERGY        2-EL.EN.            DIPOLE MOMENTS         DIIS   ORB.
    1      0.000D+00      0.000D+00      -129.78917949    154.058581    0.00000    0.57913   -1.00358    0    start
    2      0.000D+00      0.107D-01      -129.81680266    155.339579    0.00000    0.60777   -0.20641    1    diag
    3      0.118D-01      0.814D-02      -129.83891040    155.439203    0.00000    0.54992   -0.58119    2    diag
    4      0.587D-02      0.127D-02      -129.83969004    155.154419    0.00000    0.55787   -0.52233    3    diag
    5      0.106D-02      0.420D-03      -129.83981501    155.248088    0.00000    0.56345   -0.52519    4    diag
    6      0.447D-03      0.121D-03      -129.83983501    155.232512    0.00000    0.56383   -0.52118    5    diag
    7      0.172D-03      0.599D-04      -129.83984069    155.235094    0.00000    0.56510   -0.51868    6    diag
    8      0.118D-03      0.200D-04      -129.83984127    155.234447    0.00000    0.56513   -0.51772    7    diag
    9      0.430D-04      0.377D-05      -129.83984129    155.234343    0.00000    0.56509   -0.51752    8    diag
   10      0.818D-05      0.864D-06      -129.83984130    155.234324    0.00000    0.56506   -0.51749    9    orth
   11      0.169D-05      0.174D-06      -129.83984130    155.234321    0.00000    0.56505   -0.51749    9    diag
   12      0.333D-06      0.358D-07      -129.83984130    155.234320    0.00000    0.56505   -0.51748    9    diag
   13      0.728D-07      0.899D-08      -129.83984130    155.234320    0.00000    0.56505   -0.51748    9    diag
   14      0.189D-07      0.187D-08      -129.83984130    155.234320    0.00000    0.56505   -0.51748    9    diag
   15      0.380D-08      0.531D-09      -129.83984130    155.234320    0.00000    0.56505   -0.51748    9    diag
   16      0.104D-08      0.149D-09      -129.83984130    155.234320    0.00000    0.56505   -0.51748    9    diag
   17      0.192D-09      0.439D-10      -129.83984130    155.234320    0.00000    0.56505   -0.51748    9    diag
   18      0.564D-10      0.157D-10      -129.83984130    155.234320    0.00000    0.56505   -0.51748    9    diag
   19      0.279D-10      0.348D-11      -129.83984130    155.234320    0.00000    0.56505   -0.51748    9    fixocc
   20      0.673D-11      0.575D-12      -129.83984130    155.234320    0.00000    0.56505   -0.51748    9    orth
   21      0.250D-11      0.206D-12      -129.83984130    155.234320    0.00000    0.56505   -0.51748    9    diag
   22      0.188D-11      0.694D-13      -129.83984130    155.234320    0.00000    0.56505   -0.51748    9    diag
   23      0.502D-12      0.433D-13      -129.83984130    155.234320    0.00000    0.56505   -0.51748    9    diag
   24      0.302D-12      0.561D-13      -129.83984130    155.234320    0.00000    0.56505   -0.51748    9    diag
   25      0.253D-12      0.570D-13      -129.83984130    155.234320    0.00000    0.56505   -0.51748    0    orth

 Final occupancy:   7   1

 !RHF STATE 1.1 Energy               -129.839841295068
 Nuclear energy                        30.46012213
 One-electron energy                 -237.91712349
 Two-electron energy                   77.61716006
 Virial quotient                       -1.00203790
 !RHF STATE 1.1 Dipole moment           0.00000000     0.56505166    -0.51748390
 Dipole moment /Debye                   0.00000000     1.43612400    -1.31522673

 Orbital energies:

         1.1          2.1          3.1          4.1          5.1          6.1          7.1          8.1          9.1
    -20.655962   -15.714442    -1.535241    -0.992111    -0.748339    -0.667347    -0.429176     0.029320     0.092230

         1.2          2.2          3.2
     -0.598784     0.066383     0.130446

 HOMO      7.1    -0.429176 =     -11.6785eV
 LUMO      8.1     0.029320 =       0.7978eV
 LUMO-HOMO         0.458496 =      12.4763eV


 **********************************************************************************************************************************
 DATASETS  * FILE   NREC   LENGTH (MB)   RECORD NAMES
              1      19      111.05       500      610      700      900      950      970     1000      129      960     1100   
                                          VAR    BASINP    GEOM    SYMINP    ZMAT    AOBASIS   BASIS     P2S    ABASIS      S 
                                         1400     1410     1200     1210     1080     1600     1650     1300     1700   
                                           T        V       H0       H01     AOSYM     SMH    MOLCAS    ERIS     OPER   

              2       4        2.94       700     1000      520     2100   
                                         GEOM     BASIS   MCVARS     RHF  

 PROGRAMS   *        TOTAL        HF       INT
 CPU TIMES  *         3.54      1.73      1.71
 REAL TIME  *         5.06 SEC
 DISK USED  *       327.55 MB      
 **********************************************************************************************************************************


 PROGRAM * CCSD (Closed-shell coupled cluster)     Authors: C. Hampel, H.-J. Werner, 1991, M. Deegan, P.J. Knowles, 1992


 Convergence thresholds:  THRVAR = 1.00D-08  THRDEN = 1.00D-12

 CCSD(T)     terms to be evaluated (factor= 1.000)


 Number of core orbitals:           2 (   2   0 )
 Number of closed-shell orbitals:   6 (   5   1 )
 Number of external orbitals:     107 (  69  38 )

 Molecular orbitals read from record     2100.2  Type=RHF/CANONICAL (state 1.1)

 Number of N-1 electron functions:               6
 Number of N-2 electron functions:              21
 Number of singly external CSFs:               383
 Number of doubly external CSFs:            107206
 Total number of CSFs:                      107590

 Length of J-op  integral file:               0.00 MB
 Length of K-op  integral file:               0.54 MB
 Length of 3-ext integral record:             0.00 MB

 Memory could be reduced to 5.94 Mwords without degradation in triples

 Integral transformation finished. Total CPU:   0.21 sec, npass=  1  Memory used:   1.65 MW

 Reference energy:                   -129.83984130

 MP2 singlet pair energy:              -0.27904073
 MP2 triplet pair energy:              -0.16490383
 MP2 correlation energy:               -0.44394456
 MP2 total energy:                   -130.28378585

 SCS-MP2 correlation energy:           -0.43745570   (PS=  1.200000  PT=  0.333333)
 SCS-MP2 total energy:               -130.27729699

 ITER.      SQ.NORM     CORR.ENERGY   TOTAL ENERGY   ENERGY CHANGE        DEN1      VAR(S)    VAR(P)  DIIS     TIME  TIME/IT
   1      1.12055481    -0.44823339  -130.28807469    -0.00428884     0.01159738  0.31D-02  0.31D-02  1  1     0.45     0.25
   2      1.13157630    -0.44846886  -130.28831016    -0.00023547    -0.01234284  0.98D-04  0.51D-03  2  2     0.69     0.25
   3      1.13797926    -0.44886218  -130.28870347    -0.00039332    -0.00297862  0.52D-04  0.50D-04  3  3     0.93     0.26
   4      1.14080551    -0.44887313  -130.28871443    -0.00001096    -0.00096130  0.41D-05  0.89D-05  4  4     1.16     0.26
   5      1.14182343    -0.44890115  -130.28874245    -0.00002802    -0.00021606  0.11D-05  0.16D-05  5  5     1.38     0.26
   6      1.14215677    -0.44888479  -130.28872608     0.00001636    -0.00004070  0.10D-06  0.38D-06  6  6     1.61     0.26
   7      1.14223049    -0.44888579  -130.28872709    -0.00000100    -0.00000187  0.19D-07  0.89D-07  6  1     1.85     0.26
   8      1.14225189    -0.44888646  -130.28872776    -0.00000067     0.00000143  0.35D-08  0.16D-07  6  2     2.09     0.26
   9      1.14225720    -0.44888603  -130.28872732     0.00000044     0.00000043  0.26D-08  0.17D-08  6  4     2.33     0.26
  10      1.14225944    -0.44888649  -130.28872779    -0.00000047    -0.00000068  0.42D-09  0.20D-09  6  3     2.57     0.26
  11      1.14225894    -0.44888652  -130.28872781    -0.00000002    -0.00000006  0.14D-09  0.31D-10  6  5     2.80     0.26
  12      1.14225791    -0.44888666  -130.28872796    -0.00000015     0.00000033  0.17D-10  0.99D-11  6  6     3.04     0.26
  13      1.14225709    -0.44888669  -130.28872799    -0.00000003     0.00000021  0.60D-11  0.20D-11  6  1     3.28     0.26
  14      1.14225657    -0.44888672  -130.28872802    -0.00000003     0.00000013  0.96D-12  0.63D-12  6  2     3.52     0.26
  15      1.14225636    -0.44888673  -130.28872802    -0.00000001     0.00000003  0.27D-12  0.20D-12  6  4     3.75     0.26
  16      1.14225627    -0.44888673  -130.28872803    -0.00000000     0.00000001  0.51D-13  0.70D-13  6  3     3.96     0.26
  17      1.14225621    -0.44888673  -130.28872803    -0.00000000     0.00000001  0.36D-14  0.17D-13  6  5     4.18     0.26
  18      1.14225621    -0.44888673  -130.28872803     0.00000000    -0.00000000  0.12D-14  0.34D-14  6  6     4.42     0.26
  19      1.14225620    -0.44888673  -130.28872803    -0.00000000     0.00000000  0.98D-15  0.61D-15  6  1     4.65     0.26
  20      1.14225620    -0.44888673  -130.28872803     0.00000000    -0.00000000  0.20D-15  0.11D-15  6  2     4.91     0.26
  21      1.14225620    -0.44888673  -130.28872803     0.00000000    -0.00000000  0.49D-16  0.28D-16  6  3     5.17     0.26
  22      1.14225620    -0.44888673  -130.28872803     0.00000000     0.00000000  0.56D-17  0.25D-17  6  4     5.41     0.26
  23      1.14225620    -0.44888673  -130.28872803     0.00000000    -0.00000000  0.20D-17  0.52D-18  6  5     5.65     0.26
  24      1.14225620    -0.44888673  -130.28872803     0.00000000     0.00000000  0.13D-18  0.45D-19  6  2     5.89     0.26
  25      1.14225620    -0.44888673  -130.28872803    -0.00000000    -0.00000000  0.19D-19  0.11D-19  6  6     6.12     0.26
  26      1.14225620    -0.44888673  -130.28872803     0.00000000    -0.00000000  0.30D-20  0.19D-20  6  1     6.34     0.26
  27      1.14225620    -0.44888673  -130.28872803    -0.00000000    -0.00000000  0.45D-21  0.44D-21  6  4     6.56     0.26

 Norm of t1 vector:      0.07762175      S-energy:    -0.00000000      T1 diagnostic:  0.01584447
                                                                       D1 diagnostic:  0.04136682

 Doubles amplitudes (print threshold =  0.500E-01):

         I         J         SYM. A    SYM. B    A         B      T(IJ, AB)

         6         6         2         2         1         1     -0.10667852


 Total CPU time for triples:      1.94 sec


 RESULTS
 =======

  Reference energy                   -129.839841295068
  CCSD singlet pair energy             -0.307691438000
  CCSD triplet pair energy             -0.141195294836
  CCSD correlation energy              -0.448886732835

  Triples (T) contribution             -0.020783848529
  Total correlation energy             -0.469670581364

  CCSD total energy                  -130.288728027903
  CCSD[T] energy                     -130.310557911339
  CCSD-T energy                      -130.309111677967
 !CCSD(T) total energy               -130.309511876432

 Timing summary (sec):

 STEP                 CPU(USER)    SYS     CPU(TOT)    WALL
 Transformation          0.22      0.06      0.28      0.28
 CCSD iterations         6.34      0.78      7.12      7.16
 Triples                 1.94      0.06      2.00      1.98

 Program statistics:

 Available memory in ccsd:               994999756
 Min. memory needed in ccsd:                389120
 Max. memory used in ccsd:                  473124
 Max. memory used in cckext:                599488 (27 integral passes)



 **********************************************************************************************************************************
 DATASETS  * FILE   NREC   LENGTH (MB)   RECORD NAMES
              1      20      128.20       500      610      700      900      950      970     1000      129      960     1100   
                                          VAR    BASINP    GEOM    SYMINP    ZMAT    AOBASIS   BASIS     P2S    ABASIS      S 
                                         1400     1410     1200     1210     1080     1600     1650     1300     1700     1380   
                                           T        V       H0       H01     AOSYM     SMH    MOLCAS    ERIS     OPER     JKOP   

              2       4        2.94       700     1000      520     2100   
                                         GEOM     BASIS   MCVARS     RHF  

 PROGRAMS   *        TOTAL   CCSD(T)        HF       INT
 CPU TIMES  *        12.08      8.53      1.73      1.71
 REAL TIME  *        14.55 SEC
 DISK USED  *       327.55 MB      
 **********************************************************************************************************************************

 CCSD(T)/aug-cc-pVTZ energy=   -130.309511876432

        CCSD(T)         HF-SCF  
   -130.30951188   -129.83984130
 **********************************************************************************************************************************
 Molpro calculation terminated
 Variable memory released
