
 Primary working directories    : /tmp/r2666/235006.maple
 Secondary working directories  : /tmp/r2666/235006.maple
 Wavefunction directory         : /ddn/home4/r2666/wfu/
 Main file repository           : /tmp/r2666/235006.maple/

 SHA1      : d5ffa45e93fdbca01ffc919aa182cfdae0147319
 NAME      : 2015.1.35
 ARCHNAME  : linux/x86_64
 FC        : /opt/intel/composer_xe_2015.1.133/bin/intel64/ifort
 BLASLIB   : -Wl,-_start-group /opt/intel/mkl/lib/intel64/libmkl_intel_ilp64.a /opt/intel/mkl/lib/intel64/libmkl_intel_thread.a /opt/intel/mkl/lib/intel64/libmkl_core.a -Wl,-_end-group
 id        : olemiss

 Nodes     nprocs
 cn030        1

 Using customized tuning parameters: mindgm=1; mindgv=20; mindgc=4; mindgr=1; noblas=0; minvec=7
 default implementation of scratch files=df  

 ***,hno CCSD(T)/TZ-F12 QFF
 memory, 995, m;
 gthresh,energy=1.d-12,zero=1.d-22,oneint=1.d-22,twoint=1.d-22;
 gthresh,optgrad=1.d-8,optstep=1.d-8;
 nocompress;
 geomtyp=xyz
 bohr
 geometry={
 3
        120       120
 N        0.0000000000       -0.1676569461       -1.1407334487
 H        0.0000000000        1.6753476100       -1.9352125024
 O        0.0000000000        0.0340771261        1.1253563601
 }
 
 basis=avtz
   {hf,maxit=500;accu,20;}
 {ccsd(t),nocheck,maxit=250;orbital,IGNORE_ERROR;}

 Variables initialized (889), CPU time= 0.00 sec
 Commands  initialized (702), CPU time= 0.01 sec, 572 directives.
 Default parameters read. Elapsed time= 0.05 sec

 Checking input...
 Passed
1


                                         ***  PROGRAM SYSTEM MOLPRO  ***
                                       Copyright, TTI GmbH Stuttgart, 2015
                                    Version 2015.1 linked Jul  9 2018 13:16:40


 **********************************************************************************************************************************
 LABEL *   hno CCSD(T)/TZ-F12 QFF                                                        
  64 bit serial version                                                                  DATE: 08-Feb-20          TIME: 17:56:51  
 **********************************************************************************************************************************

 SHA1:             d5ffa45e93fdbca01ffc919aa182cfdae0147319
 **********************************************************************************************************************************

 THRESHOLDS:

 ZERO    =  1.00D-22  ONEINT  =  1.00D-22  TWOINT  =  1.00D-22  PREFAC  =  1.00D-14  LOCALI  =  1.00D-09  EORDER  =  1.00D-04
 ENERGY  =  1.00D-12  ETEST   =  0.00D+00  EDENS   =  0.00D+00  THRDEDEF=  1.00D-06  GRADIENT=  1.00D-02  STEP    =  1.00D-03
 ORBITAL =  1.00D-05  CIVEC   =  1.00D-05  COEFF   =  1.00D-04  PRINTCI =  5.00D-02  PUNCHCI =  9.90D+01  OPTGRAD =  3.00D-04
 OPTENERG=  1.00D-06  OPTSTEP =  3.00D-04  THRGRAD =  1.00D-10  COMPRESS=  1.00D-11  VARMIN  =  1.00D-07  VARMAX  =  1.00D-03
 THRDOUB =  0.00D+00  THRDIV  =  1.00D-05  THRRED  =  1.00D-07  THRPSP  =  1.00D+00  THRDC   =  1.00D-10  THRCS   =  1.00D-10
 THRNRM  =  1.00D-08  THREQ   =  0.00D+00  THRDE   =  1.00D+00  THRREF  =  1.00D-05  SPARFAC =  1.00D+00  THRDLP  =  1.00D-07
 THRDIA  =  1.00D-10  THRDLS  =  1.00D-07  THRGPS  =  0.00D+00  THRKEX  =  0.00D+00  THRDIS  =  2.00D-01  THRVAR  =  1.00D-10
 THRLOC  =  1.00D-06  THRGAP  =  1.00D-06  THRLOCT = -1.00D+00  THRGAPT = -1.00D+00  THRORB  =  1.00D-06  THRMLTP =  0.00D+00
 THRCPQCI=  1.00D-10  KEXTA   =  0.00D+00  THRCOARS=  0.00D+00  SYMTOL  =  1.00D-06  GRADTOL =  1.00D-06  THROVL  =  1.00D-08
 THRORTH =  1.00D-08  GRID    =  1.00D-06  GRIDMAX =  1.00D-03  DTMAX   =  0.00D+00  THROCCDE=  1.00D-01  THROCCDE=  1.00D-01



 THRESHOLDS:

 ZERO    =  1.00D-22  ONEINT  =  1.00D-22  TWOINT  =  1.00D-22  PREFAC  =  1.00D-14  LOCALI  =  1.00D-09  EORDER  =  1.00D-04
 ENERGY  =  1.00D-12  ETEST   =  0.00D+00  EDENS   =  0.00D+00  THRDEDEF=  1.00D-06  GRADIENT=  1.00D-02  STEP    =  1.00D-03
 ORBITAL =  1.00D-05  CIVEC   =  1.00D-05  COEFF   =  1.00D-04  PRINTCI =  5.00D-02  PUNCHCI =  9.90D+01  OPTGRAD =  1.00D-08
 OPTENERG=  1.00D-06  OPTSTEP =  1.00D-08  THRGRAD =  1.00D-10  COMPRESS=  1.00D-11  VARMIN  =  1.00D-07  VARMAX  =  1.00D-03
 THRDOUB =  0.00D+00  THRDIV  =  1.00D-05  THRRED  =  1.00D-07  THRPSP  =  1.00D+00  THRDC   =  1.00D-10  THRCS   =  1.00D-10
 THRNRM  =  1.00D-08  THREQ   =  0.00D+00  THRDE   =  1.00D+00  THRREF  =  1.00D-05  SPARFAC =  1.00D+00  THRDLP  =  1.00D-07
 THRDIA  =  1.00D-10  THRDLS  =  1.00D-07  THRGPS  =  0.00D+00  THRKEX  =  0.00D+00  THRDIS  =  2.00D-01  THRVAR  =  1.00D-10
 THRLOC  =  1.00D-06  THRGAP  =  1.00D-06  THRLOCT = -1.00D+00  THRGAPT = -1.00D+00  THRORB  =  1.00D-06  THRMLTP =  0.00D+00
 THRCPQCI=  1.00D-10  KEXTA   =  0.00D+00  THRCOARS=  0.00D+00  SYMTOL  =  1.00D-06  GRADTOL =  1.00D-06  THROVL  =  1.00D-08
 THRORTH =  1.00D-08  GRID    =  1.00D-06  GRIDMAX =  1.00D-03  DTMAX   =  0.00D+00  THROCCDE=  1.00D-01  THROCCDE=  1.00D-01



 Input parameters for SORTINT:

 COMPRESS =    0.000000
 C_FINAL  =    1.000000
 DEBUG    =   -1.000000
 C_SORT1  =    0.000000
 C_SEWARD =    0.000000
 THRESH   =    0.000000
 IO       =  molpro                                                          
 SPRI     =    0.000000
 SETTING GEOMTYP        =    XYZ
 ZUNIT=BOHR
 

 Variable memory set to  995000000 words,  buffer space   230000 words

 SETTING BASIS          =    AVTZ


 Recomputing integrals since basis changed


 Using spherical harmonics

 Library entry N      S aug-cc-pVTZ          selected for orbital group  1
 Library entry N      P aug-cc-pVTZ          selected for orbital group  1
 Library entry N      D aug-cc-pVTZ          selected for orbital group  1
 Library entry N      F aug-cc-pVTZ          selected for orbital group  1
 Library entry H      S aug-cc-pVTZ          selected for orbital group  2
 Library entry H      P aug-cc-pVTZ          selected for orbital group  2
 Library entry H      D aug-cc-pVTZ          selected for orbital group  2
 Library entry O      S aug-cc-pVTZ          selected for orbital group  3
 Library entry O      P aug-cc-pVTZ          selected for orbital group  3
 Library entry O      D aug-cc-pVTZ          selected for orbital group  3
 Library entry O      F aug-cc-pVTZ          selected for orbital group  3


 PROGRAM * SEWARD (Integral evaluation for generally contracted gaussian basis sets)     Author: Roland Lindh, 1990

 Geometry written to block  1 of record 700


 Point group  Cs  



 ATOMIC COORDINATES

 NR  ATOM    CHARGE       X              Y              Z

   1  N       7.00    0.000000000   -0.167656946   -1.140733449
   2  H       1.00    0.000000000    1.675347610   -1.935212502
   3  O       8.00    0.000000000    0.034077126    1.125356360

 Bond lengths in Bohr (Angstrom)

 1-2  2.006953602  1-3  2.275051572
     ( 1.062034110)     ( 1.203905446)

 Bond angles

  2-1-3  108.23258934

 NUCLEAR CHARGE:                   16
 NUMBER OF PRIMITIVE AOS:         161
 NUMBER OF SYMMETRY AOS:          141
 NUMBER OF CONTRACTIONS:          115   (  76A'  +  39A"  )
 NUMBER OF CORE ORBITALS:           2   (   2A'  +   0A"  )
 NUMBER OF VALENCE ORBITALS:        9   (   7A'  +   2A"  )


 NUCLEAR REPULSION ENERGY   30.40626788

 Eigenvalues of metric

         1 0.232E-03 0.503E-03 0.181E-02 0.214E-02 0.251E-02 0.352E-02 0.434E-02 0.523E-02
         2 0.391E-02 0.103E-01 0.261E-01 0.373E-01 0.512E-01 0.626E-01 0.815E-01 0.120E+00


 Contracted 2-electron integrals neglected if value below      1.0D-22

       10790064. INTEGRALS WRITTEN OUT IN    2635 BLOCKS ON RECORD 1290 OF FILE 1


 NUMBER OF SORTED TWO-ELECTRON INTEGRALS:   11433631.     BUFFER LENGTH:  32768
 NUMBER OF SEGMENTS:   1  SEGMENT LENGTH:   11433631      RECORD LENGTH: 524288

 Memory used in sort:      11.99 MW

 SORT1 READ    10790064. AND WROTE    10943632. INTEGRALS IN     32 RECORDS. CPU TIME:     0.27 SEC, REAL TIME:     0.36 SEC
 SORT2 READ    10943632. AND WROTE    11433631. INTEGRALS IN      1 RECORDS. CPU TIME:     0.20 SEC, REAL TIME:     0.25 SEC

 FILE SIZES:   FILE 1:   193.0 MBYTE,  FILE 4:   134.3 MBYTE,   TOTAL:    327.2 MBYTE

 OPERATOR DM      FOR CENTER  0  COORDINATES:    0.000000    0.000000    0.000000


 **********************************************************************************************************************************
 DATASETS  * FILE   NREC   LENGTH (MB)   RECORD NAMES
              1      19      111.05       500      610      700      900      950      970     1000      129      960     1100   
                                          VAR    BASINP    GEOM    SYMINP    ZMAT    AOBASIS   BASIS     P2S    ABASIS      S 
                                         1400     1410     1200     1210     1080     1600     1650     1300     1700   
                                           T        V       H0       H01     AOSYM     SMH    MOLCAS    ERIS     OPER   

 PROGRAMS   *        TOTAL       INT
 CPU TIMES  *         1.58      1.49
 REAL TIME  *         2.47 SEC
 DISK USED  *       327.55 MB      
 **********************************************************************************************************************************


 PROGRAM * RHF-SCF (CLOSED SHELL)       Authors: W. Meyer, H.-J. Werner


 NUMBER OF ELECTRONS:       8+    8-
 CONVERGENCE THRESHOLDS:    1.00E-10 (Density)    1.00E-13 (Energy)
 MAX. NUMBER OF ITERATIONS:      500
 INTERPOLATION TYPE:            DIIS
 INTERPOLATION STEPS:              2 (START)      1 (STEP)
 LEVEL SHIFTS:                  0.00 (CLOSED)  0.00 (OPEN) 



 Orbital guess generated from atomic densities. Full valence occupancy:    9   2

 Molecular orbital dump at record        2100.2

 Initial occupancy:   7   1

 ITERATION    DDIFF          GRAD             ENERGY        2-EL.EN.            DIPOLE MOMENTS         DIIS   ORB.
    1      0.000D+00      0.000D+00      -129.78863642    153.953218    0.00000    0.58385   -1.00880    0    start
    2      0.000D+00      0.107D-01      -129.81621051    155.243374    0.00000    0.60723   -0.20762    1    diag
    3      0.118D-01      0.818D-02      -129.83860308    155.342418    0.00000    0.55196   -0.58540    2    diag
    4      0.590D-02      0.127D-02      -129.83938789    155.055730    0.00000    0.55941   -0.52615    3    diag
    5      0.107D-02      0.420D-03      -129.83951397    155.150176    0.00000    0.56515   -0.52911    4    diag
    6      0.449D-03      0.122D-03      -129.83953417    155.134547    0.00000    0.56555   -0.52508    5    diag
    7      0.173D-03      0.601D-04      -129.83953990    155.137143    0.00000    0.56685   -0.52258    6    diag
    8      0.118D-03      0.202D-04      -129.83954049    155.136496    0.00000    0.56688   -0.52162    7    diag
    9      0.434D-04      0.382D-05      -129.83954052    155.136388    0.00000    0.56684   -0.52140    8    diag
   10      0.833D-05      0.881D-06      -129.83954052    155.136368    0.00000    0.56680   -0.52137    9    orth
   11      0.173D-05      0.177D-06      -129.83954052    155.136365    0.00000    0.56680   -0.52137    9    diag
   12      0.340D-06      0.362D-07      -129.83954052    155.136364    0.00000    0.56680   -0.52137    9    diag
   13      0.737D-07      0.913D-08      -129.83954052    155.136364    0.00000    0.56679   -0.52137    9    diag
   14      0.192D-07      0.191D-08      -129.83954052    155.136364    0.00000    0.56679   -0.52137    9    diag
   15      0.388D-08      0.539D-09      -129.83954052    155.136364    0.00000    0.56679   -0.52137    9    diag
   16      0.105D-08      0.150D-09      -129.83954052    155.136364    0.00000    0.56679   -0.52137    9    diag
   17      0.193D-09      0.440D-10      -129.83954052    155.136364    0.00000    0.56679   -0.52137    9    diag
   18      0.561D-10      0.158D-10      -129.83954052    155.136364    0.00000    0.56679   -0.52137    9    diag
   19      0.283D-10      0.352D-11      -129.83954052    155.136364    0.00000    0.56679   -0.52137    0    orth

 Final occupancy:   7   1

 !RHF STATE 1.1 Energy               -129.839540519487
 Nuclear energy                        30.40626788
 One-electron energy                 -237.81399039
 Two-electron energy                   77.56818200
 Virial quotient                       -1.00215170
 !RHF STATE 1.1 Dipole moment           0.00000000     0.56679473    -0.52137038
 Dipole moment /Debye                   0.00000000     1.44055416    -1.32510453

 Orbital energies:

         1.1          2.1          3.1          4.1          5.1          6.1          7.1          8.1          9.1
    -20.656395   -15.715123    -1.534001    -0.991645    -0.747457    -0.667288    -0.428582     0.029229     0.092177

         1.2          2.2          3.2
     -0.598321     0.065999     0.130486

 HOMO      7.1    -0.428582 =     -11.6623eV
 LUMO      8.1     0.029229 =       0.7954eV
 LUMO-HOMO         0.457812 =      12.4577eV


 **********************************************************************************************************************************
 DATASETS  * FILE   NREC   LENGTH (MB)   RECORD NAMES
              1      19      111.05       500      610      700      900      950      970     1000      129      960     1100   
                                          VAR    BASINP    GEOM    SYMINP    ZMAT    AOBASIS   BASIS     P2S    ABASIS      S 
                                         1400     1410     1200     1210     1080     1600     1650     1300     1700   
                                           T        V       H0       H01     AOSYM     SMH    MOLCAS    ERIS     OPER   

              2       4        2.94       700     1000      520     2100   
                                         GEOM     BASIS   MCVARS     RHF  

 PROGRAMS   *        TOTAL        HF       INT
 CPU TIMES  *         2.67      1.09      1.49
 REAL TIME  *         3.89 SEC
 DISK USED  *       327.55 MB      
 **********************************************************************************************************************************


 PROGRAM * CCSD (Closed-shell coupled cluster)     Authors: C. Hampel, H.-J. Werner, 1991, M. Deegan, P.J. Knowles, 1992


 Convergence thresholds:  THRVAR = 1.00D-08  THRDEN = 1.00D-12

 CCSD(T)     terms to be evaluated (factor= 1.000)


 Number of core orbitals:           2 (   2   0 )
 Number of closed-shell orbitals:   6 (   5   1 )
 Number of external orbitals:     107 (  69  38 )

 Molecular orbitals read from record     2100.2  Type=RHF/CANONICAL (state 1.1)

 Number of N-1 electron functions:               6
 Number of N-2 electron functions:              21
 Number of singly external CSFs:               383
 Number of doubly external CSFs:            107206
 Total number of CSFs:                      107590

 Length of J-op  integral file:               0.00 MB
 Length of K-op  integral file:               0.54 MB
 Length of 3-ext integral record:             0.00 MB

 Memory could be reduced to 5.94 Mwords without degradation in triples

 Integral transformation finished. Total CPU:   0.18 sec, npass=  1  Memory used:   1.65 MW

 Reference energy:                   -129.83954052

 MP2 singlet pair energy:              -0.27925556
 MP2 triplet pair energy:              -0.16504128
 MP2 correlation energy:               -0.44429684
 MP2 total energy:                   -130.28383735

 SCS-MP2 correlation energy:           -0.43779902   (PS=  1.200000  PT=  0.333333)
 SCS-MP2 total energy:               -130.27733954

 ITER.      SQ.NORM     CORR.ENERGY   TOTAL ENERGY   ENERGY CHANGE        DEN1      VAR(S)    VAR(P)  DIIS     TIME  TIME/IT
   1      1.12085369    -0.44853813  -130.28807865    -0.00424129     0.01174580  0.31D-02  0.31D-02  1  1     0.37     0.21
   2      1.13194492    -0.44876009  -130.28830061    -0.00022196    -0.01240146  0.10D-03  0.51D-03  2  2     0.56     0.21
   3      1.13841582    -0.44916071  -130.28870123    -0.00040062    -0.00299810  0.54D-04  0.51D-04  3  3     0.77     0.22
   4      1.14127427    -0.44917031  -130.28871083    -0.00000959    -0.00097024  0.42D-05  0.92D-05  4  4     0.97     0.22
   5      1.14231889    -0.44919900  -130.28873952    -0.00002869    -0.00022157  0.12D-05  0.16D-05  5  5     1.15     0.22
   6      1.14266095    -0.44918239  -130.28872291     0.00001661    -0.00004153  0.11D-06  0.39D-06  6  6     1.36     0.22
   7      1.14273740    -0.44918327  -130.28872379    -0.00000088    -0.00000203  0.21D-07  0.91D-07  6  1     1.57     0.22
   8      1.14275968    -0.44918396  -130.28872448    -0.00000070     0.00000128  0.37D-08  0.16D-07  6  2     1.77     0.22
   9      1.14276531    -0.44918349  -130.28872401     0.00000047     0.00000051  0.27D-08  0.18D-08  6  4     1.98     0.22
  10      1.14276763    -0.44918397  -130.28872449    -0.00000048    -0.00000072  0.44D-09  0.21D-09  6  3     2.17     0.22
  11      1.14276711    -0.44918400  -130.28872451    -0.00000003    -0.00000006  0.15D-09  0.33D-10  6  5     2.36     0.22
  12      1.14276604    -0.44918414  -130.28872466    -0.00000015     0.00000034  0.18D-10  0.11D-10  6  6     2.56     0.22
  13      1.14276519    -0.44918418  -130.28872470    -0.00000004     0.00000022  0.64D-11  0.21D-11  6  1     2.74     0.22
  14      1.14276465    -0.44918421  -130.28872473    -0.00000003     0.00000014  0.11D-11  0.66D-12  6  2     2.94     0.22
  15      1.14276442    -0.44918422  -130.28872474    -0.00000001     0.00000003  0.29D-12  0.21D-12  6  4     3.15     0.22
  16      1.14276433    -0.44918422  -130.28872474    -0.00000000     0.00000001  0.56D-13  0.74D-13  6  3     3.34     0.22
  17      1.14276427    -0.44918422  -130.28872474    -0.00000000     0.00000001  0.38D-14  0.18D-13  6  5     3.54     0.22
  18      1.14276426    -0.44918422  -130.28872474     0.00000000    -0.00000000  0.13D-14  0.37D-14  6  6     3.73     0.22
  19      1.14276426    -0.44918422  -130.28872474    -0.00000000     0.00000000  0.11D-14  0.69D-15  6  1     3.92     0.22
  20      1.14276426    -0.44918422  -130.28872474     0.00000000    -0.00000000  0.22D-15  0.13D-15  6  2     4.12     0.22
  21      1.14276426    -0.44918422  -130.28872474     0.00000000    -0.00000000  0.52D-16  0.31D-16  6  3     4.33     0.22
  22      1.14276426    -0.44918422  -130.28872474     0.00000000     0.00000000  0.61D-17  0.28D-17  6  4     4.53     0.22
  23      1.14276426    -0.44918422  -130.28872474     0.00000000    -0.00000000  0.22D-17  0.57D-18  6  5     4.73     0.22
  24      1.14276426    -0.44918422  -130.28872474     0.00000000     0.00000000  0.15D-18  0.49D-19  6  2     4.93     0.22
  25      1.14276426    -0.44918422  -130.28872474    -0.00000000    -0.00000000  0.22D-19  0.12D-19  6  6     5.14     0.22
  26      1.14276426    -0.44918422  -130.28872474     0.00000000    -0.00000000  0.36D-20  0.20D-20  6  1     5.35     0.22
  27      1.14276426    -0.44918422  -130.28872474    -0.00000000    -0.00000000  0.50D-21  0.48D-21  6  4     5.54     0.22

 Norm of t1 vector:      0.07825700      S-energy:     0.00000000      T1 diagnostic:  0.01597414
                                                                       D1 diagnostic:  0.04157747

 Doubles amplitudes (print threshold =  0.500E-01):

         I         J         SYM. A    SYM. B    A         B      T(IJ, AB)

         6         6         2         2         1         1     -0.10705678


 Total CPU time for triples:      1.57 sec


 RESULTS
 =======

  Reference energy                   -129.839540519487
  CCSD singlet pair energy             -0.307945701981
  CCSD triplet pair energy             -0.141238517875
  CCSD correlation energy              -0.449184219855

  Triples (T) contribution             -0.020855889645
  Total correlation energy             -0.470040109500

  CCSD total energy                  -130.288724739342
  CCSD[T] energy                     -130.310640936235
  CCSD-T energy                      -130.309176169339
 !CCSD(T) total energy               -130.309580628987

 Timing summary (sec):

 STEP                 CPU(USER)    SYS     CPU(TOT)    WALL
 Transformation          0.18      0.05      0.23      0.24
 CCSD iterations         5.38      0.61      5.99      5.97
 Triples                 1.57      0.05      1.62      1.63

 Program statistics:

 Available memory in ccsd:               994999756
 Min. memory needed in ccsd:                389120
 Max. memory used in ccsd:                  473124
 Max. memory used in cckext:                599488 (27 integral passes)



 **********************************************************************************************************************************
 DATASETS  * FILE   NREC   LENGTH (MB)   RECORD NAMES
              1      20      128.20       500      610      700      900      950      970     1000      129      960     1100   
                                          VAR    BASINP    GEOM    SYMINP    ZMAT    AOBASIS   BASIS     P2S    ABASIS      S 
                                         1400     1410     1200     1210     1080     1600     1650     1300     1700     1380   
                                           T        V       H0       H01     AOSYM     SMH    MOLCAS    ERIS     OPER     JKOP   

              2       4        2.94       700     1000      520     2100   
                                         GEOM     BASIS   MCVARS     RHF  

 PROGRAMS   *        TOTAL   CCSD(T)        HF       INT
 CPU TIMES  *         9.82      7.15      1.09      1.49
 REAL TIME  *        11.77 SEC
 DISK USED  *       327.55 MB      
 **********************************************************************************************************************************

 CCSD(T)/aug-cc-pVTZ energy=   -130.309580628987

        CCSD(T)         HF-SCF  
   -130.30958063   -129.83954052
 **********************************************************************************************************************************
 Molpro calculation terminated
 Variable memory released
