
 Primary working directories    : /tmp/r2666/235070.maple
 Secondary working directories  : /tmp/r2666/235070.maple
 Wavefunction directory         : /ddn/home4/r2666/wfu/
 Main file repository           : /tmp/r2666/235070.maple/

 SHA1      : d5ffa45e93fdbca01ffc919aa182cfdae0147319
 NAME      : 2015.1.35
 ARCHNAME  : linux/x86_64
 FC        : /opt/intel/composer_xe_2015.1.133/bin/intel64/ifort
 BLASLIB   : -Wl,-_start-group /opt/intel/mkl/lib/intel64/libmkl_intel_ilp64.a /opt/intel/mkl/lib/intel64/libmkl_intel_thread.a /opt/intel/mkl/lib/intel64/libmkl_core.a -Wl,-_end-group
 id        : olemiss

 Nodes     nprocs
 cn030        1

 Using customized tuning parameters: mindgm=1; mindgv=20; mindgc=4; mindgr=1; noblas=0; minvec=7
 default implementation of scratch files=df  

 ***,hno CCSD(T)/TZ-F12 QFF
 memory, 995, m;
 gthresh,energy=1.d-12,zero=1.d-22,oneint=1.d-22,twoint=1.d-22;
 gthresh,optgrad=1.d-8,optstep=1.d-8;
 nocompress;
 geomtyp=xyz
 bohr
 geometry={
 3
         55        55
 N        0.0000000000       -0.1535827539       -1.1282687689
 H        0.0000000000        1.6644012989       -1.9328195771
 O        0.0000000000        0.0309492450        1.1104987550
 }
 
 basis=vtz-dk
 dkroll=0
   {hf,maxit=500;accu,20;}
 {ccsd(t),nocheck,maxit=250;orbital,IGNORE_ERROR;}

 Variables initialized (889), CPU time= 0.00 sec
 Commands  initialized (702), CPU time= 0.01 sec, 572 directives.
 Default parameters read. Elapsed time= 0.07 sec

 Checking input...
 Passed
1


                                         ***  PROGRAM SYSTEM MOLPRO  ***
                                       Copyright, TTI GmbH Stuttgart, 2015
                                    Version 2015.1 linked Jul  9 2018 13:16:40


 **********************************************************************************************************************************
 LABEL *   hno CCSD(T)/TZ-F12 QFF                                                        
  64 bit serial version                                                                  DATE: 08-Feb-20          TIME: 17:57:05  
 **********************************************************************************************************************************

 SHA1:             d5ffa45e93fdbca01ffc919aa182cfdae0147319
 **********************************************************************************************************************************

 THRESHOLDS:

 ZERO    =  1.00D-22  ONEINT  =  1.00D-22  TWOINT  =  1.00D-22  PREFAC  =  1.00D-14  LOCALI  =  1.00D-09  EORDER  =  1.00D-04
 ENERGY  =  1.00D-12  ETEST   =  0.00D+00  EDENS   =  0.00D+00  THRDEDEF=  1.00D-06  GRADIENT=  1.00D-02  STEP    =  1.00D-03
 ORBITAL =  1.00D-05  CIVEC   =  1.00D-05  COEFF   =  1.00D-04  PRINTCI =  5.00D-02  PUNCHCI =  9.90D+01  OPTGRAD =  3.00D-04
 OPTENERG=  1.00D-06  OPTSTEP =  3.00D-04  THRGRAD =  1.00D-10  COMPRESS=  1.00D-11  VARMIN  =  1.00D-07  VARMAX  =  1.00D-03
 THRDOUB =  0.00D+00  THRDIV  =  1.00D-05  THRRED  =  1.00D-07  THRPSP  =  1.00D+00  THRDC   =  1.00D-10  THRCS   =  1.00D-10
 THRNRM  =  1.00D-08  THREQ   =  0.00D+00  THRDE   =  1.00D+00  THRREF  =  1.00D-05  SPARFAC =  1.00D+00  THRDLP  =  1.00D-07
 THRDIA  =  1.00D-10  THRDLS  =  1.00D-07  THRGPS  =  0.00D+00  THRKEX  =  0.00D+00  THRDIS  =  2.00D-01  THRVAR  =  1.00D-10
 THRLOC  =  1.00D-06  THRGAP  =  1.00D-06  THRLOCT = -1.00D+00  THRGAPT = -1.00D+00  THRORB  =  1.00D-06  THRMLTP =  0.00D+00
 THRCPQCI=  1.00D-10  KEXTA   =  0.00D+00  THRCOARS=  0.00D+00  SYMTOL  =  1.00D-06  GRADTOL =  1.00D-06  THROVL  =  1.00D-08
 THRORTH =  1.00D-08  GRID    =  1.00D-06  GRIDMAX =  1.00D-03  DTMAX   =  0.00D+00  THROCCDE=  1.00D-01  THROCCDE=  1.00D-01



 THRESHOLDS:

 ZERO    =  1.00D-22  ONEINT  =  1.00D-22  TWOINT  =  1.00D-22  PREFAC  =  1.00D-14  LOCALI  =  1.00D-09  EORDER  =  1.00D-04
 ENERGY  =  1.00D-12  ETEST   =  0.00D+00  EDENS   =  0.00D+00  THRDEDEF=  1.00D-06  GRADIENT=  1.00D-02  STEP    =  1.00D-03
 ORBITAL =  1.00D-05  CIVEC   =  1.00D-05  COEFF   =  1.00D-04  PRINTCI =  5.00D-02  PUNCHCI =  9.90D+01  OPTGRAD =  1.00D-08
 OPTENERG=  1.00D-06  OPTSTEP =  1.00D-08  THRGRAD =  1.00D-10  COMPRESS=  1.00D-11  VARMIN  =  1.00D-07  VARMAX  =  1.00D-03
 THRDOUB =  0.00D+00  THRDIV  =  1.00D-05  THRRED  =  1.00D-07  THRPSP  =  1.00D+00  THRDC   =  1.00D-10  THRCS   =  1.00D-10
 THRNRM  =  1.00D-08  THREQ   =  0.00D+00  THRDE   =  1.00D+00  THRREF  =  1.00D-05  SPARFAC =  1.00D+00  THRDLP  =  1.00D-07
 THRDIA  =  1.00D-10  THRDLS  =  1.00D-07  THRGPS  =  0.00D+00  THRKEX  =  0.00D+00  THRDIS  =  2.00D-01  THRVAR  =  1.00D-10
 THRLOC  =  1.00D-06  THRGAP  =  1.00D-06  THRLOCT = -1.00D+00  THRGAPT = -1.00D+00  THRORB  =  1.00D-06  THRMLTP =  0.00D+00
 THRCPQCI=  1.00D-10  KEXTA   =  0.00D+00  THRCOARS=  0.00D+00  SYMTOL  =  1.00D-06  GRADTOL =  1.00D-06  THROVL  =  1.00D-08
 THRORTH =  1.00D-08  GRID    =  1.00D-06  GRIDMAX =  1.00D-03  DTMAX   =  0.00D+00  THROCCDE=  1.00D-01  THROCCDE=  1.00D-01



 Input parameters for SORTINT:

 COMPRESS =    0.000000
 C_FINAL  =    1.000000
 DEBUG    =   -1.000000
 C_SORT1  =    0.000000
 C_SEWARD =    0.000000
 THRESH   =    0.000000
 IO       =  molpro                                                          
 SPRI     =    0.000000
 SETTING GEOMTYP        =    XYZ
 ZUNIT=BOHR
 

 Variable memory set to  995000000 words,  buffer space   230000 words

 SETTING BASIS          =    VTZ-DK
 SETTING DKROLL         =     0.00000000D+00                                  


 Recomputing integrals since basis changed


 Using spherical harmonics

 Library entry N      S cc-pVTZ-DK           selected for orbital group  1
 Library entry N      P cc-pVTZ-DK           selected for orbital group  1
 Library entry N      D cc-pVTZ-DK           selected for orbital group  1
 Library entry N      F cc-pVTZ-DK           selected for orbital group  1
 Library entry H      S cc-pVTZ-DK           selected for orbital group  2
 Library entry H      P cc-pVTZ-DK           selected for orbital group  2
 Library entry H      D cc-pVTZ-DK           selected for orbital group  2
 Library entry O      S cc-pVTZ-DK           selected for orbital group  3
 Library entry O      P cc-pVTZ-DK           selected for orbital group  3
 Library entry O      D cc-pVTZ-DK           selected for orbital group  3
 Library entry O      F cc-pVTZ-DK           selected for orbital group  3


 PROGRAM * SEWARD (Integral evaluation for generally contracted gaussian basis sets)     Author: Roland Lindh, 1990

 Geometry written to block  1 of record 700


 Point group  Cs  



 ATOMIC COORDINATES

 NR  ATOM    CHARGE       X              Y              Z

   1  N       7.00    0.000000000   -0.153582754   -1.128268769
   2  H       1.00    0.000000000    1.664401299   -1.932819577
   3  O       8.00    0.000000000    0.030949245    1.110498755

 Bond lengths in Bohr (Angstrom)

 1-2  1.988056342  1-3  2.246359741
     ( 1.052034110)     ( 1.188722382)

 Bond angles

  2-1-3  109.15984414

 NUCLEAR CHARGE:                   16
 NUMBER OF PRIMITIVE AOS:         111
 NUMBER OF SYMMETRY AOS:          100
 NUMBER OF CONTRACTIONS:           74   (  50A'  +  24A"  )
 NUMBER OF CORE ORBITALS:           2   (   2A'  +   0A"  )
 NUMBER OF VALENCE ORBITALS:        9   (   7A'  +   2A"  )


 NUCLEAR REPULSION ENERGY   30.76641977

 Eigenvalues of metric

         1 0.237E-02 0.381E-02 0.397E-02 0.827E-02 0.130E-01 0.314E-01 0.414E-01 0.461E-01
         2 0.334E-01 0.462E-01 0.992E-01 0.110E+00 0.228E+00 0.341E+00 0.389E+00 0.444E+00


 Contracted 2-electron integrals neglected if value below      1.0D-22

        1874283. INTEGRALS WRITTEN OUT IN     458 BLOCKS ON RECORD 1290 OF FILE 1


 NUMBER OF SORTED TWO-ELECTRON INTEGRALS:    2006100.     BUFFER LENGTH:  32768
 NUMBER OF SEGMENTS:   1  SEGMENT LENGTH:    2006100      RECORD LENGTH: 524288

 Memory used in sort:       2.56 MW

 SORT1 READ     1874283. AND WROTE     1914195. INTEGRALS IN      6 RECORDS. CPU TIME:     0.06 SEC, REAL TIME:     0.07 SEC
 SORT2 READ     1914195. AND WROTE     2006100. INTEGRALS IN      1 RECORDS. CPU TIME:     0.06 SEC, REAL TIME:     0.07 SEC

 FILE SIZES:   FILE 1:    50.1 MBYTE,  FILE 4:    25.2 MBYTE,   TOTAL:     75.3 MBYTE

 OPERATOR DM      FOR CENTER  0  COORDINATES:    0.000000    0.000000    0.000000


 **********************************************************************************************************************************
 DATASETS  * FILE   NREC   LENGTH (MB)   RECORD NAMES
              1      19       35.89       500      610      700      900      950      970     1000      129      960     1100   
                                          VAR    BASINP    GEOM    SYMINP    ZMAT    AOBASIS   BASIS     P2S    ABASIS      S 
                                         1400     1410     1200     1210     1080     1600     1650     1300     1700   
                                           T        V       H0       H01     AOSYM     SMH    MOLCAS    ERIS     OPER   

 PROGRAMS   *        TOTAL       INT
 CPU TIMES  *         0.68      0.59
 REAL TIME  *         1.27 SEC
 DISK USED  *        75.59 MB      
 **********************************************************************************************************************************


 PROGRAM * RHF-SCF (CLOSED SHELL)       Authors: W. Meyer, H.-J. Werner


 NUMBER OF ELECTRONS:       8+    8-
 CONVERGENCE THRESHOLDS:    1.00E-10 (Density)    1.00E-13 (Energy)
 MAX. NUMBER OF ITERATIONS:      500
 INTERPOLATION TYPE:            DIIS
 INTERPOLATION STEPS:              2 (START)      1 (STEP)
 LEVEL SHIFTS:                  0.00 (CLOSED)  0.00 (OPEN) 



 Orbital guess generated from atomic densities. Full valence occupancy:    9   2

 Molecular orbital dump at record        2100.2

 Initial occupancy:   7   1

 ITERATION    DDIFF          GRAD             ENERGY        2-EL.EN.            DIPOLE MOMENTS         DIIS   ORB.
    1      0.000D+00      0.000D+00      -129.78513744    154.843131    0.00000    0.58954   -0.97985    0    start
    2      0.000D+00      0.132D-01      -129.81243109    156.030066    0.00000    0.60202   -0.23630    1    diag
    3      0.179D-01      0.965D-02      -129.83154765    156.109734    0.00000    0.55747   -0.57786    2    diag
    4      0.850D-02      0.153D-02      -129.83225298    155.855827    0.00000    0.56582   -0.52109    3    diag
    5      0.164D-02      0.500D-03      -129.83236076    155.940275    0.00000    0.57128   -0.52275    4    diag
    6      0.698D-03      0.148D-03      -129.83237830    155.925845    0.00000    0.57194   -0.51893    5    diag
    7      0.270D-03      0.726D-04      -129.83238315    155.928323    0.00000    0.57322   -0.51671    6    diag
    8      0.183D-03      0.220D-04      -129.83238355    155.927719    0.00000    0.57325   -0.51602    7    diag
    9      0.559D-04      0.396D-05      -129.83238356    155.927618    0.00000    0.57321   -0.51589    8    diag
   10      0.107D-04      0.919D-06      -129.83238356    155.927601    0.00000    0.57317   -0.51586    9    orth
   11      0.265D-05      0.182D-06      -129.83238356    155.927596    0.00000    0.57317   -0.51586    9    diag
   12      0.496D-06      0.365D-07      -129.83238356    155.927595    0.00000    0.57316   -0.51586    9    diag
   13      0.105D-06      0.879D-08      -129.83238356    155.927595    0.00000    0.57316   -0.51586    9    diag
   14      0.257D-07      0.169D-08      -129.83238356    155.927595    0.00000    0.57316   -0.51586    9    diag
   15      0.458D-08      0.467D-09      -129.83238356    155.927595    0.00000    0.57316   -0.51586    9    diag
   16      0.111D-08      0.133D-09      -129.83238356    155.927595    0.00000    0.57316   -0.51586    9    diag
   17      0.245D-09      0.390D-10      -129.83238356    155.927595    0.00000    0.57316   -0.51586    9    diag
   18      0.829D-10      0.121D-10      -129.83238356    155.927595    0.00000    0.57316   -0.51586    9    diag
   19      0.278D-10      0.267D-11      -129.83238356    155.927595    0.00000    0.57316   -0.51586    0    orth

 Final occupancy:   7   1

 !RHF STATE 1.1 Energy               -129.832383562668
 Nuclear energy                        30.76641977
 One-electron energy                 -238.56260069
 Two-electron energy                   77.96379736
 Virial quotient                       -0.99911846
 !RHF STATE 1.1 Dipole moment           0.00000000     0.57316421    -0.51585879
 Dipole moment /Debye                   0.00000000     1.45674269    -1.31109638

 Orbital energies:

         1.1          2.1          3.1          4.1          5.1          6.1          7.1          8.1          9.1
    -20.646311   -15.704289    -1.541451    -0.987080    -0.749087    -0.667763    -0.420217     0.145023     0.372352

         1.2          2.2          3.2
     -0.601305     0.093430     0.610862

 HOMO      7.1    -0.420217 =     -11.4347eV
 LUMO      2.2     0.093430 =       2.5423eV
 LUMO-HOMO         0.513646 =      13.9770eV


 **********************************************************************************************************************************
 DATASETS  * FILE   NREC   LENGTH (MB)   RECORD NAMES
              1      19       35.89       500      610      700      900      950      970     1000      129      960     1100   
                                          VAR    BASINP    GEOM    SYMINP    ZMAT    AOBASIS   BASIS     P2S    ABASIS      S 
                                         1400     1410     1200     1210     1080     1600     1650     1300     1700   
                                           T        V       H0       H01     AOSYM     SMH    MOLCAS    ERIS     OPER   

              2       4        2.85       700     1000      520     2100   
                                         GEOM     BASIS   MCVARS     RHF  

 PROGRAMS   *        TOTAL        HF       INT
 CPU TIMES  *         0.92      0.24      0.59
 REAL TIME  *         1.57 SEC
 DISK USED  *        75.59 MB      
 **********************************************************************************************************************************


 PROGRAM * CCSD (Closed-shell coupled cluster)     Authors: C. Hampel, H.-J. Werner, 1991, M. Deegan, P.J. Knowles, 1992


 Convergence thresholds:  THRVAR = 1.00D-08  THRDEN = 1.00D-12

 CCSD(T)     terms to be evaluated (factor= 1.000)


 Number of core orbitals:           2 (   2   0 )
 Number of closed-shell orbitals:   6 (   5   1 )
 Number of external orbitals:      66 (  43  23 )

 Molecular orbitals read from record     2100.2  Type=RHF/CANONICAL (state 1.1)

 Number of N-1 electron functions:               6
 Number of N-2 electron functions:              21
 Number of singly external CSFs:               238
 Number of doubly external CSFs:             41002
 Total number of CSFs:                       41241

 Length of J-op  integral file:               0.00 MB
 Length of K-op  integral file:               0.25 MB
 Length of 3-ext integral record:             0.00 MB

 Memory could be reduced to 1.65 Mwords without degradation in triples

 Integral transformation finished. Total CPU:   0.03 sec, npass=  1  Memory used:   0.55 MW

 Reference energy:                   -129.83238356

 MP2 singlet pair energy:              -0.27156089
 MP2 triplet pair energy:              -0.16112248
 MP2 correlation energy:               -0.43268336
 MP2 total energy:                   -130.26506693

 SCS-MP2 correlation energy:           -0.42612705   (PS=  1.200000  PT=  0.333333)
 SCS-MP2 total energy:               -130.25851061

 ITER.      SQ.NORM     CORR.ENERGY   TOTAL ENERGY   ENERGY CHANGE        DEN1      VAR(S)    VAR(P)  DIIS     TIME  TIME/IT
   1      1.11637712    -0.43852991  -130.27091347    -0.00584655     0.00916616  0.27D-02  0.28D-02  1  1     0.09     0.05
   2      1.12677036    -0.43892304  -130.27130660    -0.00039312    -0.01182910  0.79D-04  0.47D-03  2  2     0.14     0.05
   3      1.13267269    -0.43928227  -130.27166583    -0.00035923    -0.00284772  0.43D-04  0.47D-04  3  3     0.19     0.05
   4      1.13526871    -0.43930630  -130.27168986    -0.00002403    -0.00089997  0.36D-05  0.83D-05  4  4     0.23     0.05
   5      1.13617465    -0.43933279  -130.27171636    -0.00002649    -0.00018717  0.13D-05  0.17D-05  5  5     0.28     0.05
   6      1.13651541    -0.43931838  -130.27170195     0.00001441    -0.00003778  0.97D-07  0.41D-06  6  6     0.33     0.05
   7      1.13660387    -0.43932005  -130.27170362    -0.00000167    -0.00000296  0.12D-07  0.81D-07  6  1     0.38     0.05
   8      1.13663412    -0.43932028  -130.27170384    -0.00000022     0.00000185  0.43D-08  0.89D-08  6  2     0.42     0.05
   9      1.13664133    -0.43932009  -130.27170365     0.00000019    -0.00000217  0.24D-08  0.98D-09  6  3     0.47     0.05
  10      1.13664011    -0.43932056  -130.27170413    -0.00000048     0.00000057  0.47D-09  0.18D-09  6  4     0.52     0.05
  11      1.13663839    -0.43932062  -130.27170418    -0.00000006     0.00000021  0.14D-09  0.21D-10  6  5     0.57     0.05
  12      1.13663704    -0.43932078  -130.27170435    -0.00000016     0.00000041  0.16D-10  0.72D-11  6  6     0.62     0.05
  13      1.13663645    -0.43932079  -130.27170435    -0.00000001     0.00000012  0.66D-11  0.11D-11  6  1     0.66     0.05
  14      1.13663609    -0.43932081  -130.27170437    -0.00000002     0.00000007  0.88D-12  0.40D-12  6  2     0.70     0.05
  15      1.13663597    -0.43932081  -130.27170437    -0.00000000     0.00000001  0.21D-12  0.14D-12  6  3     0.75     0.05
  16      1.13663588    -0.43932081  -130.27170437    -0.00000000     0.00000001  0.25D-13  0.15D-13  6  5     0.80     0.05
  17      1.13663586    -0.43932081  -130.27170437    -0.00000000     0.00000000  0.95D-15  0.25D-14  6  4     0.84     0.05
  18      1.13663585    -0.43932081  -130.27170437     0.00000000    -0.00000000  0.55D-15  0.37D-15  6  1     0.89     0.05
  19      1.13663585    -0.43932081  -130.27170437    -0.00000000     0.00000000  0.42D-16  0.61D-16  6  6     0.94     0.05
  20      1.13663585    -0.43932081  -130.27170437    -0.00000000     0.00000000  0.81D-17  0.13D-16  6  2     1.00     0.05
  21      1.13663585    -0.43932081  -130.27170437    -0.00000000     0.00000000  0.18D-17  0.99D-18  6  5     1.05     0.05
  22      1.13663585    -0.43932081  -130.27170437     0.00000000     0.00000000  0.12D-18  0.73D-19  6  3     1.10     0.05
  23      1.13663585    -0.43932081  -130.27170437     0.00000000    -0.00000000  0.34D-19  0.16D-19  6  4     1.14     0.05
  24      1.13663585    -0.43932081  -130.27170437     0.00000000    -0.00000000  0.48D-20  0.46D-20  6  1     1.19     0.05
  25      1.13663585    -0.43932081  -130.27170437     0.00000000    -0.00000000  0.43D-21  0.84D-21  6  6     1.24     0.05

 Norm of t1 vector:      0.07240775      S-energy:     0.00000000      T1 diagnostic:  0.01478017
                                                                       D1 diagnostic:  0.04009520

 Doubles amplitudes (print threshold =  0.500E-01):

         I         J         SYM. A    SYM. B    A         B      T(IJ, AB)

         6         6         2         2         1         1     -0.13843782


 Total CPU time for triples:      0.36 sec


 RESULTS
 =======

  Reference energy                   -129.832383562668
  CCSD singlet pair energy             -0.300768162086
  CCSD triplet pair energy             -0.138552649772
  CCSD correlation energy              -0.439320811856

  Triples (T) contribution             -0.019209008654
  Total correlation energy             -0.458529820510

  CCSD total energy                  -130.271704374525
  CCSD[T] energy                     -130.291858255271
  CCSD-T energy                      -130.290534584007
 !CCSD(T) total energy               -130.290913383179

 Timing summary (sec):

 STEP                 CPU(USER)    SYS     CPU(TOT)    WALL
 Transformation          0.03      0.01      0.04      0.05
 CCSD iterations         1.22      0.18      1.40      1.38
 Triples                 0.36      0.01      0.37      0.37

 Program statistics:

 Available memory in ccsd:               994999756
 Min. memory needed in ccsd:                154850
 Max. memory used in ccsd:                  184802
 Max. memory used in cckext:                238416 (25 integral passes)



 **********************************************************************************************************************************
 DATASETS  * FILE   NREC   LENGTH (MB)   RECORD NAMES
              1      20       40.28       500      610      700      900      950      970     1000      129      960     1100   
                                          VAR    BASINP    GEOM    SYMINP    ZMAT    AOBASIS   BASIS     P2S    ABASIS      S 
                                         1400     1410     1200     1210     1080     1600     1650     1300     1700     1380   
                                           T        V       H0       H01     AOSYM     SMH    MOLCAS    ERIS     OPER     JKOP   

              2       4        2.85       700     1000      520     2100   
                                         GEOM     BASIS   MCVARS     RHF  

 PROGRAMS   *        TOTAL   CCSD(T)        HF       INT
 CPU TIMES  *         2.54      1.62      0.24      0.59
 REAL TIME  *         3.41 SEC
 DISK USED  *        75.59 MB      
 **********************************************************************************************************************************

 CCSD(T)/cc-pVTZ-DK energy=   -130.290913383179

        CCSD(T)         HF-SCF  
   -130.29091338   -129.83238356
 **********************************************************************************************************************************
 Molpro calculation terminated
 Variable memory released
