
 Primary working directories    : /tmp/r2666/235063.maple
 Secondary working directories  : /tmp/r2666/235063.maple
 Wavefunction directory         : /ddn/home4/r2666/wfu/
 Main file repository           : /tmp/r2666/235063.maple/

 SHA1      : d5ffa45e93fdbca01ffc919aa182cfdae0147319
 NAME      : 2015.1.35
 ARCHNAME  : linux/x86_64
 FC        : /opt/intel/composer_xe_2015.1.133/bin/intel64/ifort
 BLASLIB   : -Wl,-_start-group /opt/intel/mkl/lib/intel64/libmkl_intel_ilp64.a /opt/intel/mkl/lib/intel64/libmkl_intel_thread.a /opt/intel/mkl/lib/intel64/libmkl_core.a -Wl,-_end-group
 id        : olemiss

 Nodes     nprocs
 cn047        1

 Using customized tuning parameters: mindgm=1; mindgv=20; mindgc=4; mindgr=1; noblas=0; minvec=7
 default implementation of scratch files=df  

 ***,hno CCSD(T)/TZ-F12 QFF
 memory, 995, m;
 gthresh,energy=1.d-12,zero=1.d-22,oneint=1.d-22,twoint=1.d-22;
 gthresh,optgrad=1.d-8,optstep=1.d-8;
 nocompress;
 geomtyp=xyz
 bohr
 geometry={
 3
         48        48
 N        0.0000000000       -0.1647963980       -1.1405073955
 H        0.0000000000        1.6645343148       -1.9189142060
 O        0.0000000000        0.0420298732        1.1088320105
 }
 
 basis=vtz-dk
 dkroll=0
   {hf,maxit=500;accu,20;}
 {ccsd(t),nocheck,maxit=250;orbital,IGNORE_ERROR;}

 Variables initialized (889), CPU time= 0.00 sec
 Commands  initialized (702), CPU time= 0.01 sec, 572 directives.
 Default parameters read. Elapsed time= 0.06 sec

 Checking input...
 Passed
1


                                         ***  PROGRAM SYSTEM MOLPRO  ***
                                       Copyright, TTI GmbH Stuttgart, 2015
                                    Version 2015.1 linked Jul  9 2018 13:16:40


 **********************************************************************************************************************************
 LABEL *   hno CCSD(T)/TZ-F12 QFF                                                        
  64 bit serial version                                                                  DATE: 08-Feb-20          TIME: 17:57:03  
 **********************************************************************************************************************************

 SHA1:             d5ffa45e93fdbca01ffc919aa182cfdae0147319
 **********************************************************************************************************************************

 THRESHOLDS:

 ZERO    =  1.00D-22  ONEINT  =  1.00D-22  TWOINT  =  1.00D-22  PREFAC  =  1.00D-14  LOCALI  =  1.00D-09  EORDER  =  1.00D-04
 ENERGY  =  1.00D-12  ETEST   =  0.00D+00  EDENS   =  0.00D+00  THRDEDEF=  1.00D-06  GRADIENT=  1.00D-02  STEP    =  1.00D-03
 ORBITAL =  1.00D-05  CIVEC   =  1.00D-05  COEFF   =  1.00D-04  PRINTCI =  5.00D-02  PUNCHCI =  9.90D+01  OPTGRAD =  3.00D-04
 OPTENERG=  1.00D-06  OPTSTEP =  3.00D-04  THRGRAD =  1.00D-10  COMPRESS=  1.00D-11  VARMIN  =  1.00D-07  VARMAX  =  1.00D-03
 THRDOUB =  0.00D+00  THRDIV  =  1.00D-05  THRRED  =  1.00D-07  THRPSP  =  1.00D+00  THRDC   =  1.00D-10  THRCS   =  1.00D-10
 THRNRM  =  1.00D-08  THREQ   =  0.00D+00  THRDE   =  1.00D+00  THRREF  =  1.00D-05  SPARFAC =  1.00D+00  THRDLP  =  1.00D-07
 THRDIA  =  1.00D-10  THRDLS  =  1.00D-07  THRGPS  =  0.00D+00  THRKEX  =  0.00D+00  THRDIS  =  2.00D-01  THRVAR  =  1.00D-10
 THRLOC  =  1.00D-06  THRGAP  =  1.00D-06  THRLOCT = -1.00D+00  THRGAPT = -1.00D+00  THRORB  =  1.00D-06  THRMLTP =  0.00D+00
 THRCPQCI=  1.00D-10  KEXTA   =  0.00D+00  THRCOARS=  0.00D+00  SYMTOL  =  1.00D-06  GRADTOL =  1.00D-06  THROVL  =  1.00D-08
 THRORTH =  1.00D-08  GRID    =  1.00D-06  GRIDMAX =  1.00D-03  DTMAX   =  0.00D+00  THROCCDE=  1.00D-01  THROCCDE=  1.00D-01



 THRESHOLDS:

 ZERO    =  1.00D-22  ONEINT  =  1.00D-22  TWOINT  =  1.00D-22  PREFAC  =  1.00D-14  LOCALI  =  1.00D-09  EORDER  =  1.00D-04
 ENERGY  =  1.00D-12  ETEST   =  0.00D+00  EDENS   =  0.00D+00  THRDEDEF=  1.00D-06  GRADIENT=  1.00D-02  STEP    =  1.00D-03
 ORBITAL =  1.00D-05  CIVEC   =  1.00D-05  COEFF   =  1.00D-04  PRINTCI =  5.00D-02  PUNCHCI =  9.90D+01  OPTGRAD =  1.00D-08
 OPTENERG=  1.00D-06  OPTSTEP =  1.00D-08  THRGRAD =  1.00D-10  COMPRESS=  1.00D-11  VARMIN  =  1.00D-07  VARMAX  =  1.00D-03
 THRDOUB =  0.00D+00  THRDIV  =  1.00D-05  THRRED  =  1.00D-07  THRPSP  =  1.00D+00  THRDC   =  1.00D-10  THRCS   =  1.00D-10
 THRNRM  =  1.00D-08  THREQ   =  0.00D+00  THRDE   =  1.00D+00  THRREF  =  1.00D-05  SPARFAC =  1.00D+00  THRDLP  =  1.00D-07
 THRDIA  =  1.00D-10  THRDLS  =  1.00D-07  THRGPS  =  0.00D+00  THRKEX  =  0.00D+00  THRDIS  =  2.00D-01  THRVAR  =  1.00D-10
 THRLOC  =  1.00D-06  THRGAP  =  1.00D-06  THRLOCT = -1.00D+00  THRGAPT = -1.00D+00  THRORB  =  1.00D-06  THRMLTP =  0.00D+00
 THRCPQCI=  1.00D-10  KEXTA   =  0.00D+00  THRCOARS=  0.00D+00  SYMTOL  =  1.00D-06  GRADTOL =  1.00D-06  THROVL  =  1.00D-08
 THRORTH =  1.00D-08  GRID    =  1.00D-06  GRIDMAX =  1.00D-03  DTMAX   =  0.00D+00  THROCCDE=  1.00D-01  THROCCDE=  1.00D-01



 Input parameters for SORTINT:

 COMPRESS =    0.000000
 C_FINAL  =    1.000000
 DEBUG    =   -1.000000
 C_SORT1  =    0.000000
 C_SEWARD =    0.000000
 THRESH   =    0.000000
 IO       =  molpro                                                          
 SPRI     =    0.000000
 SETTING GEOMTYP        =    XYZ
 ZUNIT=BOHR
 

 Variable memory set to  995000000 words,  buffer space   230000 words

 SETTING BASIS          =    VTZ-DK
 SETTING DKROLL         =     0.00000000D+00                                  


 Recomputing integrals since basis changed


 Using spherical harmonics

 Library entry N      S cc-pVTZ-DK           selected for orbital group  1
 Library entry N      P cc-pVTZ-DK           selected for orbital group  1
 Library entry N      D cc-pVTZ-DK           selected for orbital group  1
 Library entry N      F cc-pVTZ-DK           selected for orbital group  1
 Library entry H      S cc-pVTZ-DK           selected for orbital group  2
 Library entry H      P cc-pVTZ-DK           selected for orbital group  2
 Library entry H      D cc-pVTZ-DK           selected for orbital group  2
 Library entry O      S cc-pVTZ-DK           selected for orbital group  3
 Library entry O      P cc-pVTZ-DK           selected for orbital group  3
 Library entry O      D cc-pVTZ-DK           selected for orbital group  3
 Library entry O      F cc-pVTZ-DK           selected for orbital group  3


 PROGRAM * SEWARD (Integral evaluation for generally contracted gaussian basis sets)     Author: Roland Lindh, 1990

 Geometry written to block  1 of record 700


 Point group  Cs  



 ATOMIC COORDINATES

 NR  ATOM    CHARGE       X              Y              Z

   1  N       7.00    0.000000000   -0.164796398   -1.140507396
   2  H       1.00    0.000000000    1.664534315   -1.918914206
   3  O       8.00    0.000000000    0.042029873    1.108832011

 Bond lengths in Bohr (Angstrom)

 1-2  1.988056342  1-3  2.258828207
     ( 1.052034110)     ( 1.195320411)

 Bond angles

  2-1-3  107.79689599

 NUCLEAR CHARGE:                   16
 NUMBER OF PRIMITIVE AOS:         111
 NUMBER OF SYMMETRY AOS:          100
 NUMBER OF CONTRACTIONS:           74   (  50A'  +  24A"  )
 NUMBER OF CORE ORBITALS:           2   (   2A'  +   0A"  )
 NUMBER OF VALENCE ORBITALS:        9   (   7A'  +   2A"  )


 NUCLEAR REPULSION ENERGY   30.64155525

 Eigenvalues of metric

         1 0.240E-02 0.389E-02 0.402E-02 0.828E-02 0.130E-01 0.319E-01 0.418E-01 0.463E-01
         2 0.336E-01 0.464E-01 0.999E-01 0.111E+00 0.230E+00 0.340E+00 0.392E+00 0.446E+00


 Contracted 2-electron integrals neglected if value below      1.0D-22

        1874283. INTEGRALS WRITTEN OUT IN     458 BLOCKS ON RECORD 1290 OF FILE 1


 NUMBER OF SORTED TWO-ELECTRON INTEGRALS:    2006100.     BUFFER LENGTH:  32768
 NUMBER OF SEGMENTS:   1  SEGMENT LENGTH:    2006100      RECORD LENGTH: 524288

 Memory used in sort:       2.56 MW

 SORT1 READ     1874283. AND WROTE     1914195. INTEGRALS IN      6 RECORDS. CPU TIME:     0.07 SEC, REAL TIME:     0.07 SEC
 SORT2 READ     1914195. AND WROTE     2006100. INTEGRALS IN      1 RECORDS. CPU TIME:     0.05 SEC, REAL TIME:     0.07 SEC

 FILE SIZES:   FILE 1:    50.1 MBYTE,  FILE 4:    25.2 MBYTE,   TOTAL:     75.3 MBYTE

 OPERATOR DM      FOR CENTER  0  COORDINATES:    0.000000    0.000000    0.000000


 **********************************************************************************************************************************
 DATASETS  * FILE   NREC   LENGTH (MB)   RECORD NAMES
              1      19       35.89       500      610      700      900      950      970     1000      129      960     1100   
                                          VAR    BASINP    GEOM    SYMINP    ZMAT    AOBASIS   BASIS     P2S    ABASIS      S 
                                         1400     1410     1200     1210     1080     1600     1650     1300     1700   
                                           T        V       H0       H01     AOSYM     SMH    MOLCAS    ERIS     OPER   

 PROGRAMS   *        TOTAL       INT
 CPU TIMES  *         0.73      0.63
 REAL TIME  *         1.48 SEC
 DISK USED  *        75.59 MB      
 **********************************************************************************************************************************


 PROGRAM * RHF-SCF (CLOSED SHELL)       Authors: W. Meyer, H.-J. Werner


 NUMBER OF ELECTRONS:       8+    8-
 CONVERGENCE THRESHOLDS:    1.00E-10 (Density)    1.00E-13 (Energy)
 MAX. NUMBER OF ITERATIONS:      500
 INTERPOLATION TYPE:            DIIS
 INTERPOLATION STEPS:              2 (START)      1 (STEP)
 LEVEL SHIFTS:                  0.00 (CLOSED)  0.00 (OPEN) 



 Orbital guess generated from atomic densities. Full valence occupancy:    9   2

 Molecular orbital dump at record        2100.2

 Initial occupancy:   7   1

 ITERATION    DDIFF          GRAD             ENERGY        2-EL.EN.            DIPOLE MOMENTS         DIIS   ORB.
    1      0.000D+00      0.000D+00      -129.78349415    154.623954    0.00000    0.58118   -0.99751    0    start
    2      0.000D+00      0.134D-01      -129.81071777    155.796038    0.00000    0.60714   -0.22852    1    diag
    3      0.181D-01      0.990D-02      -129.83090578    155.889474    0.00000    0.55584   -0.58226    2    diag
    4      0.868D-02      0.154D-02      -129.83162114    155.631373    0.00000    0.56473   -0.52472    3    diag
    5      0.164D-02      0.507D-03      -129.83173174    155.715978    0.00000    0.57009   -0.52611    4    diag
    6      0.707D-03      0.150D-03      -129.83174986    155.701395    0.00000    0.57068   -0.52216    5    diag
    7      0.274D-03      0.743D-04      -129.83175497    155.703795    0.00000    0.57194   -0.51982    6    diag
    8      0.186D-03      0.229D-04      -129.83175540    155.703154    0.00000    0.57196   -0.51909    7    diag
    9      0.590D-04      0.413D-05      -129.83175542    155.703049    0.00000    0.57191   -0.51895    8    diag
   10      0.113D-04      0.934D-06      -129.83175542    155.703032    0.00000    0.57188   -0.51893    9    orth
   11      0.267D-05      0.185D-06      -129.83175542    155.703028    0.00000    0.57187   -0.51892    9    diag
   12      0.496D-06      0.377D-07      -129.83175542    155.703026    0.00000    0.57187   -0.51892    9    diag
   13      0.108D-06      0.916D-08      -129.83175542    155.703026    0.00000    0.57187   -0.51892    9    diag
   14      0.264D-07      0.171D-08      -129.83175542    155.703026    0.00000    0.57187   -0.51892    9    diag
   15      0.452D-08      0.465D-09      -129.83175542    155.703026    0.00000    0.57187   -0.51892    9    diag
   16      0.109D-08      0.128D-09      -129.83175542    155.703026    0.00000    0.57187   -0.51892    9    diag
   17      0.230D-09      0.383D-10      -129.83175542    155.703026    0.00000    0.57187   -0.51892    9    diag
   18      0.776D-10      0.122D-10      -129.83175542    155.703026    0.00000    0.57187   -0.51892    9    diag
   19      0.283D-10      0.267D-11      -129.83175542    155.703026    0.00000    0.57187   -0.51892    9    fixocc
   20      0.655D-11      0.427D-12      -129.83175542    155.703026    0.00000    0.57187   -0.51892    0    orth

 Final occupancy:   7   1

 !RHF STATE 1.1 Energy               -129.831755422926
 Nuclear energy                        30.64155525
 One-electron energy                 -238.32482374
 Two-electron energy                   77.85151306
 Virial quotient                       -0.99928471
 !RHF STATE 1.1 Dipole moment           0.00000000     0.57186985    -0.51892203
 Dipole moment /Debye                   0.00000000     1.45345297    -1.31888186

 Orbital energies:

         1.1          2.1          3.1          4.1          5.1          6.1          7.1          8.1          9.1
    -20.646610   -15.705721    -1.536595    -0.987791    -0.747139    -0.665537    -0.423243     0.144902     0.371595

         1.2          2.2          3.2
     -0.598262     0.091067     0.611526

 HOMO      7.1    -0.423243 =     -11.5170eV
 LUMO      2.2     0.091067 =       2.4781eV
 LUMO-HOMO         0.514311 =      13.9951eV


 **********************************************************************************************************************************
 DATASETS  * FILE   NREC   LENGTH (MB)   RECORD NAMES
              1      19       35.89       500      610      700      900      950      970     1000      129      960     1100   
                                          VAR    BASINP    GEOM    SYMINP    ZMAT    AOBASIS   BASIS     P2S    ABASIS      S 
                                         1400     1410     1200     1210     1080     1600     1650     1300     1700   
                                           T        V       H0       H01     AOSYM     SMH    MOLCAS    ERIS     OPER   

              2       4        2.85       700     1000      520     2100   
                                         GEOM     BASIS   MCVARS     RHF  

 PROGRAMS   *        TOTAL        HF       INT
 CPU TIMES  *         1.01      0.28      0.63
 REAL TIME  *         1.83 SEC
 DISK USED  *        75.59 MB      
 **********************************************************************************************************************************


 PROGRAM * CCSD (Closed-shell coupled cluster)     Authors: C. Hampel, H.-J. Werner, 1991, M. Deegan, P.J. Knowles, 1992


 Convergence thresholds:  THRVAR = 1.00D-08  THRDEN = 1.00D-12

 CCSD(T)     terms to be evaluated (factor= 1.000)


 Number of core orbitals:           2 (   2   0 )
 Number of closed-shell orbitals:   6 (   5   1 )
 Number of external orbitals:      66 (  43  23 )

 Molecular orbitals read from record     2100.2  Type=RHF/CANONICAL (state 1.1)

 Number of N-1 electron functions:               6
 Number of N-2 electron functions:              21
 Number of singly external CSFs:               238
 Number of doubly external CSFs:             41002
 Total number of CSFs:                       41241

 Length of J-op  integral file:               0.00 MB
 Length of K-op  integral file:               0.25 MB
 Length of 3-ext integral record:             0.00 MB

 Memory could be reduced to 1.65 Mwords without degradation in triples

 Integral transformation finished. Total CPU:   0.04 sec, npass=  1  Memory used:   0.55 MW

 Reference energy:                   -129.83175542

 MP2 singlet pair energy:              -0.27224201
 MP2 triplet pair energy:              -0.16155708
 MP2 correlation energy:               -0.43379909
 MP2 total energy:                   -130.26555452

 SCS-MP2 correlation energy:           -0.42721482   (PS=  1.200000  PT=  0.333333)
 SCS-MP2 total energy:               -130.25897024

 ITER.      SQ.NORM     CORR.ENERGY   TOTAL ENERGY   ENERGY CHANGE        DEN1      VAR(S)    VAR(P)  DIIS     TIME  TIME/IT
   1      1.11704252    -0.43940766  -130.27116308    -0.00560857     0.00963111  0.28D-02  0.29D-02  1  1     0.11     0.06
   2      1.12756748    -0.43976166  -130.27151708    -0.00035400    -0.01196435  0.81D-04  0.48D-03  2  2     0.17     0.06
   3      1.13357393    -0.44012687  -130.27188230    -0.00036521    -0.00288858  0.44D-04  0.48D-04  3  3     0.22     0.06
   4      1.13622436    -0.44015238  -130.27190781    -0.00002551    -0.00091610  0.36D-05  0.83D-05  4  4     0.28     0.06
   5      1.13714393    -0.44017949  -130.27193492    -0.00002711    -0.00019039  0.13D-05  0.16D-05  5  5     0.34     0.06
   6      1.13748327    -0.44016449  -130.27191992     0.00001500    -0.00003815  0.95D-07  0.40D-06  6  6     0.40     0.06
   7      1.13756808    -0.44016630  -130.27192173    -0.00000181    -0.00000248  0.12D-07  0.81D-07  6  1     0.45     0.06
   8      1.13759788    -0.44016640  -130.27192182    -0.00000010     0.00000190  0.42D-08  0.90D-08  6  2     0.52     0.06
   9      1.13760501    -0.44016624  -130.27192166     0.00000017    -0.00000219  0.23D-08  0.99D-09  6  3     0.57     0.06
  10      1.13760381    -0.44016671  -130.27192213    -0.00000047     0.00000060  0.45D-09  0.18D-09  6  4     0.62     0.06
  11      1.13760216    -0.44016676  -130.27192218    -0.00000006     0.00000018  0.14D-09  0.20D-10  6  5     0.68     0.06
  12      1.13760084    -0.44016692  -130.27192235    -0.00000016     0.00000040  0.14D-10  0.68D-11  6  6     0.74     0.06
  13      1.13760028    -0.44016693  -130.27192235    -0.00000001     0.00000011  0.62D-11  0.11D-11  6  1     0.80     0.06
  14      1.13759993    -0.44016695  -130.27192237    -0.00000002     0.00000007  0.86D-12  0.38D-12  6  2     0.85     0.06
  15      1.13759980    -0.44016695  -130.27192237    -0.00000000     0.00000001  0.21D-12  0.13D-12  6  3     0.91     0.06
  16      1.13759972    -0.44016695  -130.27192237    -0.00000000     0.00000001  0.23D-13  0.14D-13  6  5     0.97     0.06
  17      1.13759969    -0.44016695  -130.27192237    -0.00000000     0.00000000  0.76D-15  0.22D-14  6  4     1.02     0.06
  18      1.13759969    -0.44016695  -130.27192237     0.00000000    -0.00000000  0.48D-15  0.32D-15  6  1     1.08     0.06
  19      1.13759968    -0.44016695  -130.27192237    -0.00000000     0.00000000  0.39D-16  0.54D-16  6  6     1.13     0.06
  20      1.13759968    -0.44016695  -130.27192237    -0.00000000     0.00000000  0.80D-17  0.12D-16  6  2     1.19     0.06
  21      1.13759968    -0.44016695  -130.27192237    -0.00000000     0.00000000  0.17D-17  0.92D-18  6  5     1.25     0.06
  22      1.13759968    -0.44016695  -130.27192237     0.00000000     0.00000000  0.10D-18  0.70D-19  6  3     1.31     0.06
  23      1.13759968    -0.44016695  -130.27192237     0.00000000    -0.00000000  0.30D-19  0.15D-19  6  4     1.36     0.06
  24      1.13759968    -0.44016695  -130.27192237     0.00000000    -0.00000000  0.44D-20  0.43D-20  6  1     1.41     0.06
  25      1.13759968    -0.44016695  -130.27192237     0.00000000    -0.00000000  0.47D-21  0.76D-21  6  6     1.47     0.06

 Norm of t1 vector:      0.07294772      S-energy:     0.00000000      T1 diagnostic:  0.01489039
                                                                       D1 diagnostic:  0.04079667

 Doubles amplitudes (print threshold =  0.500E-01):

         I         J         SYM. A    SYM. B    A         B      T(IJ, AB)

         6         6         2         2         1         1     -0.14023251


 Total CPU time for triples:      0.40 sec


 RESULTS
 =======

  Reference energy                   -129.831755422926
  CCSD singlet pair energy             -0.301506279052
  CCSD triplet pair energy             -0.138660670685
  CCSD correlation energy              -0.440166949737

  Triples (T) contribution             -0.019386275126
  Total correlation energy             -0.459553224863

  CCSD total energy                  -130.271922372663
  CCSD[T] energy                     -130.292271363046
  CCSD-T energy                      -130.290925108862
 !CCSD(T) total energy               -130.291308647788

 Timing summary (sec):

 STEP                 CPU(USER)    SYS     CPU(TOT)    WALL
 Transformation          0.05      0.01      0.06      0.06
 CCSD iterations         1.42      0.16      1.58      1.59
 Triples                 0.40      0.02      0.42      0.41

 Program statistics:

 Available memory in ccsd:               994999756
 Min. memory needed in ccsd:                154850
 Max. memory used in ccsd:                  184802
 Max. memory used in cckext:                238416 (25 integral passes)



 **********************************************************************************************************************************
 DATASETS  * FILE   NREC   LENGTH (MB)   RECORD NAMES
              1      20       40.28       500      610      700      900      950      970     1000      129      960     1100   
                                          VAR    BASINP    GEOM    SYMINP    ZMAT    AOBASIS   BASIS     P2S    ABASIS      S 
                                         1400     1410     1200     1210     1080     1600     1650     1300     1700     1380   
                                           T        V       H0       H01     AOSYM     SMH    MOLCAS    ERIS     OPER     JKOP   

              2       4        2.85       700     1000      520     2100   
                                         GEOM     BASIS   MCVARS     RHF  

 PROGRAMS   *        TOTAL   CCSD(T)        HF       INT
 CPU TIMES  *         2.91      1.90      0.28      0.63
 REAL TIME  *         3.93 SEC
 DISK USED  *        75.59 MB      
 **********************************************************************************************************************************

 CCSD(T)/cc-pVTZ-DK energy=   -130.291308647788

        CCSD(T)         HF-SCF  
   -130.29130865   -129.83175542
 **********************************************************************************************************************************
 Molpro calculation terminated
 Variable memory released
