
 Primary working directories    : /tmp/r2666/235096.maple
 Secondary working directories  : /tmp/r2666/235096.maple
 Wavefunction directory         : /ddn/home4/r2666/wfu/
 Main file repository           : /tmp/r2666/235096.maple/

 SHA1      : d5ffa45e93fdbca01ffc919aa182cfdae0147319
 NAME      : 2015.1.35
 ARCHNAME  : linux/x86_64
 FC        : /opt/intel/composer_xe_2015.1.133/bin/intel64/ifort
 BLASLIB   : -Wl,-_start-group /opt/intel/mkl/lib/intel64/libmkl_intel_ilp64.a /opt/intel/mkl/lib/intel64/libmkl_intel_thread.a /opt/intel/mkl/lib/intel64/libmkl_core.a -Wl,-_end-group
 id        : olemiss

 Nodes     nprocs
 cn089        1

 Using customized tuning parameters: mindgm=1; mindgv=20; mindgc=4; mindgr=1; noblas=0; minvec=7
 default implementation of scratch files=df  

 ***,hno CCSD(T)/TZ-F12 QFF
 memory, 995, m;
 gthresh,energy=1.d-12,zero=1.d-22,oneint=1.d-22,twoint=1.d-22;
 gthresh,optgrad=1.d-8,optstep=1.d-8;
 nocompress;
 geomtyp=xyz
 bohr
 geometry={
 3
         81        81
 N        0.0000000000       -0.1645388011       -1.1639097818
 H        0.0000000000        1.6694412937       -1.9312982306
 O        0.0000000000        0.0368652973        1.1446184214
 }
 
 basis=vtz-dk
 dkroll=0
   {hf,maxit=500;accu,20;}
 {ccsd(t),nocheck,maxit=250;orbital,IGNORE_ERROR;}

 Variables initialized (889), CPU time= 0.01 sec
 Commands  initialized (702), CPU time= 0.01 sec, 572 directives.
 Default parameters read. Elapsed time= 0.04 sec

 Checking input...
 Passed
1


                                         ***  PROGRAM SYSTEM MOLPRO  ***
                                       Copyright, TTI GmbH Stuttgart, 2015
                                    Version 2015.1 linked Jul  9 2018 13:16:40


 **********************************************************************************************************************************
 LABEL *   hno CCSD(T)/TZ-F12 QFF                                                        
  64 bit serial version                                                                  DATE: 08-Feb-20          TIME: 17:57:07  
 **********************************************************************************************************************************

 SHA1:             d5ffa45e93fdbca01ffc919aa182cfdae0147319
 **********************************************************************************************************************************

 THRESHOLDS:

 ZERO    =  1.00D-22  ONEINT  =  1.00D-22  TWOINT  =  1.00D-22  PREFAC  =  1.00D-14  LOCALI  =  1.00D-09  EORDER  =  1.00D-04
 ENERGY  =  1.00D-12  ETEST   =  0.00D+00  EDENS   =  0.00D+00  THRDEDEF=  1.00D-06  GRADIENT=  1.00D-02  STEP    =  1.00D-03
 ORBITAL =  1.00D-05  CIVEC   =  1.00D-05  COEFF   =  1.00D-04  PRINTCI =  5.00D-02  PUNCHCI =  9.90D+01  OPTGRAD =  3.00D-04
 OPTENERG=  1.00D-06  OPTSTEP =  3.00D-04  THRGRAD =  1.00D-10  COMPRESS=  1.00D-11  VARMIN  =  1.00D-07  VARMAX  =  1.00D-03
 THRDOUB =  0.00D+00  THRDIV  =  1.00D-05  THRRED  =  1.00D-07  THRPSP  =  1.00D+00  THRDC   =  1.00D-10  THRCS   =  1.00D-10
 THRNRM  =  1.00D-08  THREQ   =  0.00D+00  THRDE   =  1.00D+00  THRREF  =  1.00D-05  SPARFAC =  1.00D+00  THRDLP  =  1.00D-07
 THRDIA  =  1.00D-10  THRDLS  =  1.00D-07  THRGPS  =  0.00D+00  THRKEX  =  0.00D+00  THRDIS  =  2.00D-01  THRVAR  =  1.00D-10
 THRLOC  =  1.00D-06  THRGAP  =  1.00D-06  THRLOCT = -1.00D+00  THRGAPT = -1.00D+00  THRORB  =  1.00D-06  THRMLTP =  0.00D+00
 THRCPQCI=  1.00D-10  KEXTA   =  0.00D+00  THRCOARS=  0.00D+00  SYMTOL  =  1.00D-06  GRADTOL =  1.00D-06  THROVL  =  1.00D-08
 THRORTH =  1.00D-08  GRID    =  1.00D-06  GRIDMAX =  1.00D-03  DTMAX   =  0.00D+00  THROCCDE=  1.00D-01  THROCCDE=  1.00D-01



 THRESHOLDS:

 ZERO    =  1.00D-22  ONEINT  =  1.00D-22  TWOINT  =  1.00D-22  PREFAC  =  1.00D-14  LOCALI  =  1.00D-09  EORDER  =  1.00D-04
 ENERGY  =  1.00D-12  ETEST   =  0.00D+00  EDENS   =  0.00D+00  THRDEDEF=  1.00D-06  GRADIENT=  1.00D-02  STEP    =  1.00D-03
 ORBITAL =  1.00D-05  CIVEC   =  1.00D-05  COEFF   =  1.00D-04  PRINTCI =  5.00D-02  PUNCHCI =  9.90D+01  OPTGRAD =  1.00D-08
 OPTENERG=  1.00D-06  OPTSTEP =  1.00D-08  THRGRAD =  1.00D-10  COMPRESS=  1.00D-11  VARMIN  =  1.00D-07  VARMAX  =  1.00D-03
 THRDOUB =  0.00D+00  THRDIV  =  1.00D-05  THRRED  =  1.00D-07  THRPSP  =  1.00D+00  THRDC   =  1.00D-10  THRCS   =  1.00D-10
 THRNRM  =  1.00D-08  THREQ   =  0.00D+00  THRDE   =  1.00D+00  THRREF  =  1.00D-05  SPARFAC =  1.00D+00  THRDLP  =  1.00D-07
 THRDIA  =  1.00D-10  THRDLS  =  1.00D-07  THRGPS  =  0.00D+00  THRKEX  =  0.00D+00  THRDIS  =  2.00D-01  THRVAR  =  1.00D-10
 THRLOC  =  1.00D-06  THRGAP  =  1.00D-06  THRLOCT = -1.00D+00  THRGAPT = -1.00D+00  THRORB  =  1.00D-06  THRMLTP =  0.00D+00
 THRCPQCI=  1.00D-10  KEXTA   =  0.00D+00  THRCOARS=  0.00D+00  SYMTOL  =  1.00D-06  GRADTOL =  1.00D-06  THROVL  =  1.00D-08
 THRORTH =  1.00D-08  GRID    =  1.00D-06  GRIDMAX =  1.00D-03  DTMAX   =  0.00D+00  THROCCDE=  1.00D-01  THROCCDE=  1.00D-01



 Input parameters for SORTINT:

 COMPRESS =    0.000000
 C_FINAL  =    1.000000
 DEBUG    =   -1.000000
 C_SORT1  =    0.000000
 C_SEWARD =    0.000000
 THRESH   =    0.000000
 IO       =  molpro                                                          
 SPRI     =    0.000000
 SETTING GEOMTYP        =    XYZ
 ZUNIT=BOHR
 

 Variable memory set to  995000000 words,  buffer space   230000 words

 SETTING BASIS          =    VTZ-DK
 SETTING DKROLL         =     0.00000000D+00                                  


 Recomputing integrals since basis changed


 Using spherical harmonics

 Library entry N      S cc-pVTZ-DK           selected for orbital group  1
 Library entry N      P cc-pVTZ-DK           selected for orbital group  1
 Library entry N      D cc-pVTZ-DK           selected for orbital group  1
 Library entry N      F cc-pVTZ-DK           selected for orbital group  1
 Library entry H      S cc-pVTZ-DK           selected for orbital group  2
 Library entry H      P cc-pVTZ-DK           selected for orbital group  2
 Library entry H      D cc-pVTZ-DK           selected for orbital group  2
 Library entry O      S cc-pVTZ-DK           selected for orbital group  3
 Library entry O      P cc-pVTZ-DK           selected for orbital group  3
 Library entry O      D cc-pVTZ-DK           selected for orbital group  3
 Library entry O      F cc-pVTZ-DK           selected for orbital group  3


 PROGRAM * SEWARD (Integral evaluation for generally contracted gaussian basis sets)     Author: Roland Lindh, 1990

 Geometry written to block  1 of record 700


 Point group  Cs  



 ATOMIC COORDINATES

 NR  ATOM    CHARGE       X              Y              Z

   1  N       7.00    0.000000000   -0.164538801   -1.163909782
   2  H       1.00    0.000000000    1.669441294   -1.931298231
   3  O       8.00    0.000000000    0.036865297    1.144618421

 Bond lengths in Bohr (Angstrom)

 1-2  1.988056342  1-3  2.317297149
     ( 1.052034110)     ( 1.226260842)

 Bond angles

  2-1-3  107.71973492

 NUCLEAR CHARGE:                   16
 NUMBER OF PRIMITIVE AOS:         111
 NUMBER OF SYMMETRY AOS:          100
 NUMBER OF CONTRACTIONS:           74   (  50A'  +  24A"  )
 NUMBER OF CORE ORBITALS:           2   (   2A'  +   0A"  )
 NUMBER OF VALENCE ORBITALS:        9   (   7A'  +   2A"  )


 NUCLEAR REPULSION ENERGY   29.98442963

 Eigenvalues of metric

         1 0.251E-02 0.402E-02 0.445E-02 0.846E-02 0.130E-01 0.338E-01 0.435E-01 0.466E-01
         2 0.351E-01 0.467E-01 0.104E+00 0.114E+00 0.240E+00 0.343E+00 0.400E+00 0.455E+00


 Contracted 2-electron integrals neglected if value below      1.0D-22

        1874283. INTEGRALS WRITTEN OUT IN     458 BLOCKS ON RECORD 1290 OF FILE 1


 NUMBER OF SORTED TWO-ELECTRON INTEGRALS:    2006100.     BUFFER LENGTH:  32768
 NUMBER OF SEGMENTS:   1  SEGMENT LENGTH:    2006100      RECORD LENGTH: 524288

 Memory used in sort:       2.56 MW

 SORT1 READ     1874283. AND WROTE     1914195. INTEGRALS IN      6 RECORDS. CPU TIME:     0.03 SEC, REAL TIME:     0.04 SEC
 SORT2 READ     1914195. AND WROTE     2006100. INTEGRALS IN      1 RECORDS. CPU TIME:     0.05 SEC, REAL TIME:     0.06 SEC

 FILE SIZES:   FILE 1:    50.1 MBYTE,  FILE 4:    25.2 MBYTE,   TOTAL:     75.3 MBYTE

 OPERATOR DM      FOR CENTER  0  COORDINATES:    0.000000    0.000000    0.000000


 **********************************************************************************************************************************
 DATASETS  * FILE   NREC   LENGTH (MB)   RECORD NAMES
              1      19       35.89       500      610      700      900      950      970     1000      129      960     1100   
                                          VAR    BASINP    GEOM    SYMINP    ZMAT    AOBASIS   BASIS     P2S    ABASIS      S 
                                         1400     1410     1200     1210     1080     1600     1650     1300     1700   
                                           T        V       H0       H01     AOSYM     SMH    MOLCAS    ERIS     OPER   

 PROGRAMS   *        TOTAL       INT
 CPU TIMES  *         0.60      0.50
 REAL TIME  *         1.32 SEC
 DISK USED  *        75.59 MB      
 **********************************************************************************************************************************


 PROGRAM * RHF-SCF (CLOSED SHELL)       Authors: W. Meyer, H.-J. Werner


 NUMBER OF ELECTRONS:       8+    8-
 CONVERGENCE THRESHOLDS:    1.00E-10 (Density)    1.00E-13 (Energy)
 MAX. NUMBER OF ITERATIONS:      500
 INTERPOLATION TYPE:            DIIS
 INTERPOLATION STEPS:              2 (START)      1 (STEP)
 LEVEL SHIFTS:                  0.00 (CLOSED)  0.00 (OPEN) 



 Orbital guess generated from atomic densities. Full valence occupancy:    9   2

 Molecular orbital dump at record        2100.2

 Initial occupancy:   7   1

 ITERATION    DDIFF          GRAD             ENERGY        2-EL.EN.            DIPOLE MOMENTS         DIIS   ORB.
    1      0.000D+00      0.000D+00      -129.77455033    153.446518    0.00000    0.59420   -1.09562    0    start
    2      0.000D+00      0.138D-01      -129.80078346    154.559469    0.00000    0.62788   -0.21059    1    diag
    3      0.193D-01      0.110D-01      -129.82616362    154.717818    0.00000    0.57077   -0.62547    2    diag
    4      0.949D-02      0.159D-02      -129.82693571    154.438553    0.00000    0.57911   -0.56302    3    diag
    5      0.169D-02      0.531D-03      -129.82705736    154.525709    0.00000    0.58448   -0.56381    4    diag
    6      0.740D-03      0.158D-03      -129.82707754    154.510661    0.00000    0.58493   -0.55928    5    diag
    7      0.286D-03      0.805D-04      -129.82708379    154.512730    0.00000    0.58611   -0.55652    6    diag
    8      0.201D-03      0.274D-04      -129.82708450    154.511951    0.00000    0.58611   -0.55557    7    diag
    9      0.756D-04      0.504D-05      -129.82708452    154.511815    0.00000    0.58606   -0.55539    8    diag
   10      0.149D-04      0.106D-05      -129.82708453    154.511797    0.00000    0.58602   -0.55536    9    orth
   11      0.298D-05      0.209D-06      -129.82708453    154.511793    0.00000    0.58602   -0.55536    9    diag
   12      0.535D-06      0.462D-07      -129.82708453    154.511792    0.00000    0.58602   -0.55536    9    diag
   13      0.120D-06      0.122D-07      -129.82708453    154.511792    0.00000    0.58601   -0.55536    9    diag
   14      0.315D-07      0.223D-08      -129.82708453    154.511792    0.00000    0.58601   -0.55536    9    diag
   15      0.460D-08      0.583D-09      -129.82708453    154.511792    0.00000    0.58601   -0.55536    9    diag
   16      0.124D-08      0.157D-09      -129.82708453    154.511792    0.00000    0.58601   -0.55536    9    diag
   17      0.237D-09      0.474D-10      -129.82708453    154.511792    0.00000    0.58601   -0.55536    9    diag
   18      0.848D-10      0.167D-10      -129.82708453    154.511792    0.00000    0.58601   -0.55536    0    orth

 Final occupancy:   7   1

 !RHF STATE 1.1 Energy               -129.827084525432
 Nuclear energy                        29.98442963
 One-electron energy                 -237.06741004
 Two-electron energy                   77.25589588
 Virial quotient                       -1.00016192
 !RHF STATE 1.1 Dipole moment           0.00000000     0.58601475    -0.55535843
 Dipole moment /Debye                   0.00000000     1.48940336    -1.41148789

 Orbital energies:

         1.1          2.1          3.1          4.1          5.1          6.1          7.1          8.1          9.1
    -20.649513   -15.711048    -1.511474    -0.994995    -0.737697    -0.656689    -0.432670     0.143124     0.367135

         1.2          2.2          3.2
     -0.583723     0.079624     0.614903

 HOMO      7.1    -0.432670 =     -11.7735eV
 LUMO      2.2     0.079624 =       2.1667eV
 LUMO-HOMO         0.512294 =      13.9402eV


 **********************************************************************************************************************************
 DATASETS  * FILE   NREC   LENGTH (MB)   RECORD NAMES
              1      19       35.89       500      610      700      900      950      970     1000      129      960     1100   
                                          VAR    BASINP    GEOM    SYMINP    ZMAT    AOBASIS   BASIS     P2S    ABASIS      S 
                                         1400     1410     1200     1210     1080     1600     1650     1300     1700   
                                           T        V       H0       H01     AOSYM     SMH    MOLCAS    ERIS     OPER   

              2       4        2.85       700     1000      520     2100   
                                         GEOM     BASIS   MCVARS     RHF  

 PROGRAMS   *        TOTAL        HF       INT
 CPU TIMES  *         0.79      0.19      0.50
 REAL TIME  *         1.56 SEC
 DISK USED  *        75.59 MB      
 **********************************************************************************************************************************


 PROGRAM * CCSD (Closed-shell coupled cluster)     Authors: C. Hampel, H.-J. Werner, 1991, M. Deegan, P.J. Knowles, 1992


 Convergence thresholds:  THRVAR = 1.00D-08  THRDEN = 1.00D-12

 CCSD(T)     terms to be evaluated (factor= 1.000)


 Number of core orbitals:           2 (   2   0 )
 Number of closed-shell orbitals:   6 (   5   1 )
 Number of external orbitals:      66 (  43  23 )

 Molecular orbitals read from record     2100.2  Type=RHF/CANONICAL (state 1.1)

 Number of N-1 electron functions:               6
 Number of N-2 electron functions:              21
 Number of singly external CSFs:               238
 Number of doubly external CSFs:             41002
 Total number of CSFs:                       41241

 Length of J-op  integral file:               0.00 MB
 Length of K-op  integral file:               0.25 MB
 Length of 3-ext integral record:             0.00 MB

 Memory could be reduced to 1.65 Mwords without degradation in triples

 Integral transformation finished. Total CPU:   0.02 sec, npass=  1  Memory used:   0.55 MW

 Reference energy:                   -129.82708453

 MP2 singlet pair energy:              -0.27552574
 MP2 triplet pair energy:              -0.16370849
 MP2 correlation energy:               -0.43923423
 MP2 total energy:                   -130.26631876

 SCS-MP2 correlation energy:           -0.43249395   (PS=  1.200000  PT=  0.333333)
 SCS-MP2 total energy:               -130.25957848

 ITER.      SQ.NORM     CORR.ENERGY   TOTAL ENERGY   ENERGY CHANGE        DEN1      VAR(S)    VAR(P)  DIIS     TIME  TIME/IT
   1      1.12041106    -0.44366193  -130.27074646    -0.00442770     0.01210672  0.32D-02  0.32D-02  1  1     0.09     0.05
   2      1.13170596    -0.44377741  -130.27086194    -0.00011548    -0.01271471  0.98D-04  0.53D-03  2  2     0.12     0.05
   3      1.13837172    -0.44419124  -130.27127577    -0.00041383    -0.00310349  0.51D-04  0.55D-04  3  3     0.16     0.04
   4      1.14139723    -0.44421969  -130.27130421    -0.00002844    -0.00101767  0.45D-05  0.96D-05  4  4     0.19     0.04
   5      1.14250060    -0.44425261  -130.27133714    -0.00003292    -0.00022854  0.14D-05  0.17D-05  5  5     0.23     0.04
   6      1.14288429    -0.44423374  -130.27131827     0.00001887    -0.00004444  0.97D-07  0.41D-06  6  6     0.26     0.04
   7      1.14296834    -0.44423615  -130.27132067    -0.00000240    -0.00000131  0.11D-07  0.94D-07  6  1     0.29     0.04
   8      1.14299909    -0.44423591  -130.27132043     0.00000024     0.00000200  0.46D-08  0.12D-07  6  2     0.33     0.04
   9      1.14300743    -0.44423569  -130.27132021     0.00000022    -0.00000237  0.27D-08  0.14D-08  6  3     0.36     0.04
  10      1.14300611    -0.44423623  -130.27132075    -0.00000054     0.00000068  0.51D-09  0.24D-09  6  4     0.40     0.04
  11      1.14300438    -0.44423628  -130.27132081    -0.00000006     0.00000014  0.16D-09  0.25D-10  6  5     0.44     0.04
  12      1.14300294    -0.44423648  -130.27132100    -0.00000019     0.00000045  0.15D-10  0.78D-11  6  6     0.48     0.04
  13      1.14300231    -0.44423649  -130.27132101    -0.00000001     0.00000013  0.65D-11  0.13D-11  6  1     0.52     0.04
  14      1.14300190    -0.44423651  -130.27132103    -0.00000002     0.00000008  0.93D-12  0.46D-12  6  2     0.55     0.04
  15      1.14300173    -0.44423651  -130.27132104    -0.00000000     0.00000002  0.25D-12  0.14D-12  6  3     0.59     0.04
  16      1.14300161    -0.44423652  -130.27132104    -0.00000001     0.00000002  0.84D-14  0.36D-13  6  1     0.63     0.04
  17      1.14300160    -0.44423651  -130.27132104     0.00000000    -0.00000000  0.25D-14  0.23D-14  6  4     0.67     0.04
  18      1.14300159    -0.44423652  -130.27132104    -0.00000000     0.00000000  0.65D-15  0.37D-15  6  5     0.70     0.04
  19      1.14300159    -0.44423651  -130.27132104     0.00000000    -0.00000000  0.13D-15  0.74D-16  6  6     0.73     0.04
  20      1.14300159    -0.44423651  -130.27132104    -0.00000000     0.00000000  0.24D-16  0.20D-16  6  2     0.77     0.04
  21      1.14300159    -0.44423651  -130.27132104    -0.00000000     0.00000000  0.68D-18  0.15D-17  6  4     0.80     0.04
  22      1.14300159    -0.44423651  -130.27132104    -0.00000000     0.00000000  0.86D-19  0.15D-18  6  3     0.84     0.04
  23      1.14300159    -0.44423651  -130.27132104    -0.00000000     0.00000000  0.82D-20  0.16D-19  6  1     0.88     0.04
  24      1.14300159    -0.44423651  -130.27132104     0.00000000     0.00000000  0.41D-20  0.22D-20  6  6     0.92     0.04
  25      1.14300159    -0.44423651  -130.27132104     0.00000000     0.00000000  0.50D-21  0.52D-21  6  5     0.95     0.04

 Norm of t1 vector:      0.07783141      S-energy:     0.00000000      T1 diagnostic:  0.01588727
                                                                       D1 diagnostic:  0.04483529

 Doubles amplitudes (print threshold =  0.500E-01):

         I         J         SYM. A    SYM. B    A         B      T(IJ, AB)

         6         6         2         2         1         1     -0.14890886


 Total CPU time for triples:      0.23 sec


 RESULTS
 =======

  Reference energy                   -129.827084525432
  CCSD singlet pair energy             -0.305055242981
  CCSD triplet pair energy             -0.139181271924
  CCSD correlation energy              -0.444236514901

  Triples (T) contribution             -0.020323753568
  Total correlation energy             -0.464560268469

  CCSD total energy                  -130.271321040333
  CCSD[T] energy                     -130.292739885803
  CCSD-T energy                      -130.291228758639
 !CCSD(T) total energy               -130.291644793901

 Timing summary (sec):

 STEP                 CPU(USER)    SYS     CPU(TOT)    WALL
 Transformation          0.03      0.02      0.05      0.14
 CCSD iterations         0.93      0.08      1.01      1.02
 Triples                 0.23      0.01      0.24      0.24

 Program statistics:

 Available memory in ccsd:               994999756
 Min. memory needed in ccsd:                154850
 Max. memory used in ccsd:                  184802
 Max. memory used in cckext:                238416 (25 integral passes)



 **********************************************************************************************************************************
 DATASETS  * FILE   NREC   LENGTH (MB)   RECORD NAMES
              1      20       40.28       500      610      700      900      950      970     1000      129      960     1100   
                                          VAR    BASINP    GEOM    SYMINP    ZMAT    AOBASIS   BASIS     P2S    ABASIS      S 
                                         1400     1410     1200     1210     1080     1600     1650     1300     1700     1380   
                                           T        V       H0       H01     AOSYM     SMH    MOLCAS    ERIS     OPER     JKOP   

              2       4        2.85       700     1000      520     2100   
                                         GEOM     BASIS   MCVARS     RHF  

 PROGRAMS   *        TOTAL   CCSD(T)        HF       INT
 CPU TIMES  *         2.01      1.21      0.19      0.50
 REAL TIME  *         2.99 SEC
 DISK USED  *        75.59 MB      
 **********************************************************************************************************************************

 CCSD(T)/cc-pVTZ-DK energy=   -130.291644793901

        CCSD(T)         HF-SCF  
   -130.29164479   -129.82708453
 **********************************************************************************************************************************
 Molpro calculation terminated
 Variable memory released
