
 Primary working directories    : /tmp/r2666/235022.maple
 Secondary working directories  : /tmp/r2666/235022.maple
 Wavefunction directory         : /ddn/home4/r2666/wfu/
 Main file repository           : /tmp/r2666/235022.maple/

 SHA1      : d5ffa45e93fdbca01ffc919aa182cfdae0147319
 NAME      : 2015.1.35
 ARCHNAME  : linux/x86_64
 FC        : /opt/intel/composer_xe_2015.1.133/bin/intel64/ifort
 BLASLIB   : -Wl,-_start-group /opt/intel/mkl/lib/intel64/libmkl_intel_ilp64.a /opt/intel/mkl/lib/intel64/libmkl_intel_thread.a /opt/intel/mkl/lib/intel64/libmkl_core.a -Wl,-_end-group
 id        : olemiss

 Nodes     nprocs
 cn029        1

 Using customized tuning parameters: mindgm=1; mindgv=20; mindgc=4; mindgr=1; noblas=0; minvec=7
 default implementation of scratch files=df  

 ***,hno CCSD(T)/TZ-F12 QFF
 memory, 995, m;
 gthresh,energy=1.d-12,zero=1.d-22,oneint=1.d-22,twoint=1.d-22;
 gthresh,optgrad=1.d-8,optstep=1.d-8;
 nocompress;
 geomtyp=xyz
 bohr
 geometry={
 3
          7         7
 N        0.0000000000       -0.1440630030       -1.1556366482
 H        0.0000000000        1.6552186766       -1.9321999065
 O        0.0000000000        0.0306121164        1.1372469637
 }
 
 basis=vtz-dk
 dkroll=0
   {hf,maxit=500;accu,20;}
 {ccsd(t),nocheck,maxit=250;orbital,IGNORE_ERROR;}

 Variables initialized (889), CPU time= 0.00 sec
 Commands  initialized (702), CPU time= 0.01 sec, 572 directives.
 Default parameters read. Elapsed time= 0.06 sec

 Checking input...
 Passed
1


                                         ***  PROGRAM SYSTEM MOLPRO  ***
                                       Copyright, TTI GmbH Stuttgart, 2015
                                    Version 2015.1 linked Jul  9 2018 13:16:40


 **********************************************************************************************************************************
 LABEL *   hno CCSD(T)/TZ-F12 QFF                                                        
  64 bit serial version                                                                  DATE: 08-Feb-20          TIME: 17:56:56  
 **********************************************************************************************************************************

 SHA1:             d5ffa45e93fdbca01ffc919aa182cfdae0147319
 **********************************************************************************************************************************

 THRESHOLDS:

 ZERO    =  1.00D-22  ONEINT  =  1.00D-22  TWOINT  =  1.00D-22  PREFAC  =  1.00D-14  LOCALI  =  1.00D-09  EORDER  =  1.00D-04
 ENERGY  =  1.00D-12  ETEST   =  0.00D+00  EDENS   =  0.00D+00  THRDEDEF=  1.00D-06  GRADIENT=  1.00D-02  STEP    =  1.00D-03
 ORBITAL =  1.00D-05  CIVEC   =  1.00D-05  COEFF   =  1.00D-04  PRINTCI =  5.00D-02  PUNCHCI =  9.90D+01  OPTGRAD =  3.00D-04
 OPTENERG=  1.00D-06  OPTSTEP =  3.00D-04  THRGRAD =  1.00D-10  COMPRESS=  1.00D-11  VARMIN  =  1.00D-07  VARMAX  =  1.00D-03
 THRDOUB =  0.00D+00  THRDIV  =  1.00D-05  THRRED  =  1.00D-07  THRPSP  =  1.00D+00  THRDC   =  1.00D-10  THRCS   =  1.00D-10
 THRNRM  =  1.00D-08  THREQ   =  0.00D+00  THRDE   =  1.00D+00  THRREF  =  1.00D-05  SPARFAC =  1.00D+00  THRDLP  =  1.00D-07
 THRDIA  =  1.00D-10  THRDLS  =  1.00D-07  THRGPS  =  0.00D+00  THRKEX  =  0.00D+00  THRDIS  =  2.00D-01  THRVAR  =  1.00D-10
 THRLOC  =  1.00D-06  THRGAP  =  1.00D-06  THRLOCT = -1.00D+00  THRGAPT = -1.00D+00  THRORB  =  1.00D-06  THRMLTP =  0.00D+00
 THRCPQCI=  1.00D-10  KEXTA   =  0.00D+00  THRCOARS=  0.00D+00  SYMTOL  =  1.00D-06  GRADTOL =  1.00D-06  THROVL  =  1.00D-08
 THRORTH =  1.00D-08  GRID    =  1.00D-06  GRIDMAX =  1.00D-03  DTMAX   =  0.00D+00  THROCCDE=  1.00D-01  THROCCDE=  1.00D-01



 THRESHOLDS:

 ZERO    =  1.00D-22  ONEINT  =  1.00D-22  TWOINT  =  1.00D-22  PREFAC  =  1.00D-14  LOCALI  =  1.00D-09  EORDER  =  1.00D-04
 ENERGY  =  1.00D-12  ETEST   =  0.00D+00  EDENS   =  0.00D+00  THRDEDEF=  1.00D-06  GRADIENT=  1.00D-02  STEP    =  1.00D-03
 ORBITAL =  1.00D-05  CIVEC   =  1.00D-05  COEFF   =  1.00D-04  PRINTCI =  5.00D-02  PUNCHCI =  9.90D+01  OPTGRAD =  1.00D-08
 OPTENERG=  1.00D-06  OPTSTEP =  1.00D-08  THRGRAD =  1.00D-10  COMPRESS=  1.00D-11  VARMIN  =  1.00D-07  VARMAX  =  1.00D-03
 THRDOUB =  0.00D+00  THRDIV  =  1.00D-05  THRRED  =  1.00D-07  THRPSP  =  1.00D+00  THRDC   =  1.00D-10  THRCS   =  1.00D-10
 THRNRM  =  1.00D-08  THREQ   =  0.00D+00  THRDE   =  1.00D+00  THRREF  =  1.00D-05  SPARFAC =  1.00D+00  THRDLP  =  1.00D-07
 THRDIA  =  1.00D-10  THRDLS  =  1.00D-07  THRGPS  =  0.00D+00  THRKEX  =  0.00D+00  THRDIS  =  2.00D-01  THRVAR  =  1.00D-10
 THRLOC  =  1.00D-06  THRGAP  =  1.00D-06  THRLOCT = -1.00D+00  THRGAPT = -1.00D+00  THRORB  =  1.00D-06  THRMLTP =  0.00D+00
 THRCPQCI=  1.00D-10  KEXTA   =  0.00D+00  THRCOARS=  0.00D+00  SYMTOL  =  1.00D-06  GRADTOL =  1.00D-06  THROVL  =  1.00D-08
 THRORTH =  1.00D-08  GRID    =  1.00D-06  GRIDMAX =  1.00D-03  DTMAX   =  0.00D+00  THROCCDE=  1.00D-01  THROCCDE=  1.00D-01



 Input parameters for SORTINT:

 COMPRESS =    0.000000
 C_FINAL  =    1.000000
 DEBUG    =   -1.000000
 C_SORT1  =    0.000000
 C_SEWARD =    0.000000
 THRESH   =    0.000000
 IO       =  molpro                                                          
 SPRI     =    0.000000
 SETTING GEOMTYP        =    XYZ
 ZUNIT=BOHR
 

 Variable memory set to  995000000 words,  buffer space   230000 words

 SETTING BASIS          =    VTZ-DK
 SETTING DKROLL         =     0.00000000D+00                                  


 Recomputing integrals since basis changed


 Using spherical harmonics

 Library entry N      S cc-pVTZ-DK           selected for orbital group  1
 Library entry N      P cc-pVTZ-DK           selected for orbital group  1
 Library entry N      D cc-pVTZ-DK           selected for orbital group  1
 Library entry N      F cc-pVTZ-DK           selected for orbital group  1
 Library entry H      S cc-pVTZ-DK           selected for orbital group  2
 Library entry H      P cc-pVTZ-DK           selected for orbital group  2
 Library entry H      D cc-pVTZ-DK           selected for orbital group  2
 Library entry O      S cc-pVTZ-DK           selected for orbital group  3
 Library entry O      P cc-pVTZ-DK           selected for orbital group  3
 Library entry O      D cc-pVTZ-DK           selected for orbital group  3
 Library entry O      F cc-pVTZ-DK           selected for orbital group  3


 PROGRAM * SEWARD (Integral evaluation for generally contracted gaussian basis sets)     Author: Roland Lindh, 1990

 Geometry written to block  1 of record 700


 Point group  Cs  



 ATOMIC COORDINATES

 NR  ATOM    CHARGE       X              Y              Z

   1  N       7.00    0.000000000   -0.144063003   -1.155636648
   2  H       1.00    0.000000000    1.655218677   -1.932199906
   3  O       8.00    0.000000000    0.030612116    1.137246964

 Bond lengths in Bohr (Angstrom)

 1-2  1.959710452  1-3  2.299527485
     ( 1.037034111)     ( 1.216857541)

 Bond angles

  2-1-3  108.98838867

 NUCLEAR CHARGE:                   16
 NUMBER OF PRIMITIVE AOS:         111
 NUMBER OF SYMMETRY AOS:          100
 NUMBER OF CONTRACTIONS:           74   (  50A'  +  24A"  )
 NUMBER OF CORE ORBITALS:           2   (   2A'  +   0A"  )
 NUMBER OF VALENCE ORBITALS:        9   (   7A'  +   2A"  )


 NUCLEAR REPULSION ENERGY   30.22835332

 Eigenvalues of metric

         1 0.242E-02 0.393E-02 0.428E-02 0.814E-02 0.127E-01 0.329E-01 0.430E-01 0.462E-01
         2 0.345E-01 0.464E-01 0.102E+00 0.109E+00 0.235E+00 0.337E+00 0.395E+00 0.451E+00


 Contracted 2-electron integrals neglected if value below      1.0D-22

        1874254. INTEGRALS WRITTEN OUT IN     458 BLOCKS ON RECORD 1290 OF FILE 1


 NUMBER OF SORTED TWO-ELECTRON INTEGRALS:    2006100.     BUFFER LENGTH:  32768
 NUMBER OF SEGMENTS:   1  SEGMENT LENGTH:    2006100      RECORD LENGTH: 524288

 Memory used in sort:       2.56 MW

 SORT1 READ     1874254. AND WROTE     1914161. INTEGRALS IN      6 RECORDS. CPU TIME:     0.04 SEC, REAL TIME:     0.06 SEC
 SORT2 READ     1914161. AND WROTE     2006100. INTEGRALS IN      1 RECORDS. CPU TIME:     0.05 SEC, REAL TIME:     0.06 SEC

 FILE SIZES:   FILE 1:    50.1 MBYTE,  FILE 4:    25.2 MBYTE,   TOTAL:     75.3 MBYTE

 OPERATOR DM      FOR CENTER  0  COORDINATES:    0.000000    0.000000    0.000000


 **********************************************************************************************************************************
 DATASETS  * FILE   NREC   LENGTH (MB)   RECORD NAMES
              1      19       35.89       500      610      700      900      950      970     1000      129      960     1100   
                                          VAR    BASINP    GEOM    SYMINP    ZMAT    AOBASIS   BASIS     P2S    ABASIS      S 
                                         1400     1410     1200     1210     1080     1600     1650     1300     1700   
                                           T        V       H0       H01     AOSYM     SMH    MOLCAS    ERIS     OPER   

 PROGRAMS   *        TOTAL       INT
 CPU TIMES  *         0.71      0.58
 REAL TIME  *         1.36 SEC
 DISK USED  *        75.59 MB      
 **********************************************************************************************************************************


 PROGRAM * RHF-SCF (CLOSED SHELL)       Authors: W. Meyer, H.-J. Werner


 NUMBER OF ELECTRONS:       8+    8-
 CONVERGENCE THRESHOLDS:    1.00E-10 (Density)    1.00E-13 (Energy)
 MAX. NUMBER OF ITERATIONS:      500
 INTERPOLATION TYPE:            DIIS
 INTERPOLATION STEPS:              2 (START)      1 (STEP)
 LEVEL SHIFTS:                  0.00 (CLOSED)  0.00 (OPEN) 



 Orbital guess generated from atomic densities. Full valence occupancy:    9   2

 Molecular orbital dump at record        2100.2

 Initial occupancy:   7   1

 ITERATION    DDIFF          GRAD             ENERGY        2-EL.EN.            DIPOLE MOMENTS         DIIS   ORB.
    1      0.000D+00      0.000D+00      -129.77878981    153.887318    0.00000    0.61071   -1.06518    0    start
    2      0.000D+00      0.136D-01      -129.80541716    155.010481    0.00000    0.62227   -0.22862    1    diag
    3      0.187D-01      0.105D-01      -129.82824356    155.151202    0.00000    0.57641   -0.61874    2    diag
    4      0.911D-02      0.158D-02      -129.82899976    154.879554    0.00000    0.58446   -0.55734    3    diag
    5      0.169D-02      0.518D-03      -129.82911476    154.965186    0.00000    0.58975   -0.55839    4    diag
    6      0.723D-03      0.152D-03      -129.82913351    154.950562    0.00000    0.59028   -0.55412    5    diag
    7      0.277D-03      0.773D-04      -129.82913919    154.952682    0.00000    0.59144   -0.55151    6    diag
    8      0.193D-03      0.255D-04      -129.82913978    154.951972    0.00000    0.59145   -0.55064    7    diag
    9      0.688D-04      0.465D-05      -129.82913980    154.951850    0.00000    0.59140   -0.55047    8    diag
   10      0.135D-04      0.101D-05      -129.82913980    154.951833    0.00000    0.59136   -0.55045    9    orth
   11      0.289D-05      0.196D-06      -129.82913980    154.951830    0.00000    0.59136   -0.55045    9    diag
   12      0.514D-06      0.418D-07      -129.82913980    154.951828    0.00000    0.59136   -0.55045    9    diag
   13      0.110D-06      0.107D-07      -129.82913980    154.951828    0.00000    0.59136   -0.55045    9    diag
   14      0.281D-07      0.195D-08      -129.82913980    154.951828    0.00000    0.59136   -0.55045    9    diag
   15      0.421D-08      0.504D-09      -129.82913980    154.951828    0.00000    0.59136   -0.55045    9    diag
   16      0.109D-08      0.129D-09      -129.82913980    154.951828    0.00000    0.59136   -0.55045    9    diag
   17      0.185D-09      0.371D-10      -129.82913980    154.951828    0.00000    0.59136   -0.55045    9    diag
   18      0.598D-10      0.129D-10      -129.82913980    154.951828    0.00000    0.59136   -0.55045    9    diag
   19      0.270D-10      0.277D-11      -129.82913980    154.951828    0.00000    0.59136   -0.55045    9    fixocc
   20      0.748D-11      0.541D-12      -129.82913980    154.951828    0.00000    0.59136   -0.55045    9    orth
   21      0.145D-11      0.149D-12      -129.82913980    154.951828    0.00000    0.59136   -0.55045    0    orth

 Final occupancy:   7   1

 !RHF STATE 1.1 Energy               -129.829139802480
 Nuclear energy                        30.22835332
 One-electron energy                 -237.53340713
 Two-electron energy                   77.47591401
 Virial quotient                       -0.99976944
 !RHF STATE 1.1 Dipole moment           0.00000000     0.59135626    -0.55044629
 Dipole moment /Debye                   0.00000000     1.50297924    -1.39900328

 Orbital energies:

         1.1          2.1          3.1          4.1          5.1          6.1          7.1          8.1          9.1
    -20.648651   -15.707117    -1.518469    -0.997426    -0.742089    -0.659544    -0.429855     0.144325     0.368720

         1.2          2.2          3.2
     -0.587638     0.082933     0.614041

 HOMO      7.1    -0.429855 =     -11.6970eV
 LUMO      2.2     0.082933 =       2.2567eV
 LUMO-HOMO         0.512788 =      13.9537eV


 **********************************************************************************************************************************
 DATASETS  * FILE   NREC   LENGTH (MB)   RECORD NAMES
              1      19       35.89       500      610      700      900      950      970     1000      129      960     1100   
                                          VAR    BASINP    GEOM    SYMINP    ZMAT    AOBASIS   BASIS     P2S    ABASIS      S 
                                         1400     1410     1200     1210     1080     1600     1650     1300     1700   
                                           T        V       H0       H01     AOSYM     SMH    MOLCAS    ERIS     OPER   

              2       4        2.85       700     1000      520     2100   
                                         GEOM     BASIS   MCVARS     RHF  

 PROGRAMS   *        TOTAL        HF       INT
 CPU TIMES  *         0.97      0.26      0.58
 REAL TIME  *         1.68 SEC
 DISK USED  *        75.59 MB      
 **********************************************************************************************************************************


 PROGRAM * CCSD (Closed-shell coupled cluster)     Authors: C. Hampel, H.-J. Werner, 1991, M. Deegan, P.J. Knowles, 1992


 Convergence thresholds:  THRVAR = 1.00D-08  THRDEN = 1.00D-12

 CCSD(T)     terms to be evaluated (factor= 1.000)


 Number of core orbitals:           2 (   2   0 )
 Number of closed-shell orbitals:   6 (   5   1 )
 Number of external orbitals:      66 (  43  23 )

 Molecular orbitals read from record     2100.2  Type=RHF/CANONICAL (state 1.1)

 Number of N-1 electron functions:               6
 Number of N-2 electron functions:              21
 Number of singly external CSFs:               238
 Number of doubly external CSFs:             41002
 Total number of CSFs:                       41241

 Length of J-op  integral file:               0.00 MB
 Length of K-op  integral file:               0.25 MB
 Length of 3-ext integral record:             0.00 MB

 Memory could be reduced to 1.65 Mwords without degradation in triples

 Integral transformation finished. Total CPU:   0.04 sec, npass=  1  Memory used:   0.55 MW

 Reference energy:                   -129.82913980

 MP2 singlet pair energy:              -0.27416140
 MP2 triplet pair energy:              -0.16283863
 MP2 correlation energy:               -0.43700003
 MP2 total energy:                   -130.26613983

 SCS-MP2 correlation energy:           -0.43031549   (PS=  1.200000  PT=  0.333333)
 SCS-MP2 total energy:               -130.25945529

 ITER.      SQ.NORM     CORR.ENERGY   TOTAL ENERGY   ENERGY CHANGE        DEN1      VAR(S)    VAR(P)  DIIS     TIME  TIME/IT
   1      1.11890744    -0.44183843  -130.27097823    -0.00483840     0.01118082  0.30D-02  0.31D-02  1  1     0.12     0.07
   2      1.12988243    -0.44203555  -130.27117535    -0.00019712    -0.01241052  0.91D-04  0.51D-03  2  2     0.18     0.07
   3      1.13627081    -0.44242650  -130.27156630    -0.00039095    -0.00300610  0.48D-04  0.53D-04  3  3     0.23     0.06
   4      1.13916230    -0.44245497  -130.27159477    -0.00002847    -0.00097914  0.40D-05  0.92D-05  4  4     0.29     0.06
   5      1.14019533    -0.44248511  -130.27162491    -0.00003014    -0.00021347  0.13D-05  0.17D-05  5  5     0.35     0.06
   6      1.14056273    -0.44246774  -130.27160755     0.00001737    -0.00004203  0.85D-07  0.43D-06  6  6     0.41     0.06
   7      1.14064706    -0.44247024  -130.27161004    -0.00000249    -0.00000163  0.96D-08  0.95D-07  6  1     0.46     0.06
   8      1.14067729    -0.44247020  -130.27161001     0.00000003     0.00000219  0.51D-08  0.11D-07  6  2     0.52     0.06
   9      1.14068518    -0.44247004  -130.27160984     0.00000017    -0.00000243  0.27D-08  0.13D-08  6  3     0.58     0.06
  10      1.14068379    -0.44247056  -130.27161036    -0.00000052     0.00000070  0.51D-09  0.22D-09  6  4     0.63     0.06
  11      1.14068210    -0.44247062  -130.27161042    -0.00000006     0.00000014  0.15D-09  0.23D-10  6  5     0.68     0.06
  12      1.14068072    -0.44247080  -130.27161060    -0.00000018     0.00000044  0.14D-10  0.73D-11  6  6     0.74     0.06
  13      1.14068012    -0.44247081  -130.27161061    -0.00000001     0.00000012  0.62D-11  0.12D-11  6  1     0.79     0.06
  14      1.14067974    -0.44247083  -130.27161063    -0.00000002     0.00000008  0.87D-12  0.44D-12  6  2     0.85     0.06
  15      1.14067959    -0.44247083  -130.27161063    -0.00000000     0.00000002  0.22D-12  0.14D-12  6  3     0.91     0.06
  16      1.14067950    -0.44247083  -130.27161063    -0.00000000     0.00000001  0.14D-13  0.55D-13  6  4     0.96     0.06
  17      1.14067946    -0.44247083  -130.27161064    -0.00000000     0.00000001  0.26D-14  0.13D-13  6  5     1.02     0.06
  18      1.14067945    -0.44247083  -130.27161064     0.00000000     0.00000000  0.18D-14  0.32D-14  6  6     1.07     0.06
  19      1.14067945    -0.44247083  -130.27161064     0.00000000    -0.00000000  0.81D-15  0.36D-15  6  1     1.12     0.06
  20      1.14067945    -0.44247083  -130.27161064     0.00000000    -0.00000000  0.66D-16  0.66D-16  6  2     1.18     0.06
  21      1.14067945    -0.44247083  -130.27161064    -0.00000000     0.00000000  0.37D-16  0.12D-16  6  3     1.24     0.06
  22      1.14067945    -0.44247083  -130.27161064    -0.00000000     0.00000000  0.63D-17  0.22D-17  6  4     1.29     0.06
  23      1.14067945    -0.44247083  -130.27161064    -0.00000000     0.00000000  0.23D-17  0.38D-18  6  5     1.34     0.06
  24      1.14067945    -0.44247083  -130.27161064    -0.00000000    -0.00000000  0.24D-18  0.11D-18  6  6     1.40     0.06
  25      1.14067945    -0.44247083  -130.27161064     0.00000000    -0.00000000  0.70D-19  0.27D-19  6  2     1.46     0.06
  26      1.14067945    -0.44247083  -130.27161064     0.00000000    -0.00000000  0.18D-20  0.22D-20  6  1     1.51     0.06
  27      1.14067945    -0.44247083  -130.27161064     0.00000000    -0.00000000  0.37D-21  0.70D-21  6  3     1.56     0.06

 Norm of t1 vector:      0.07587383      S-energy:    -0.00000000      T1 diagnostic:  0.01548768
                                                                       D1 diagnostic:  0.04364056

 Doubles amplitudes (print threshold =  0.500E-01):

         I         J         SYM. A    SYM. B    A         B      T(IJ, AB)

         6         6         2         2         1         1     -0.14647342


 Total CPU time for triples:      0.37 sec


 RESULTS
 =======

  Reference energy                   -129.829139802480
  CCSD singlet pair energy             -0.303522569943
  CCSD triplet pair energy             -0.138948263533
  CCSD correlation energy              -0.442470833476

  Triples (T) contribution             -0.019949363381
  Total correlation energy             -0.462420196857

  CCSD total energy                  -130.271610635956
  CCSD[T] energy                     -130.292603501908
  CCSD-T energy                      -130.291158244900
 !CCSD(T) total energy               -130.291559999337

 Timing summary (sec):

 STEP                 CPU(USER)    SYS     CPU(TOT)    WALL
 Transformation          0.05      0.01      0.06      0.05
 CCSD iterations         1.52      0.14      1.66      1.66
 Triples                 0.37      0.01      0.38      0.38

 Program statistics:

 Available memory in ccsd:               994999756
 Min. memory needed in ccsd:                154850
 Max. memory used in ccsd:                  184802
 Max. memory used in cckext:                238416 (27 integral passes)



 **********************************************************************************************************************************
 DATASETS  * FILE   NREC   LENGTH (MB)   RECORD NAMES
              1      20       40.28       500      610      700      900      950      970     1000      129      960     1100   
                                          VAR    BASINP    GEOM    SYMINP    ZMAT    AOBASIS   BASIS     P2S    ABASIS      S 
                                         1400     1410     1200     1210     1080     1600     1650     1300     1700     1380   
                                           T        V       H0       H01     AOSYM     SMH    MOLCAS    ERIS     OPER     JKOP   

              2       4        2.85       700     1000      520     2100   
                                         GEOM     BASIS   MCVARS     RHF  

 PROGRAMS   *        TOTAL   CCSD(T)        HF       INT
 CPU TIMES  *         2.93      1.96      0.26      0.58
 REAL TIME  *         3.81 SEC
 DISK USED  *        75.59 MB      
 **********************************************************************************************************************************

 CCSD(T)/cc-pVTZ-DK energy=   -130.291559999337

        CCSD(T)         HF-SCF  
   -130.29156000   -129.82913980
 **********************************************************************************************************************************
 Molpro calculation terminated
 Variable memory released
