
 Primary working directories    : /tmp/r2666/235092.maple
 Secondary working directories  : /tmp/r2666/235092.maple
 Wavefunction directory         : /ddn/home4/r2666/wfu/
 Main file repository           : /tmp/r2666/235092.maple/

 SHA1      : d5ffa45e93fdbca01ffc919aa182cfdae0147319
 NAME      : 2015.1.35
 ARCHNAME  : linux/x86_64
 FC        : /opt/intel/composer_xe_2015.1.133/bin/intel64/ifort
 BLASLIB   : -Wl,-_start-group /opt/intel/mkl/lib/intel64/libmkl_intel_ilp64.a /opt/intel/mkl/lib/intel64/libmkl_intel_thread.a /opt/intel/mkl/lib/intel64/libmkl_core.a -Wl,-_end-group
 id        : olemiss

 Nodes     nprocs
 cn037        1

 Using customized tuning parameters: mindgm=1; mindgv=20; mindgc=4; mindgr=1; noblas=0; minvec=7
 default implementation of scratch files=df  

 ***,hno CCSD(T)/TZ-F12 QFF
 memory, 995, m;
 gthresh,energy=1.d-12,zero=1.d-22,oneint=1.d-22,twoint=1.d-22;
 gthresh,optgrad=1.d-8,optstep=1.d-8;
 nocompress;
 geomtyp=xyz
 bohr
 geometry={
 3
         77        77
 N        0.0000000000       -0.1528958786       -1.1411499723
 H        0.0000000000        1.6672799187       -1.9407299159
 O        0.0000000000        0.0273837499        1.1312902972
 }
 
 basis=vtz-dk
 dkroll=0
   {hf,maxit=500;accu,20;}
 {ccsd(t),nocheck,maxit=250;orbital,IGNORE_ERROR;}

 Variables initialized (889), CPU time= 0.00 sec
 Commands  initialized (702), CPU time= 0.00 sec, 572 directives.
 Default parameters read. Elapsed time= 0.05 sec

 Checking input...
 Passed
1


                                         ***  PROGRAM SYSTEM MOLPRO  ***
                                       Copyright, TTI GmbH Stuttgart, 2015
                                    Version 2015.1 linked Jul  9 2018 13:16:40


 **********************************************************************************************************************************
 LABEL *   hno CCSD(T)/TZ-F12 QFF                                                        
  64 bit serial version                                                                  DATE: 08-Feb-20          TIME: 17:57:07  
 **********************************************************************************************************************************

 SHA1:             d5ffa45e93fdbca01ffc919aa182cfdae0147319
 **********************************************************************************************************************************

 THRESHOLDS:

 ZERO    =  1.00D-22  ONEINT  =  1.00D-22  TWOINT  =  1.00D-22  PREFAC  =  1.00D-14  LOCALI  =  1.00D-09  EORDER  =  1.00D-04
 ENERGY  =  1.00D-12  ETEST   =  0.00D+00  EDENS   =  0.00D+00  THRDEDEF=  1.00D-06  GRADIENT=  1.00D-02  STEP    =  1.00D-03
 ORBITAL =  1.00D-05  CIVEC   =  1.00D-05  COEFF   =  1.00D-04  PRINTCI =  5.00D-02  PUNCHCI =  9.90D+01  OPTGRAD =  3.00D-04
 OPTENERG=  1.00D-06  OPTSTEP =  3.00D-04  THRGRAD =  1.00D-10  COMPRESS=  1.00D-11  VARMIN  =  1.00D-07  VARMAX  =  1.00D-03
 THRDOUB =  0.00D+00  THRDIV  =  1.00D-05  THRRED  =  1.00D-07  THRPSP  =  1.00D+00  THRDC   =  1.00D-10  THRCS   =  1.00D-10
 THRNRM  =  1.00D-08  THREQ   =  0.00D+00  THRDE   =  1.00D+00  THRREF  =  1.00D-05  SPARFAC =  1.00D+00  THRDLP  =  1.00D-07
 THRDIA  =  1.00D-10  THRDLS  =  1.00D-07  THRGPS  =  0.00D+00  THRKEX  =  0.00D+00  THRDIS  =  2.00D-01  THRVAR  =  1.00D-10
 THRLOC  =  1.00D-06  THRGAP  =  1.00D-06  THRLOCT = -1.00D+00  THRGAPT = -1.00D+00  THRORB  =  1.00D-06  THRMLTP =  0.00D+00
 THRCPQCI=  1.00D-10  KEXTA   =  0.00D+00  THRCOARS=  0.00D+00  SYMTOL  =  1.00D-06  GRADTOL =  1.00D-06  THROVL  =  1.00D-08
 THRORTH =  1.00D-08  GRID    =  1.00D-06  GRIDMAX =  1.00D-03  DTMAX   =  0.00D+00  THROCCDE=  1.00D-01  THROCCDE=  1.00D-01



 THRESHOLDS:

 ZERO    =  1.00D-22  ONEINT  =  1.00D-22  TWOINT  =  1.00D-22  PREFAC  =  1.00D-14  LOCALI  =  1.00D-09  EORDER  =  1.00D-04
 ENERGY  =  1.00D-12  ETEST   =  0.00D+00  EDENS   =  0.00D+00  THRDEDEF=  1.00D-06  GRADIENT=  1.00D-02  STEP    =  1.00D-03
 ORBITAL =  1.00D-05  CIVEC   =  1.00D-05  COEFF   =  1.00D-04  PRINTCI =  5.00D-02  PUNCHCI =  9.90D+01  OPTGRAD =  1.00D-08
 OPTENERG=  1.00D-06  OPTSTEP =  1.00D-08  THRGRAD =  1.00D-10  COMPRESS=  1.00D-11  VARMIN  =  1.00D-07  VARMAX  =  1.00D-03
 THRDOUB =  0.00D+00  THRDIV  =  1.00D-05  THRRED  =  1.00D-07  THRPSP  =  1.00D+00  THRDC   =  1.00D-10  THRCS   =  1.00D-10
 THRNRM  =  1.00D-08  THREQ   =  0.00D+00  THRDE   =  1.00D+00  THRREF  =  1.00D-05  SPARFAC =  1.00D+00  THRDLP  =  1.00D-07
 THRDIA  =  1.00D-10  THRDLS  =  1.00D-07  THRGPS  =  0.00D+00  THRKEX  =  0.00D+00  THRDIS  =  2.00D-01  THRVAR  =  1.00D-10
 THRLOC  =  1.00D-06  THRGAP  =  1.00D-06  THRLOCT = -1.00D+00  THRGAPT = -1.00D+00  THRORB  =  1.00D-06  THRMLTP =  0.00D+00
 THRCPQCI=  1.00D-10  KEXTA   =  0.00D+00  THRCOARS=  0.00D+00  SYMTOL  =  1.00D-06  GRADTOL =  1.00D-06  THROVL  =  1.00D-08
 THRORTH =  1.00D-08  GRID    =  1.00D-06  GRIDMAX =  1.00D-03  DTMAX   =  0.00D+00  THROCCDE=  1.00D-01  THROCCDE=  1.00D-01



 Input parameters for SORTINT:

 COMPRESS =    0.000000
 C_FINAL  =    1.000000
 DEBUG    =   -1.000000
 C_SORT1  =    0.000000
 C_SEWARD =    0.000000
 THRESH   =    0.000000
 IO       =  molpro                                                          
 SPRI     =    0.000000
 SETTING GEOMTYP        =    XYZ
 ZUNIT=BOHR
 

 Variable memory set to  995000000 words,  buffer space   230000 words

 SETTING BASIS          =    VTZ-DK
 SETTING DKROLL         =     0.00000000D+00                                  


 Recomputing integrals since basis changed


 Using spherical harmonics

 Library entry N      S cc-pVTZ-DK           selected for orbital group  1
 Library entry N      P cc-pVTZ-DK           selected for orbital group  1
 Library entry N      D cc-pVTZ-DK           selected for orbital group  1
 Library entry N      F cc-pVTZ-DK           selected for orbital group  1
 Library entry H      S cc-pVTZ-DK           selected for orbital group  2
 Library entry H      P cc-pVTZ-DK           selected for orbital group  2
 Library entry H      D cc-pVTZ-DK           selected for orbital group  2
 Library entry O      S cc-pVTZ-DK           selected for orbital group  3
 Library entry O      P cc-pVTZ-DK           selected for orbital group  3
 Library entry O      D cc-pVTZ-DK           selected for orbital group  3
 Library entry O      F cc-pVTZ-DK           selected for orbital group  3


 PROGRAM * SEWARD (Integral evaluation for generally contracted gaussian basis sets)     Author: Roland Lindh, 1990

 Geometry written to block  1 of record 700


 Point group  Cs  



 ATOMIC COORDINATES

 NR  ATOM    CHARGE       X              Y              Z

   1  N       7.00    0.000000000   -0.152895879   -1.141149972
   2  H       1.00    0.000000000    1.667279919   -1.940729916
   3  O       8.00    0.000000000    0.027383750    1.131290297

 Bond lengths in Bohr (Angstrom)

 1-2  1.988056342  1-3  2.279580120
     ( 1.052034110)     ( 1.206301850)

 Bond angles

  2-1-3  109.17932058

 NUCLEAR CHARGE:                   16
 NUMBER OF PRIMITIVE AOS:         111
 NUMBER OF SYMMETRY AOS:          100
 NUMBER OF CONTRACTIONS:           74   (  50A'  +  24A"  )
 NUMBER OF CORE ORBITALS:           2   (   2A'  +   0A"  )
 NUMBER OF VALENCE ORBITALS:        9   (   7A'  +   2A"  )


 NUCLEAR REPULSION ENERGY   30.38427209

 Eigenvalues of metric

         1 0.244E-02 0.397E-02 0.412E-02 0.837E-02 0.130E-01 0.326E-01 0.425E-01 0.462E-01
         2 0.343E-01 0.464E-01 0.102E+00 0.111E+00 0.234E+00 0.342E+00 0.394E+00 0.450E+00


 Contracted 2-electron integrals neglected if value below      1.0D-22

        1874283. INTEGRALS WRITTEN OUT IN     458 BLOCKS ON RECORD 1290 OF FILE 1


 NUMBER OF SORTED TWO-ELECTRON INTEGRALS:    2006100.     BUFFER LENGTH:  32768
 NUMBER OF SEGMENTS:   1  SEGMENT LENGTH:    2006100      RECORD LENGTH: 524288

 Memory used in sort:       2.56 MW

 SORT1 READ     1874283. AND WROTE     1914195. INTEGRALS IN      6 RECORDS. CPU TIME:     0.06 SEC, REAL TIME:     0.07 SEC
 SORT2 READ     1914195. AND WROTE     2006100. INTEGRALS IN      1 RECORDS. CPU TIME:     0.04 SEC, REAL TIME:     0.06 SEC

 FILE SIZES:   FILE 1:    50.1 MBYTE,  FILE 4:    25.2 MBYTE,   TOTAL:     75.3 MBYTE

 OPERATOR DM      FOR CENTER  0  COORDINATES:    0.000000    0.000000    0.000000


 **********************************************************************************************************************************
 DATASETS  * FILE   NREC   LENGTH (MB)   RECORD NAMES
              1      19       35.89       500      610      700      900      950      970     1000      129      960     1100   
                                          VAR    BASINP    GEOM    SYMINP    ZMAT    AOBASIS   BASIS     P2S    ABASIS      S 
                                         1400     1410     1200     1210     1080     1600     1650     1300     1700   
                                           T        V       H0       H01     AOSYM     SMH    MOLCAS    ERIS     OPER   

 PROGRAMS   *        TOTAL       INT
 CPU TIMES  *         0.64      0.55
 REAL TIME  *         1.22 SEC
 DISK USED  *        75.59 MB      
 **********************************************************************************************************************************


 PROGRAM * RHF-SCF (CLOSED SHELL)       Authors: W. Meyer, H.-J. Werner


 NUMBER OF ELECTRONS:       8+    8-
 CONVERGENCE THRESHOLDS:    1.00E-10 (Density)    1.00E-13 (Energy)
 MAX. NUMBER OF ITERATIONS:      500
 INTERPOLATION TYPE:            DIIS
 INTERPOLATION STEPS:              2 (START)      1 (STEP)
 LEVEL SHIFTS:                  0.00 (CLOSED)  0.00 (OPEN) 



 Orbital guess generated from atomic densities. Full valence occupancy:    9   2

 Molecular orbital dump at record        2100.2

 Initial occupancy:   7   1

 ITERATION    DDIFF          GRAD             ENERGY        2-EL.EN.            DIPOLE MOMENTS         DIIS   ORB.
    1      0.000D+00      0.000D+00      -129.78078570    154.157712    0.00000    0.59850   -1.03524    0    start
    2      0.000D+00      0.135D-01      -129.80772363    155.316604    0.00000    0.61398   -0.22965    1    diag
    3      0.185D-01      0.102D-01      -129.82947711    155.431552    0.00000    0.56683   -0.60360    2    diag
    4      0.894D-02      0.156D-02      -129.83021676    155.165080    0.00000    0.57484   -0.54388    3    diag
    5      0.167D-02      0.514D-03      -129.83033087    155.250986    0.00000    0.58031   -0.54518    4    diag
    6      0.718D-03      0.152D-03      -129.83034958    155.236295    0.00000    0.58089   -0.54103    5    diag
    7      0.278D-03      0.761D-04      -129.83035503    155.238586    0.00000    0.58212   -0.53856    6    diag
    8      0.191D-03      0.244D-04      -129.83035555    155.237912    0.00000    0.58214   -0.53776    7    diag
    9      0.642D-04      0.445D-05      -129.83035557    155.237796    0.00000    0.58209   -0.53761    8    diag
   10      0.125D-04      0.993D-06      -129.83035557    155.237778    0.00000    0.58206   -0.53758    9    orth
   11      0.283D-05      0.194D-06      -129.83035557    155.237774    0.00000    0.58205   -0.53758    9    diag
   12      0.514D-06      0.400D-07      -129.83035557    155.237772    0.00000    0.58205   -0.53758    9    diag
   13      0.111D-06      0.992D-08      -129.83035557    155.237772    0.00000    0.58205   -0.53758    9    diag
   14      0.276D-07      0.180D-08      -129.83035557    155.237772    0.00000    0.58205   -0.53758    9    diag
   15      0.440D-08      0.462D-09      -129.83035557    155.237772    0.00000    0.58205   -0.53758    9    diag
   16      0.106D-08      0.112D-09      -129.83035557    155.237772    0.00000    0.58205   -0.53758    9    diag
   17      0.181D-09      0.304D-10      -129.83035557    155.237772    0.00000    0.58205   -0.53758    9    diag
   18      0.532D-10      0.100D-10      -129.83035557    155.237772    0.00000    0.58205   -0.53758    0    orth

 Final occupancy:   7   1

 !RHF STATE 1.1 Energy               -129.830355568416
 Nuclear energy                        30.38427209
 One-electron energy                 -237.83351355
 Two-electron energy                   77.61888589
 Virial quotient                       -0.99965202
 !RHF STATE 1.1 Dipole moment           0.00000000     0.58204761    -0.53757873
 Dipole moment /Debye                   0.00000000     1.47932056    -1.36629935

 Orbital energies:

         1.1          2.1          3.1          4.1          5.1          6.1          7.1          8.1          9.1
    -20.647974   -15.707293    -1.526744    -0.991181    -0.743626    -0.662609    -0.425671     0.143951     0.370298

         1.2          2.2          3.2
     -0.592773     0.086828     0.612882

 HOMO      7.1    -0.425671 =     -11.5831eV
 LUMO      2.2     0.086828 =       2.3627eV
 LUMO-HOMO         0.512499 =      13.9458eV


 **********************************************************************************************************************************
 DATASETS  * FILE   NREC   LENGTH (MB)   RECORD NAMES
              1      19       35.89       500      610      700      900      950      970     1000      129      960     1100   
                                          VAR    BASINP    GEOM    SYMINP    ZMAT    AOBASIS   BASIS     P2S    ABASIS      S 
                                         1400     1410     1200     1210     1080     1600     1650     1300     1700   
                                           T        V       H0       H01     AOSYM     SMH    MOLCAS    ERIS     OPER   

              2       4        2.85       700     1000      520     2100   
                                         GEOM     BASIS   MCVARS     RHF  

 PROGRAMS   *        TOTAL        HF       INT
 CPU TIMES  *         0.86      0.22      0.55
 REAL TIME  *         1.49 SEC
 DISK USED  *        75.59 MB      
 **********************************************************************************************************************************


 PROGRAM * CCSD (Closed-shell coupled cluster)     Authors: C. Hampel, H.-J. Werner, 1991, M. Deegan, P.J. Knowles, 1992


 Convergence thresholds:  THRVAR = 1.00D-08  THRDEN = 1.00D-12

 CCSD(T)     terms to be evaluated (factor= 1.000)


 Number of core orbitals:           2 (   2   0 )
 Number of closed-shell orbitals:   6 (   5   1 )
 Number of external orbitals:      66 (  43  23 )

 Molecular orbitals read from record     2100.2  Type=RHF/CANONICAL (state 1.1)

 Number of N-1 electron functions:               6
 Number of N-2 electron functions:              21
 Number of singly external CSFs:               238
 Number of doubly external CSFs:             41002
 Total number of CSFs:                       41241

 Length of J-op  integral file:               0.00 MB
 Length of K-op  integral file:               0.25 MB
 Length of 3-ext integral record:             0.00 MB

 Memory could be reduced to 1.65 Mwords without degradation in triples

 Integral transformation finished. Total CPU:   0.04 sec, npass=  1  Memory used:   0.55 MW

 Reference energy:                   -129.83035557

 MP2 singlet pair energy:              -0.27338757
 MP2 triplet pair energy:              -0.16230614
 MP2 correlation energy:               -0.43569371
 MP2 total energy:                   -130.26604928

 SCS-MP2 correlation energy:           -0.42905557   (PS=  1.200000  PT=  0.333333)
 SCS-MP2 total energy:               -130.25941114

 ITER.      SQ.NORM     CORR.ENERGY   TOTAL ENERGY   ENERGY CHANGE        DEN1      VAR(S)    VAR(P)  DIIS     TIME  TIME/IT
   1      1.11825739    -0.44090024  -130.27125581    -0.00520653     0.01050385  0.29D-02  0.30D-02  1  1     0.10     0.05
   2      1.12906852    -0.44117027  -130.27152584    -0.00027003    -0.01223568  0.87D-04  0.50D-03  2  2     0.15     0.05
   3      1.13532909    -0.44155584  -130.27191141    -0.00038557    -0.00296749  0.47D-04  0.51D-04  3  3     0.19     0.05
   4      1.13812507    -0.44158131  -130.27193688    -0.00002547    -0.00095518  0.40D-05  0.90D-05  4  4     0.24     0.05
   5      1.13912372    -0.44161065  -130.27196622    -0.00002934    -0.00020657  0.14D-05  0.17D-05  5  5     0.29     0.05
   6      1.13948585    -0.44159424  -130.27194981     0.00001641    -0.00004090  0.97D-07  0.42D-06  6  6     0.33     0.05
   7      1.13957357    -0.44159623  -130.27195180    -0.00000199    -0.00000229  0.12D-07  0.89D-07  6  1     0.38     0.05
   8      1.13960451    -0.44159630  -130.27195187    -0.00000007     0.00000191  0.46D-08  0.11D-07  6  2     0.43     0.05
   9      1.13961249    -0.44159607  -130.27195164     0.00000022    -0.00000229  0.26D-08  0.12D-08  6  3     0.48     0.05
  10      1.13961122    -0.44159660  -130.27195216    -0.00000052     0.00000061  0.51D-09  0.21D-09  6  4     0.52     0.05
  11      1.13960944    -0.44159666  -130.27195222    -0.00000006     0.00000020  0.15D-09  0.24D-10  6  5     0.57     0.05
  12      1.13960802    -0.44159684  -130.27195240    -0.00000018     0.00000044  0.16D-10  0.79D-11  6  6     0.62     0.05
  13      1.13960739    -0.44159684  -130.27195241    -0.00000001     0.00000013  0.69D-11  0.13D-11  6  1     0.66     0.05
  14      1.13960699    -0.44159686  -130.27195243    -0.00000002     0.00000008  0.96D-12  0.45D-12  6  2     0.71     0.05
  15      1.13960684    -0.44159687  -130.27195243    -0.00000000     0.00000001  0.24D-12  0.15D-12  6  3     0.75     0.05
  16      1.13960674    -0.44159687  -130.27195244    -0.00000000     0.00000001  0.27D-13  0.17D-13  6  5     0.80     0.05
  17      1.13960671    -0.44159687  -130.27195244    -0.00000000     0.00000000  0.80D-15  0.22D-14  6  4     0.84     0.05
  18      1.13960671    -0.44159687  -130.27195244     0.00000000    -0.00000000  0.52D-15  0.32D-15  6  1     0.89     0.05
  19      1.13960671    -0.44159687  -130.27195244    -0.00000000     0.00000000  0.51D-16  0.58D-16  6  6     0.93     0.05
  20      1.13960671    -0.44159687  -130.27195244    -0.00000000     0.00000000  0.11D-16  0.15D-16  6  2     0.97     0.05
  21      1.13960670    -0.44159687  -130.27195244    -0.00000000     0.00000000  0.20D-17  0.11D-17  6  5     1.02     0.05
  22      1.13960670    -0.44159687  -130.27195244    -0.00000000     0.00000000  0.11D-18  0.83D-19  6  3     1.07     0.05
  23      1.13960670    -0.44159687  -130.27195244     0.00000000    -0.00000000  0.30D-19  0.18D-19  6  4     1.12     0.05
  24      1.13960670    -0.44159687  -130.27195244     0.00000000    -0.00000000  0.45D-20  0.49D-20  6  1     1.17     0.05
  25      1.13960670    -0.44159687  -130.27195244     0.00000000    -0.00000000  0.56D-21  0.85D-21  6  6     1.22     0.05

 Norm of t1 vector:      0.07504502      S-energy:     0.00000000      T1 diagnostic:  0.01531850
                                                                       D1 diagnostic:  0.04231904

 Doubles amplitudes (print threshold =  0.500E-01):

         I         J         SYM. A    SYM. B    A         B      T(IJ, AB)

         6         6         2         2         1         1     -0.14333507


 Total CPU time for triples:      0.36 sec


 RESULTS
 =======

  Reference energy                   -129.830355568416
  CCSD singlet pair energy             -0.302753126469
  CCSD triplet pair energy             -0.138843742855
  CCSD correlation energy              -0.441596869323

  Triples (T) contribution             -0.019724899914
  Total correlation energy             -0.461321769237

  CCSD total energy                  -130.271952437739
  CCSD[T] energy                     -130.292692867822
  CCSD-T energy                      -130.291280271124
 !CCSD(T) total energy               -130.291677337653

 Timing summary (sec):

 STEP                 CPU(USER)    SYS     CPU(TOT)    WALL
 Transformation          0.04      0.01      0.05      0.05
 CCSD iterations         1.19      0.12      1.31      1.30
 Triples                 0.36      0.01      0.37      0.37

 Program statistics:

 Available memory in ccsd:               994999756
 Min. memory needed in ccsd:                154850
 Max. memory used in ccsd:                  184802
 Max. memory used in cckext:                238416 (25 integral passes)



 **********************************************************************************************************************************
 DATASETS  * FILE   NREC   LENGTH (MB)   RECORD NAMES
              1      20       40.28       500      610      700      900      950      970     1000      129      960     1100   
                                          VAR    BASINP    GEOM    SYMINP    ZMAT    AOBASIS   BASIS     P2S    ABASIS      S 
                                         1400     1410     1200     1210     1080     1600     1650     1300     1700     1380   
                                           T        V       H0       H01     AOSYM     SMH    MOLCAS    ERIS     OPER     JKOP   

              2       4        2.85       700     1000      520     2100   
                                         GEOM     BASIS   MCVARS     RHF  

 PROGRAMS   *        TOTAL   CCSD(T)        HF       INT
 CPU TIMES  *         2.47      1.61      0.22      0.55
 REAL TIME  *         3.27 SEC
 DISK USED  *        75.59 MB      
 **********************************************************************************************************************************

 CCSD(T)/cc-pVTZ-DK energy=   -130.291677337653

        CCSD(T)         HF-SCF  
   -130.29167734   -129.83035557
 **********************************************************************************************************************************
 Molpro calculation terminated
 Variable memory released
