
 Primary working directories    : /tmp/r2666/235021.maple
 Secondary working directories  : /tmp/r2666/235021.maple
 Wavefunction directory         : /ddn/home4/r2666/wfu/
 Main file repository           : /tmp/r2666/235021.maple/

 SHA1      : d5ffa45e93fdbca01ffc919aa182cfdae0147319
 NAME      : 2015.1.35
 ARCHNAME  : linux/x86_64
 FC        : /opt/intel/composer_xe_2015.1.133/bin/intel64/ifort
 BLASLIB   : -Wl,-_start-group /opt/intel/mkl/lib/intel64/libmkl_intel_ilp64.a /opt/intel/mkl/lib/intel64/libmkl_intel_thread.a /opt/intel/mkl/lib/intel64/libmkl_core.a -Wl,-_end-group
 id        : olemiss

 Nodes     nprocs
 cn025        1

 Using customized tuning parameters: mindgm=1; mindgv=20; mindgc=4; mindgr=1; noblas=0; minvec=7
 default implementation of scratch files=df  

 ***,hno CCSD(T)/TZ-F12 QFF
 memory, 995, m;
 gthresh,energy=1.d-12,zero=1.d-22,oneint=1.d-22,twoint=1.d-22;
 gthresh,optgrad=1.d-8,optstep=1.d-8;
 nocompress;
 geomtyp=xyz
 bohr
 geometry={
 3
          6         6
 N        0.0000000000       -0.1481315833       -1.1588287955
 H        0.0000000000        1.6549776766       -1.9264628579
 O        0.0000000000        0.0349216967        1.1347020623
 }
 
 basis=vtz-dk
 dkroll=0
   {hf,maxit=500;accu,20;}
 {ccsd(t),nocheck,maxit=250;orbital,IGNORE_ERROR;}

 Variables initialized (889), CPU time= 0.01 sec
 Commands  initialized (702), CPU time= 0.00 sec, 572 directives.
 Default parameters read. Elapsed time= 0.06 sec

 Checking input...
 Passed
1


                                         ***  PROGRAM SYSTEM MOLPRO  ***
                                       Copyright, TTI GmbH Stuttgart, 2015
                                    Version 2015.1 linked Jul  9 2018 13:16:40


 **********************************************************************************************************************************
 LABEL *   hno CCSD(T)/TZ-F12 QFF                                                        
  64 bit serial version                                                                  DATE: 08-Feb-20          TIME: 17:56:56  
 **********************************************************************************************************************************

 SHA1:             d5ffa45e93fdbca01ffc919aa182cfdae0147319
 **********************************************************************************************************************************

 THRESHOLDS:

 ZERO    =  1.00D-22  ONEINT  =  1.00D-22  TWOINT  =  1.00D-22  PREFAC  =  1.00D-14  LOCALI  =  1.00D-09  EORDER  =  1.00D-04
 ENERGY  =  1.00D-12  ETEST   =  0.00D+00  EDENS   =  0.00D+00  THRDEDEF=  1.00D-06  GRADIENT=  1.00D-02  STEP    =  1.00D-03
 ORBITAL =  1.00D-05  CIVEC   =  1.00D-05  COEFF   =  1.00D-04  PRINTCI =  5.00D-02  PUNCHCI =  9.90D+01  OPTGRAD =  3.00D-04
 OPTENERG=  1.00D-06  OPTSTEP =  3.00D-04  THRGRAD =  1.00D-10  COMPRESS=  1.00D-11  VARMIN  =  1.00D-07  VARMAX  =  1.00D-03
 THRDOUB =  0.00D+00  THRDIV  =  1.00D-05  THRRED  =  1.00D-07  THRPSP  =  1.00D+00  THRDC   =  1.00D-10  THRCS   =  1.00D-10
 THRNRM  =  1.00D-08  THREQ   =  0.00D+00  THRDE   =  1.00D+00  THRREF  =  1.00D-05  SPARFAC =  1.00D+00  THRDLP  =  1.00D-07
 THRDIA  =  1.00D-10  THRDLS  =  1.00D-07  THRGPS  =  0.00D+00  THRKEX  =  0.00D+00  THRDIS  =  2.00D-01  THRVAR  =  1.00D-10
 THRLOC  =  1.00D-06  THRGAP  =  1.00D-06  THRLOCT = -1.00D+00  THRGAPT = -1.00D+00  THRORB  =  1.00D-06  THRMLTP =  0.00D+00
 THRCPQCI=  1.00D-10  KEXTA   =  0.00D+00  THRCOARS=  0.00D+00  SYMTOL  =  1.00D-06  GRADTOL =  1.00D-06  THROVL  =  1.00D-08
 THRORTH =  1.00D-08  GRID    =  1.00D-06  GRIDMAX =  1.00D-03  DTMAX   =  0.00D+00  THROCCDE=  1.00D-01  THROCCDE=  1.00D-01



 THRESHOLDS:

 ZERO    =  1.00D-22  ONEINT  =  1.00D-22  TWOINT  =  1.00D-22  PREFAC  =  1.00D-14  LOCALI  =  1.00D-09  EORDER  =  1.00D-04
 ENERGY  =  1.00D-12  ETEST   =  0.00D+00  EDENS   =  0.00D+00  THRDEDEF=  1.00D-06  GRADIENT=  1.00D-02  STEP    =  1.00D-03
 ORBITAL =  1.00D-05  CIVEC   =  1.00D-05  COEFF   =  1.00D-04  PRINTCI =  5.00D-02  PUNCHCI =  9.90D+01  OPTGRAD =  1.00D-08
 OPTENERG=  1.00D-06  OPTSTEP =  1.00D-08  THRGRAD =  1.00D-10  COMPRESS=  1.00D-11  VARMIN  =  1.00D-07  VARMAX  =  1.00D-03
 THRDOUB =  0.00D+00  THRDIV  =  1.00D-05  THRRED  =  1.00D-07  THRPSP  =  1.00D+00  THRDC   =  1.00D-10  THRCS   =  1.00D-10
 THRNRM  =  1.00D-08  THREQ   =  0.00D+00  THRDE   =  1.00D+00  THRREF  =  1.00D-05  SPARFAC =  1.00D+00  THRDLP  =  1.00D-07
 THRDIA  =  1.00D-10  THRDLS  =  1.00D-07  THRGPS  =  0.00D+00  THRKEX  =  0.00D+00  THRDIS  =  2.00D-01  THRVAR  =  1.00D-10
 THRLOC  =  1.00D-06  THRGAP  =  1.00D-06  THRLOCT = -1.00D+00  THRGAPT = -1.00D+00  THRORB  =  1.00D-06  THRMLTP =  0.00D+00
 THRCPQCI=  1.00D-10  KEXTA   =  0.00D+00  THRCOARS=  0.00D+00  SYMTOL  =  1.00D-06  GRADTOL =  1.00D-06  THROVL  =  1.00D-08
 THRORTH =  1.00D-08  GRID    =  1.00D-06  GRIDMAX =  1.00D-03  DTMAX   =  0.00D+00  THROCCDE=  1.00D-01  THROCCDE=  1.00D-01



 Input parameters for SORTINT:

 COMPRESS =    0.000000
 C_FINAL  =    1.000000
 DEBUG    =   -1.000000
 C_SORT1  =    0.000000
 C_SEWARD =    0.000000
 THRESH   =    0.000000
 IO       =  molpro                                                          
 SPRI     =    0.000000
 SETTING GEOMTYP        =    XYZ
 ZUNIT=BOHR
 

 Variable memory set to  995000000 words,  buffer space   230000 words

 SETTING BASIS          =    VTZ-DK
 SETTING DKROLL         =     0.00000000D+00                                  


 Recomputing integrals since basis changed


 Using spherical harmonics

 Library entry N      S cc-pVTZ-DK           selected for orbital group  1
 Library entry N      P cc-pVTZ-DK           selected for orbital group  1
 Library entry N      D cc-pVTZ-DK           selected for orbital group  1
 Library entry N      F cc-pVTZ-DK           selected for orbital group  1
 Library entry H      S cc-pVTZ-DK           selected for orbital group  2
 Library entry H      P cc-pVTZ-DK           selected for orbital group  2
 Library entry H      D cc-pVTZ-DK           selected for orbital group  2
 Library entry O      S cc-pVTZ-DK           selected for orbital group  3
 Library entry O      P cc-pVTZ-DK           selected for orbital group  3
 Library entry O      D cc-pVTZ-DK           selected for orbital group  3
 Library entry O      F cc-pVTZ-DK           selected for orbital group  3


 PROGRAM * SEWARD (Integral evaluation for generally contracted gaussian basis sets)     Author: Roland Lindh, 1990

 Geometry written to block  1 of record 700


 Point group  Cs  



 ATOMIC COORDINATES

 NR  ATOM    CHARGE       X              Y              Z

   1  N       7.00    0.000000000   -0.148131583   -1.158828796
   2  H       1.00    0.000000000    1.654977677   -1.926462858
   3  O       8.00    0.000000000    0.034921697    1.134702062

 Bond lengths in Bohr (Angstrom)

 1-2  1.959710452  1-3  2.300824265
     ( 1.037034111)     ( 1.217543767)

 Bond angles

  2-1-3  108.49754411

 NUCLEAR CHARGE:                   16
 NUMBER OF PRIMITIVE AOS:         111
 NUMBER OF SYMMETRY AOS:          100
 NUMBER OF CONTRACTIONS:           74   (  50A'  +  24A"  )
 NUMBER OF CORE ORBITALS:           2   (   2A'  +   0A"  )
 NUMBER OF VALENCE ORBITALS:        9   (   7A'  +   2A"  )


 NUCLEAR REPULSION ENERGY   30.22091209

 Eigenvalues of metric

         1 0.243E-02 0.393E-02 0.430E-02 0.813E-02 0.127E-01 0.330E-01 0.430E-01 0.463E-01
         2 0.346E-01 0.465E-01 0.102E+00 0.109E+00 0.235E+00 0.337E+00 0.395E+00 0.451E+00


 Contracted 2-electron integrals neglected if value below      1.0D-22

        1874254. INTEGRALS WRITTEN OUT IN     458 BLOCKS ON RECORD 1290 OF FILE 1


 NUMBER OF SORTED TWO-ELECTRON INTEGRALS:    2006100.     BUFFER LENGTH:  32768
 NUMBER OF SEGMENTS:   1  SEGMENT LENGTH:    2006100      RECORD LENGTH: 524288

 Memory used in sort:       2.56 MW

 SORT1 READ     1874254. AND WROTE     1914161. INTEGRALS IN      6 RECORDS. CPU TIME:     0.05 SEC, REAL TIME:     0.05 SEC
 SORT2 READ     1914161. AND WROTE     2006100. INTEGRALS IN      1 RECORDS. CPU TIME:     0.05 SEC, REAL TIME:     0.06 SEC

 FILE SIZES:   FILE 1:    50.1 MBYTE,  FILE 4:    25.2 MBYTE,   TOTAL:     75.3 MBYTE

 OPERATOR DM      FOR CENTER  0  COORDINATES:    0.000000    0.000000    0.000000


 **********************************************************************************************************************************
 DATASETS  * FILE   NREC   LENGTH (MB)   RECORD NAMES
              1      19       35.89       500      610      700      900      950      970     1000      129      960     1100   
                                          VAR    BASINP    GEOM    SYMINP    ZMAT    AOBASIS   BASIS     P2S    ABASIS      S 
                                         1400     1410     1200     1210     1080     1600     1650     1300     1700   
                                           T        V       H0       H01     AOSYM     SMH    MOLCAS    ERIS     OPER   

 PROGRAMS   *        TOTAL       INT
 CPU TIMES  *         0.74      0.62
 REAL TIME  *         1.31 SEC
 DISK USED  *        75.59 MB      
 **********************************************************************************************************************************


 PROGRAM * RHF-SCF (CLOSED SHELL)       Authors: W. Meyer, H.-J. Werner


 NUMBER OF ELECTRONS:       8+    8-
 CONVERGENCE THRESHOLDS:    1.00E-10 (Density)    1.00E-13 (Energy)
 MAX. NUMBER OF ITERATIONS:      500
 INTERPOLATION TYPE:            DIIS
 INTERPOLATION STEPS:              2 (START)      1 (STEP)
 LEVEL SHIFTS:                  0.00 (CLOSED)  0.00 (OPEN) 



 Orbital guess generated from atomic densities. Full valence occupancy:    9   2

 Molecular orbital dump at record        2100.2

 Initial occupancy:   7   1

 ITERATION    DDIFF          GRAD             ENERGY        2-EL.EN.            DIPOLE MOMENTS         DIIS   ORB.
    1      0.000D+00      0.000D+00      -129.77857586    153.875479    0.00000    0.60659   -1.06620    0    start
    2      0.000D+00      0.136D-01      -129.80518789    154.995501    0.00000    0.62290   -0.22606    1    diag
    3      0.188D-01      0.105D-01      -129.82817793    155.137981    0.00000    0.57476   -0.61772    2    diag
    4      0.914D-02      0.158D-02      -129.82893426    154.866067    0.00000    0.58303   -0.55634    3    diag
    5      0.169D-02      0.520D-03      -129.82904970    154.951620    0.00000    0.58829   -0.55733    4    diag
    6      0.724D-03      0.153D-03      -129.82906857    154.936967    0.00000    0.58881   -0.55304    5    diag
    7      0.278D-03      0.776D-04      -129.82907429    154.939077    0.00000    0.58997   -0.55041    6    diag
    8      0.194D-03      0.256D-04      -129.82907489    154.938360    0.00000    0.58997   -0.54954    7    diag
    9      0.693D-04      0.467D-05      -129.82907491    154.938238    0.00000    0.58992   -0.54937    8    diag
   10      0.135D-04      0.101D-05      -129.82907491    154.938221    0.00000    0.58989   -0.54935    9    orth
   11      0.288D-05      0.196D-06      -129.82907491    154.938218    0.00000    0.58988   -0.54934    9    diag
   12      0.512D-06      0.420D-07      -129.82907491    154.938216    0.00000    0.58988   -0.54934    9    diag
   13      0.111D-06      0.107D-07      -129.82907491    154.938216    0.00000    0.58988   -0.54934    9    diag
   14      0.281D-07      0.196D-08      -129.82907491    154.938216    0.00000    0.58988   -0.54934    9    diag
   15      0.420D-08      0.505D-09      -129.82907491    154.938216    0.00000    0.58988   -0.54934    9    diag
   16      0.109D-08      0.129D-09      -129.82907491    154.938216    0.00000    0.58988   -0.54934    9    diag
   17      0.186D-09      0.374D-10      -129.82907491    154.938216    0.00000    0.58988   -0.54934    9    diag
   18      0.606D-10      0.130D-10      -129.82907491    154.938216    0.00000    0.58988   -0.54934    9    diag
   19      0.274D-10      0.277D-11      -129.82907491    154.938216    0.00000    0.58988   -0.54934    9    fixocc
   20      0.750D-11      0.540D-12      -129.82907491    154.938216    0.00000    0.58988   -0.54934    9    orth
   21      0.144D-11      0.149D-12      -129.82907491    154.938216    0.00000    0.58988   -0.54934    9    diag
   22      0.395D-12      0.464D-13      -129.82907491    154.938216    0.00000    0.58988   -0.54934    9    diag
   23      0.103D-12      0.244D-13      -129.82907491    154.938216    0.00000    0.58988   -0.54934    9    diag
   24      0.701D-13      0.329D-13      -129.82907491    154.938216    0.00000    0.58988   -0.54934    0    orth

 Final occupancy:   7   1

 !RHF STATE 1.1 Energy               -129.829074914055
 Nuclear energy                        30.22091209
 One-electron energy                 -237.51909506
 Two-electron energy                   77.46910805
 Virial quotient                       -0.99977489
 !RHF STATE 1.1 Dipole moment           0.00000000     0.58988000    -0.54934279
 Dipole moment /Debye                   0.00000000     1.49922722    -1.39619864

 Orbital energies:

         1.1          2.1          3.1          4.1          5.1          6.1          7.1          8.1          9.1
    -20.648611   -15.707349    -1.518191    -0.997286    -0.741907    -0.659277    -0.430421     0.144403     0.368585

         1.2          2.2          3.2
     -0.587397     0.082723     0.614071

 HOMO      7.1    -0.430421 =     -11.7124eV
 LUMO      2.2     0.082723 =       2.2510eV
 LUMO-HOMO         0.513144 =      13.9634eV


 **********************************************************************************************************************************
 DATASETS  * FILE   NREC   LENGTH (MB)   RECORD NAMES
              1      19       35.89       500      610      700      900      950      970     1000      129      960     1100   
                                          VAR    BASINP    GEOM    SYMINP    ZMAT    AOBASIS   BASIS     P2S    ABASIS      S 
                                         1400     1410     1200     1210     1080     1600     1650     1300     1700   
                                           T        V       H0       H01     AOSYM     SMH    MOLCAS    ERIS     OPER   

              2       4        2.85       700     1000      520     2100   
                                         GEOM     BASIS   MCVARS     RHF  

 PROGRAMS   *        TOTAL        HF       INT
 CPU TIMES  *         1.06      0.32      0.62
 REAL TIME  *         1.67 SEC
 DISK USED  *        75.59 MB      
 **********************************************************************************************************************************


 PROGRAM * CCSD (Closed-shell coupled cluster)     Authors: C. Hampel, H.-J. Werner, 1991, M. Deegan, P.J. Knowles, 1992


 Convergence thresholds:  THRVAR = 1.00D-08  THRDEN = 1.00D-12

 CCSD(T)     terms to be evaluated (factor= 1.000)


 Number of core orbitals:           2 (   2   0 )
 Number of closed-shell orbitals:   6 (   5   1 )
 Number of external orbitals:      66 (  43  23 )

 Molecular orbitals read from record     2100.2  Type=RHF/CANONICAL (state 1.1)

 Number of N-1 electron functions:               6
 Number of N-2 electron functions:              21
 Number of singly external CSFs:               238
 Number of doubly external CSFs:             41002
 Total number of CSFs:                       41241

 Length of J-op  integral file:               0.00 MB
 Length of K-op  integral file:               0.25 MB
 Length of 3-ext integral record:             0.00 MB

 Memory could be reduced to 1.65 Mwords without degradation in triples

 Integral transformation finished. Total CPU:   0.03 sec, npass=  1  Memory used:   0.55 MW

 Reference energy:                   -129.82907491

 MP2 singlet pair energy:              -0.27423630
 MP2 triplet pair energy:              -0.16288786
 MP2 correlation energy:               -0.43712416
 MP2 total energy:                   -130.26619908

 SCS-MP2 correlation energy:           -0.43043601   (PS=  1.200000  PT=  0.333333)
 SCS-MP2 total energy:               -130.25951092

 ITER.      SQ.NORM     CORR.ENERGY   TOTAL ENERGY   ENERGY CHANGE        DEN1      VAR(S)    VAR(P)  DIIS     TIME  TIME/IT
   1      1.11897058    -0.44193332  -130.27100824    -0.00480916     0.01122972  0.30D-02  0.31D-02  1  1     0.10     0.06
   2      1.12995504    -0.44212643  -130.27120134    -0.00019310    -0.01242272  0.91D-04  0.51D-03  2  2     0.15     0.06
   3      1.13634795    -0.44251705  -130.27159196    -0.00039062    -0.00300947  0.47D-04  0.53D-04  3  3     0.20     0.06
   4      1.13924086    -0.44254589  -130.27162081    -0.00002884    -0.00097986  0.40D-05  0.92D-05  4  4     0.25     0.06
   5      1.14027105    -0.44257602  -130.27165093    -0.00003012    -0.00021303  0.13D-05  0.17D-05  5  5     0.31     0.06
   6      1.14063629    -0.44255861  -130.27163352     0.00001741    -0.00004191  0.85D-07  0.43D-06  6  6     0.36     0.06
   7      1.14071943    -0.44256112  -130.27163603    -0.00000251    -0.00000153  0.95D-08  0.94D-07  6  1     0.41     0.06
   8      1.14074939    -0.44256105  -130.27163596     0.00000007     0.00000220  0.51D-08  0.11D-07  6  2     0.47     0.06
   9      1.14075715    -0.44256090  -130.27163581     0.00000015    -0.00000242  0.27D-08  0.12D-08  6  3     0.53     0.06
  10      1.14075577    -0.44256141  -130.27163632    -0.00000051     0.00000071  0.50D-09  0.22D-09  6  4     0.58     0.06
  11      1.14075411    -0.44256147  -130.27163638    -0.00000006     0.00000013  0.15D-09  0.23D-10  6  5     0.64     0.06
  12      1.14075275    -0.44256165  -130.27163656    -0.00000018     0.00000043  0.14D-10  0.71D-11  6  6     0.69     0.06
  13      1.14075216    -0.44256165  -130.27163657    -0.00000001     0.00000012  0.60D-11  0.12D-11  6  1     0.74     0.06
  14      1.14075179    -0.44256167  -130.27163659    -0.00000002     0.00000007  0.85D-12  0.43D-12  6  2     0.80     0.06
  15      1.14075164    -0.44256168  -130.27163659    -0.00000000     0.00000002  0.22D-12  0.14D-12  6  3     0.86     0.06
  16      1.14075156    -0.44256168  -130.27163659    -0.00000000     0.00000001  0.13D-13  0.53D-13  6  4     0.91     0.06
  17      1.14075152    -0.44256168  -130.27163659    -0.00000000     0.00000001  0.25D-14  0.12D-13  6  5     0.96     0.06
  18      1.14075151    -0.44256168  -130.27163659     0.00000000     0.00000000  0.17D-14  0.31D-14  6  6     1.02     0.06
  19      1.14075151    -0.44256168  -130.27163659     0.00000000    -0.00000000  0.76D-15  0.35D-15  6  1     1.08     0.06
  20      1.14075151    -0.44256168  -130.27163659     0.00000000    -0.00000000  0.63D-16  0.62D-16  6  2     1.13     0.06
  21      1.14075151    -0.44256168  -130.27163659    -0.00000000     0.00000000  0.35D-16  0.11D-16  6  3     1.18     0.06
  22      1.14075151    -0.44256168  -130.27163659    -0.00000000     0.00000000  0.60D-17  0.22D-17  6  4     1.24     0.06
  23      1.14075151    -0.44256168  -130.27163659    -0.00000000     0.00000000  0.22D-17  0.36D-18  6  5     1.30     0.06
  24      1.14075151    -0.44256168  -130.27163659    -0.00000000    -0.00000000  0.23D-18  0.10D-18  6  6     1.36     0.06
  25      1.14075151    -0.44256168  -130.27163659     0.00000000    -0.00000000  0.68D-19  0.25D-19  6  2     1.42     0.06
  26      1.14075151    -0.44256168  -130.27163659     0.00000000    -0.00000000  0.18D-20  0.21D-20  6  1     1.47     0.06
  27      1.14075151    -0.44256168  -130.27163659     0.00000000    -0.00000000  0.37D-21  0.65D-21  6  3     1.52     0.06

 Norm of t1 vector:      0.07583535      S-energy:    -0.00000000      T1 diagnostic:  0.01547983
                                                                       D1 diagnostic:  0.04368142

 Doubles amplitudes (print threshold =  0.500E-01):

         I         J         SYM. A    SYM. B    A         B      T(IJ, AB)

         6         6         2         2         1         1     -0.14664971


 Total CPU time for triples:      0.37 sec


 RESULTS
 =======

  Reference energy                   -129.829074914055
  CCSD singlet pair energy             -0.303600618724
  CCSD triplet pair energy             -0.138961061420
  CCSD correlation energy              -0.442561680144

  Triples (T) contribution             -0.019965974242
  Total correlation energy             -0.462527654386

  CCSD total energy                  -130.271636594199
  CCSD[T] energy                     -130.292646289774
  CCSD-T energy                      -130.291200755448
 !CCSD(T) total energy               -130.291602568441

 Timing summary (sec):

 STEP                 CPU(USER)    SYS     CPU(TOT)    WALL
 Transformation          0.03      0.01      0.04      0.05
 CCSD iterations         1.49      0.12      1.61      1.61
 Triples                 0.37      0.01      0.38      0.37

 Program statistics:

 Available memory in ccsd:               994999756
 Min. memory needed in ccsd:                154850
 Max. memory used in ccsd:                  184802
 Max. memory used in cckext:                238416 (27 integral passes)



 **********************************************************************************************************************************
 DATASETS  * FILE   NREC   LENGTH (MB)   RECORD NAMES
              1      20       40.28       500      610      700      900      950      970     1000      129      960     1100   
                                          VAR    BASINP    GEOM    SYMINP    ZMAT    AOBASIS   BASIS     P2S    ABASIS      S 
                                         1400     1410     1200     1210     1080     1600     1650     1300     1700     1380   
                                           T        V       H0       H01     AOSYM     SMH    MOLCAS    ERIS     OPER     JKOP   

              2       4        2.85       700     1000      520     2100   
                                         GEOM     BASIS   MCVARS     RHF  

 PROGRAMS   *        TOTAL   CCSD(T)        HF       INT
 CPU TIMES  *         2.97      1.91      0.32      0.62
 REAL TIME  *         3.73 SEC
 DISK USED  *        75.59 MB      
 **********************************************************************************************************************************

 CCSD(T)/cc-pVTZ-DK energy=   -130.291602568441

        CCSD(T)         HF-SCF  
   -130.29160257   -129.82907491
 **********************************************************************************************************************************
 Molpro calculation terminated
 Variable memory released
