
 Primary working directories    : /tmp/r2666/235110.maple
 Secondary working directories  : /tmp/r2666/235110.maple
 Wavefunction directory         : /ddn/home4/r2666/wfu/
 Main file repository           : /tmp/r2666/235110.maple/

 SHA1      : d5ffa45e93fdbca01ffc919aa182cfdae0147319
 NAME      : 2015.1.35
 ARCHNAME  : linux/x86_64
 FC        : /opt/intel/composer_xe_2015.1.133/bin/intel64/ifort
 BLASLIB   : -Wl,-_start-group /opt/intel/mkl/lib/intel64/libmkl_intel_ilp64.a /opt/intel/mkl/lib/intel64/libmkl_intel_thread.a /opt/intel/mkl/lib/intel64/libmkl_core.a -Wl,-_end-group
 id        : olemiss

 Nodes     nprocs
 cn043        1

 Using customized tuning parameters: mindgm=1; mindgv=20; mindgc=4; mindgr=1; noblas=0; minvec=7
 default implementation of scratch files=df  

 ***,hno CCSD(T)/TZ-F12 QFF
 memory, 995, m;
 gthresh,energy=1.d-12,zero=1.d-22,oneint=1.d-22,twoint=1.d-22;
 gthresh,optgrad=1.d-8,optstep=1.d-8;
 nocompress;
 geomtyp=xyz
 bohr
 geometry={
 3
         95        95
 N        0.0000000000       -0.1576548748       -1.1287734975
 H        0.0000000000        1.6693049358       -1.9363897205
 O        0.0000000000        0.0301177290        1.1145736270
 }
 
 basis=vtz-dk
 dkroll=0
   {hf,maxit=500;accu,20;}
 {ccsd(t),nocheck,maxit=250;orbital,IGNORE_ERROR;}

 Variables initialized (889), CPU time= 0.00 sec
 Commands  initialized (702), CPU time= 0.01 sec, 572 directives.
 Default parameters read. Elapsed time= 0.04 sec

 Checking input...
 Passed
1


                                         ***  PROGRAM SYSTEM MOLPRO  ***
                                       Copyright, TTI GmbH Stuttgart, 2015
                                    Version 2015.1 linked Jul  9 2018 13:16:40


 **********************************************************************************************************************************
 LABEL *   hno CCSD(T)/TZ-F12 QFF                                                        
  64 bit serial version                                                                  DATE: 08-Feb-20          TIME: 17:57:09  
 **********************************************************************************************************************************

 SHA1:             d5ffa45e93fdbca01ffc919aa182cfdae0147319
 **********************************************************************************************************************************

 THRESHOLDS:

 ZERO    =  1.00D-22  ONEINT  =  1.00D-22  TWOINT  =  1.00D-22  PREFAC  =  1.00D-14  LOCALI  =  1.00D-09  EORDER  =  1.00D-04
 ENERGY  =  1.00D-12  ETEST   =  0.00D+00  EDENS   =  0.00D+00  THRDEDEF=  1.00D-06  GRADIENT=  1.00D-02  STEP    =  1.00D-03
 ORBITAL =  1.00D-05  CIVEC   =  1.00D-05  COEFF   =  1.00D-04  PRINTCI =  5.00D-02  PUNCHCI =  9.90D+01  OPTGRAD =  3.00D-04
 OPTENERG=  1.00D-06  OPTSTEP =  3.00D-04  THRGRAD =  1.00D-10  COMPRESS=  1.00D-11  VARMIN  =  1.00D-07  VARMAX  =  1.00D-03
 THRDOUB =  0.00D+00  THRDIV  =  1.00D-05  THRRED  =  1.00D-07  THRPSP  =  1.00D+00  THRDC   =  1.00D-10  THRCS   =  1.00D-10
 THRNRM  =  1.00D-08  THREQ   =  0.00D+00  THRDE   =  1.00D+00  THRREF  =  1.00D-05  SPARFAC =  1.00D+00  THRDLP  =  1.00D-07
 THRDIA  =  1.00D-10  THRDLS  =  1.00D-07  THRGPS  =  0.00D+00  THRKEX  =  0.00D+00  THRDIS  =  2.00D-01  THRVAR  =  1.00D-10
 THRLOC  =  1.00D-06  THRGAP  =  1.00D-06  THRLOCT = -1.00D+00  THRGAPT = -1.00D+00  THRORB  =  1.00D-06  THRMLTP =  0.00D+00
 THRCPQCI=  1.00D-10  KEXTA   =  0.00D+00  THRCOARS=  0.00D+00  SYMTOL  =  1.00D-06  GRADTOL =  1.00D-06  THROVL  =  1.00D-08
 THRORTH =  1.00D-08  GRID    =  1.00D-06  GRIDMAX =  1.00D-03  DTMAX   =  0.00D+00  THROCCDE=  1.00D-01  THROCCDE=  1.00D-01



 THRESHOLDS:

 ZERO    =  1.00D-22  ONEINT  =  1.00D-22  TWOINT  =  1.00D-22  PREFAC  =  1.00D-14  LOCALI  =  1.00D-09  EORDER  =  1.00D-04
 ENERGY  =  1.00D-12  ETEST   =  0.00D+00  EDENS   =  0.00D+00  THRDEDEF=  1.00D-06  GRADIENT=  1.00D-02  STEP    =  1.00D-03
 ORBITAL =  1.00D-05  CIVEC   =  1.00D-05  COEFF   =  1.00D-04  PRINTCI =  5.00D-02  PUNCHCI =  9.90D+01  OPTGRAD =  1.00D-08
 OPTENERG=  1.00D-06  OPTSTEP =  1.00D-08  THRGRAD =  1.00D-10  COMPRESS=  1.00D-11  VARMIN  =  1.00D-07  VARMAX  =  1.00D-03
 THRDOUB =  0.00D+00  THRDIV  =  1.00D-05  THRRED  =  1.00D-07  THRPSP  =  1.00D+00  THRDC   =  1.00D-10  THRCS   =  1.00D-10
 THRNRM  =  1.00D-08  THREQ   =  0.00D+00  THRDE   =  1.00D+00  THRREF  =  1.00D-05  SPARFAC =  1.00D+00  THRDLP  =  1.00D-07
 THRDIA  =  1.00D-10  THRDLS  =  1.00D-07  THRGPS  =  0.00D+00  THRKEX  =  0.00D+00  THRDIS  =  2.00D-01  THRVAR  =  1.00D-10
 THRLOC  =  1.00D-06  THRGAP  =  1.00D-06  THRLOCT = -1.00D+00  THRGAPT = -1.00D+00  THRORB  =  1.00D-06  THRMLTP =  0.00D+00
 THRCPQCI=  1.00D-10  KEXTA   =  0.00D+00  THRCOARS=  0.00D+00  SYMTOL  =  1.00D-06  GRADTOL =  1.00D-06  THROVL  =  1.00D-08
 THRORTH =  1.00D-08  GRID    =  1.00D-06  GRIDMAX =  1.00D-03  DTMAX   =  0.00D+00  THROCCDE=  1.00D-01  THROCCDE=  1.00D-01



 Input parameters for SORTINT:

 COMPRESS =    0.000000
 C_FINAL  =    1.000000
 DEBUG    =   -1.000000
 C_SORT1  =    0.000000
 C_SEWARD =    0.000000
 THRESH   =    0.000000
 IO       =  molpro                                                          
 SPRI     =    0.000000
 SETTING GEOMTYP        =    XYZ
 ZUNIT=BOHR
 

 Variable memory set to  995000000 words,  buffer space   230000 words

 SETTING BASIS          =    VTZ-DK
 SETTING DKROLL         =     0.00000000D+00                                  


 Recomputing integrals since basis changed


 Using spherical harmonics

 Library entry N      S cc-pVTZ-DK           selected for orbital group  1
 Library entry N      P cc-pVTZ-DK           selected for orbital group  1
 Library entry N      D cc-pVTZ-DK           selected for orbital group  1
 Library entry N      F cc-pVTZ-DK           selected for orbital group  1
 Library entry H      S cc-pVTZ-DK           selected for orbital group  2
 Library entry H      P cc-pVTZ-DK           selected for orbital group  2
 Library entry H      D cc-pVTZ-DK           selected for orbital group  2
 Library entry O      S cc-pVTZ-DK           selected for orbital group  3
 Library entry O      P cc-pVTZ-DK           selected for orbital group  3
 Library entry O      D cc-pVTZ-DK           selected for orbital group  3
 Library entry O      F cc-pVTZ-DK           selected for orbital group  3


 PROGRAM * SEWARD (Integral evaluation for generally contracted gaussian basis sets)     Author: Roland Lindh, 1990

 Geometry written to block  1 of record 700


 Point group  Cs  



 ATOMIC COORDINATES

 NR  ATOM    CHARGE       X              Y              Z

   1  N       7.00    0.000000000   -0.157654875   -1.128773497
   2  H       1.00    0.000000000    1.669304936   -1.936389721
   3  O       8.00    0.000000000    0.030117729    1.114573627

 Bond lengths in Bohr (Angstrom)

 1-2  1.997504972  1-3  2.251191878
     ( 1.057034110)     ( 1.191279439)

 Bond angles

  2-1-3  109.06343437

 NUCLEAR CHARGE:                   16
 NUMBER OF PRIMITIVE AOS:         111
 NUMBER OF SYMMETRY AOS:          100
 NUMBER OF CONTRACTIONS:           74   (  50A'  +  24A"  )
 NUMBER OF CORE ORBITALS:           2   (   2A'  +   0A"  )
 NUMBER OF VALENCE ORBITALS:        9   (   7A'  +   2A"  )


 NUCLEAR REPULSION ENERGY   30.68993570

 Eigenvalues of metric

         1 0.240E-02 0.385E-02 0.400E-02 0.838E-02 0.131E-01 0.317E-01 0.416E-01 0.462E-01
         2 0.335E-01 0.463E-01 0.996E-01 0.111E+00 0.229E+00 0.343E+00 0.390E+00 0.446E+00


 Contracted 2-electron integrals neglected if value below      1.0D-22

        1874283. INTEGRALS WRITTEN OUT IN     458 BLOCKS ON RECORD 1290 OF FILE 1


 NUMBER OF SORTED TWO-ELECTRON INTEGRALS:    2006100.     BUFFER LENGTH:  32768
 NUMBER OF SEGMENTS:   1  SEGMENT LENGTH:    2006100      RECORD LENGTH: 524288

 Memory used in sort:       2.56 MW

 SORT1 READ     1874283. AND WROTE     1914195. INTEGRALS IN      6 RECORDS. CPU TIME:     0.05 SEC, REAL TIME:     0.06 SEC
 SORT2 READ     1914195. AND WROTE     2006100. INTEGRALS IN      1 RECORDS. CPU TIME:     0.03 SEC, REAL TIME:     0.06 SEC

 FILE SIZES:   FILE 1:    50.1 MBYTE,  FILE 4:    25.2 MBYTE,   TOTAL:     75.3 MBYTE

 OPERATOR DM      FOR CENTER  0  COORDINATES:    0.000000    0.000000    0.000000


 **********************************************************************************************************************************
 DATASETS  * FILE   NREC   LENGTH (MB)   RECORD NAMES
              1      19       35.89       500      610      700      900      950      970     1000      129      960     1100   
                                          VAR    BASINP    GEOM    SYMINP    ZMAT    AOBASIS   BASIS     P2S    ABASIS      S 
                                         1400     1410     1200     1210     1080     1600     1650     1300     1700   
                                           T        V       H0       H01     AOSYM     SMH    MOLCAS    ERIS     OPER   

 PROGRAMS   *        TOTAL       INT
 CPU TIMES  *         0.63      0.54
 REAL TIME  *         1.20 SEC
 DISK USED  *        75.59 MB      
 **********************************************************************************************************************************


 PROGRAM * RHF-SCF (CLOSED SHELL)       Authors: W. Meyer, H.-J. Werner


 NUMBER OF ELECTRONS:       8+    8-
 CONVERGENCE THRESHOLDS:    1.00E-10 (Density)    1.00E-13 (Energy)
 MAX. NUMBER OF ITERATIONS:      500
 INTERPOLATION TYPE:            DIIS
 INTERPOLATION STEPS:              2 (START)      1 (STEP)
 LEVEL SHIFTS:                  0.00 (CLOSED)  0.00 (OPEN) 



 Orbital guess generated from atomic densities. Full valence occupancy:    9   2

 Molecular orbital dump at record        2100.2

 Initial occupancy:   7   1

 ITERATION    DDIFF          GRAD             ENERGY        2-EL.EN.            DIPOLE MOMENTS         DIIS   ORB.
    1      0.000D+00      0.000D+00      -129.78418848    154.701463    0.00000    0.58666   -0.98794    0    start
    2      0.000D+00      0.133D-01      -129.81145268    155.890653    0.00000    0.60294   -0.23307    1    diag
    3      0.180D-01      0.978D-02      -129.83113177    155.973857    0.00000    0.55643   -0.58056    2    diag
    4      0.859D-02      0.154D-02      -129.83184320    155.717415    0.00000    0.56474   -0.52336    3    diag
    5      0.164D-02      0.503D-03      -129.83195286    155.802424    0.00000    0.57026   -0.52497    4    diag
    6      0.704D-03      0.149D-03      -129.83197080    155.787885    0.00000    0.57090   -0.52109    5    diag
    7      0.273D-03      0.734D-04      -129.83197578    155.790358    0.00000    0.57219   -0.51883    6    diag
    8      0.185D-03      0.225D-04      -129.83197620    155.789740    0.00000    0.57222   -0.51813    7    diag
    9      0.573D-04      0.406D-05      -129.83197621    155.789637    0.00000    0.57217   -0.51799    8    diag
   10      0.110D-04      0.936D-06      -129.83197622    155.789619    0.00000    0.57214   -0.51796    9    orth
   11      0.268D-05      0.185D-06      -129.83197622    155.789614    0.00000    0.57213   -0.51796    9    diag
   12      0.502D-06      0.374D-07      -129.83197622    155.789613    0.00000    0.57213   -0.51796    9    diag
   13      0.108D-06      0.907D-08      -129.83197622    155.789612    0.00000    0.57213   -0.51796    9    diag
   14      0.265D-07      0.173D-08      -129.83197622    155.789612    0.00000    0.57213   -0.51796    9    diag
   15      0.465D-08      0.476D-09      -129.83197622    155.789612    0.00000    0.57213   -0.51796    9    diag
   16      0.113D-08      0.134D-09      -129.83197622    155.789612    0.00000    0.57213   -0.51796    9    diag
   17      0.246D-09      0.398D-10      -129.83197622    155.789612    0.00000    0.57213   -0.51796    9    diag
   18      0.836D-10      0.124D-10      -129.83197622    155.789612    0.00000    0.57213   -0.51796    9    diag
   19      0.287D-10      0.274D-11      -129.83197622    155.789612    0.00000    0.57213   -0.51796    0    orth

 Final occupancy:   7   1

 !RHF STATE 1.1 Energy               -129.831976215264
 Nuclear energy                        30.68993570
 One-electron energy                 -238.41671805
 Two-electron energy                   77.89480614
 Virial quotient                       -0.99925315
 !RHF STATE 1.1 Dipole moment           0.00000000     0.57212848    -0.51795876
 Dipole moment /Debye                   0.00000000     1.45411029    -1.31643363

 Orbital energies:

         1.1          2.1          3.1          4.1          5.1          6.1          7.1          8.1          9.1
    -20.646666   -15.705451    -1.539313    -0.986369    -0.747771    -0.667010    -0.420816     0.144577     0.372100

         1.2          2.2          3.2
     -0.600157     0.092453     0.611126

 HOMO      7.1    -0.420816 =     -11.4510eV
 LUMO      2.2     0.092453 =       2.5158eV
 LUMO-HOMO         0.513268 =      13.9667eV


 **********************************************************************************************************************************
 DATASETS  * FILE   NREC   LENGTH (MB)   RECORD NAMES
              1      19       35.89       500      610      700      900      950      970     1000      129      960     1100   
                                          VAR    BASINP    GEOM    SYMINP    ZMAT    AOBASIS   BASIS     P2S    ABASIS      S 
                                         1400     1410     1200     1210     1080     1600     1650     1300     1700   
                                           T        V       H0       H01     AOSYM     SMH    MOLCAS    ERIS     OPER   

              2       4        2.85       700     1000      520     2100   
                                         GEOM     BASIS   MCVARS     RHF  

 PROGRAMS   *        TOTAL        HF       INT
 CPU TIMES  *         0.84      0.21      0.54
 REAL TIME  *         1.46 SEC
 DISK USED  *        75.59 MB      
 **********************************************************************************************************************************


 PROGRAM * CCSD (Closed-shell coupled cluster)     Authors: C. Hampel, H.-J. Werner, 1991, M. Deegan, P.J. Knowles, 1992


 Convergence thresholds:  THRVAR = 1.00D-08  THRDEN = 1.00D-12

 CCSD(T)     terms to be evaluated (factor= 1.000)


 Number of core orbitals:           2 (   2   0 )
 Number of closed-shell orbitals:   6 (   5   1 )
 Number of external orbitals:      66 (  43  23 )

 Molecular orbitals read from record     2100.2  Type=RHF/CANONICAL (state 1.1)

 Number of N-1 electron functions:               6
 Number of N-2 electron functions:              21
 Number of singly external CSFs:               238
 Number of doubly external CSFs:             41002
 Total number of CSFs:                       41241

 Length of J-op  integral file:               0.00 MB
 Length of K-op  integral file:               0.25 MB
 Length of 3-ext integral record:             0.00 MB

 Memory could be reduced to 1.65 Mwords without degradation in triples

 Integral transformation finished. Total CPU:   0.03 sec, npass=  1  Memory used:   0.55 MW

 Reference energy:                   -129.83197622

 MP2 singlet pair energy:              -0.27194288
 MP2 triplet pair energy:              -0.16136007
 MP2 correlation energy:               -0.43330296
 MP2 total energy:                   -130.26527917

 SCS-MP2 correlation energy:           -0.42673328   (PS=  1.200000  PT=  0.333333)
 SCS-MP2 total energy:               -130.25870950

 ITER.      SQ.NORM     CORR.ENERGY   TOTAL ENERGY   ENERGY CHANGE        DEN1      VAR(S)    VAR(P)  DIIS     TIME  TIME/IT
   1      1.11681826    -0.43904717  -130.27102339    -0.00574421     0.00940911  0.28D-02  0.28D-02  1  1     0.08     0.05
   2      1.12730379    -0.43942178  -130.27139799    -0.00037461    -0.01191311  0.80D-04  0.48D-03  2  2     0.12     0.05
   3      1.13328823    -0.43978811  -130.27176433    -0.00036634    -0.00287660  0.45D-04  0.47D-04  3  3     0.17     0.05
   4      1.13592230    -0.43981177  -130.27178798    -0.00002366    -0.00091115  0.37D-05  0.84D-05  4  4     0.22     0.05
   5      1.13684831    -0.43983896  -130.27181518    -0.00002719    -0.00019145  0.14D-05  0.16D-05  5  5     0.26     0.05
   6      1.13719434    -0.43982417  -130.27180039     0.00001479    -0.00003845  0.10D-06  0.41D-06  6  6     0.31     0.05
   7      1.13728345    -0.43982579  -130.27180200    -0.00000161    -0.00000293  0.13D-07  0.81D-07  6  1     0.36     0.05
   8      1.13731415    -0.43982597  -130.27180219    -0.00000019     0.00000178  0.42D-08  0.92D-08  6  2     0.41     0.05
   9      1.13732161    -0.43982576  -130.27180198     0.00000021    -0.00000216  0.24D-08  0.10D-08  6  3     0.45     0.05
  10      1.13732040    -0.43982625  -130.27180246    -0.00000049     0.00000056  0.47D-09  0.19D-09  6  4     0.50     0.05
  11      1.13731866    -0.43982631  -130.27180252    -0.00000006     0.00000022  0.15D-09  0.22D-10  6  5     0.55     0.05
  12      1.13731728    -0.43982647  -130.27180269    -0.00000017     0.00000042  0.16D-10  0.75D-11  6  6     0.60     0.05
  13      1.13731668    -0.43982648  -130.27180269    -0.00000001     0.00000012  0.68D-11  0.12D-11  6  1     0.65     0.05
  14      1.13731631    -0.43982650  -130.27180271    -0.00000002     0.00000007  0.92D-12  0.41D-12  6  2     0.69     0.05
  15      1.13731618    -0.43982650  -130.27180271    -0.00000000     0.00000001  0.23D-12  0.14D-12  6  3     0.73     0.05
  16      1.13731609    -0.43982650  -130.27180271    -0.00000000     0.00000001  0.26D-13  0.15D-13  6  5     0.78     0.05
  17      1.13731606    -0.43982650  -130.27180272    -0.00000000     0.00000000  0.90D-15  0.25D-14  6  4     0.83     0.05
  18      1.13731606    -0.43982650  -130.27180272     0.00000000    -0.00000000  0.54D-15  0.36D-15  6  1     0.88     0.05
  19      1.13731605    -0.43982650  -130.27180272    -0.00000000     0.00000000  0.42D-16  0.60D-16  6  6     0.93     0.05
  20      1.13731605    -0.43982650  -130.27180272    -0.00000000     0.00000000  0.82D-17  0.14D-16  6  2     0.97     0.05
  21      1.13731605    -0.43982650  -130.27180272    -0.00000000     0.00000000  0.19D-17  0.10D-17  6  5     1.02     0.05
  22      1.13731605    -0.43982650  -130.27180272     0.00000000     0.00000000  0.12D-18  0.73D-19  6  3     1.05     0.05
  23      1.13731605    -0.43982650  -130.27180272     0.00000000    -0.00000000  0.32D-19  0.16D-19  6  4     1.10     0.05
  24      1.13731605    -0.43982650  -130.27180272     0.00000000    -0.00000000  0.47D-20  0.45D-20  6  1     1.15     0.05
  25      1.13731605    -0.43982650  -130.27180272     0.00000000    -0.00000000  0.46D-21  0.82D-21  6  6     1.20     0.05

 Norm of t1 vector:      0.07303874      S-energy:     0.00000000      T1 diagnostic:  0.01490897
                                                                       D1 diagnostic:  0.04041468

 Doubles amplitudes (print threshold =  0.500E-01):

         I         J         SYM. A    SYM. B    A         B      T(IJ, AB)

         6         6         2         2         1         1     -0.13908646


 Total CPU time for triples:      0.35 sec


 RESULTS
 =======

  Reference energy                   -129.831976215264
  CCSD singlet pair energy             -0.301206127433
  CCSD triplet pair energy             -0.138620374217
  CCSD correlation energy              -0.439826501649

  Triples (T) contribution             -0.019314664932
  Total correlation energy             -0.459141166581

  CCSD total energy                  -130.271802716912
  CCSD[T] energy                     -130.292077167894
  CCSD-T energy                      -130.290733940081
 !CCSD(T) total energy               -130.291117381845

 Timing summary (sec):

 STEP                 CPU(USER)    SYS     CPU(TOT)    WALL
 Transformation          0.04      0.02      0.06      0.05
 CCSD iterations         1.17      0.14      1.31      1.33
 Triples                 0.35      0.01      0.36      0.36

 Program statistics:

 Available memory in ccsd:               994999756
 Min. memory needed in ccsd:                154850
 Max. memory used in ccsd:                  184802
 Max. memory used in cckext:                238416 (25 integral passes)



 **********************************************************************************************************************************
 DATASETS  * FILE   NREC   LENGTH (MB)   RECORD NAMES
              1      20       40.28       500      610      700      900      950      970     1000      129      960     1100   
                                          VAR    BASINP    GEOM    SYMINP    ZMAT    AOBASIS   BASIS     P2S    ABASIS      S 
                                         1400     1410     1200     1210     1080     1600     1650     1300     1700     1380   
                                           T        V       H0       H01     AOSYM     SMH    MOLCAS    ERIS     OPER     JKOP   

              2       4        2.85       700     1000      520     2100   
                                         GEOM     BASIS   MCVARS     RHF  

 PROGRAMS   *        TOTAL   CCSD(T)        HF       INT
 CPU TIMES  *         2.42      1.58      0.21      0.54
 REAL TIME  *         3.25 SEC
 DISK USED  *        75.59 MB      
 **********************************************************************************************************************************

 CCSD(T)/cc-pVTZ-DK energy=   -130.291117381845

        CCSD(T)         HF-SCF  
   -130.29111738   -129.83197622
 **********************************************************************************************************************************
 Molpro calculation terminated
 Variable memory released
