
 Primary working directories    : /tmp/r2666/235094.maple
 Secondary working directories  : /tmp/r2666/235094.maple
 Wavefunction directory         : /ddn/home4/r2666/wfu/
 Main file repository           : /tmp/r2666/235094.maple/

 SHA1      : d5ffa45e93fdbca01ffc919aa182cfdae0147319
 NAME      : 2015.1.35
 ARCHNAME  : linux/x86_64
 FC        : /opt/intel/composer_xe_2015.1.133/bin/intel64/ifort
 BLASLIB   : -Wl,-_start-group /opt/intel/mkl/lib/intel64/libmkl_intel_ilp64.a /opt/intel/mkl/lib/intel64/libmkl_intel_thread.a /opt/intel/mkl/lib/intel64/libmkl_core.a -Wl,-_end-group
 id        : olemiss

 Nodes     nprocs
 cn091        1

 Using customized tuning parameters: mindgm=1; mindgv=20; mindgc=4; mindgr=1; noblas=0; minvec=7
 default implementation of scratch files=df  

 ***,hno CCSD(T)/TZ-F12 QFF
 memory, 995, m;
 gthresh,energy=1.d-12,zero=1.d-22,oneint=1.d-22,twoint=1.d-22;
 gthresh,optgrad=1.d-8,optstep=1.d-8;
 nocompress;
 geomtyp=xyz
 bohr
 geometry={
 3
         79        79
 N        0.0000000000       -0.1587603528       -1.1525155113
 H        0.0000000000        1.6683945186       -1.9360160507
 O        0.0000000000        0.0321336241        1.1379419710
 }
 
 basis=vtz-dk
 dkroll=0
   {hf,maxit=500;accu,20;}
 {ccsd(t),nocheck,maxit=250;orbital,IGNORE_ERROR;}

 Variables initialized (889), CPU time= 0.00 sec
 Commands  initialized (702), CPU time= 0.01 sec, 572 directives.
 Default parameters read. Elapsed time= 0.05 sec

 Checking input...
 Passed
1


                                         ***  PROGRAM SYSTEM MOLPRO  ***
                                       Copyright, TTI GmbH Stuttgart, 2015
                                    Version 2015.1 linked Jul  9 2018 13:16:40


 **********************************************************************************************************************************
 LABEL *   hno CCSD(T)/TZ-F12 QFF                                                        
  64 bit serial version                                                                  DATE: 08-Feb-20          TIME: 17:57:07  
 **********************************************************************************************************************************

 SHA1:             d5ffa45e93fdbca01ffc919aa182cfdae0147319
 **********************************************************************************************************************************

 THRESHOLDS:

 ZERO    =  1.00D-22  ONEINT  =  1.00D-22  TWOINT  =  1.00D-22  PREFAC  =  1.00D-14  LOCALI  =  1.00D-09  EORDER  =  1.00D-04
 ENERGY  =  1.00D-12  ETEST   =  0.00D+00  EDENS   =  0.00D+00  THRDEDEF=  1.00D-06  GRADIENT=  1.00D-02  STEP    =  1.00D-03
 ORBITAL =  1.00D-05  CIVEC   =  1.00D-05  COEFF   =  1.00D-04  PRINTCI =  5.00D-02  PUNCHCI =  9.90D+01  OPTGRAD =  3.00D-04
 OPTENERG=  1.00D-06  OPTSTEP =  3.00D-04  THRGRAD =  1.00D-10  COMPRESS=  1.00D-11  VARMIN  =  1.00D-07  VARMAX  =  1.00D-03
 THRDOUB =  0.00D+00  THRDIV  =  1.00D-05  THRRED  =  1.00D-07  THRPSP  =  1.00D+00  THRDC   =  1.00D-10  THRCS   =  1.00D-10
 THRNRM  =  1.00D-08  THREQ   =  0.00D+00  THRDE   =  1.00D+00  THRREF  =  1.00D-05  SPARFAC =  1.00D+00  THRDLP  =  1.00D-07
 THRDIA  =  1.00D-10  THRDLS  =  1.00D-07  THRGPS  =  0.00D+00  THRKEX  =  0.00D+00  THRDIS  =  2.00D-01  THRVAR  =  1.00D-10
 THRLOC  =  1.00D-06  THRGAP  =  1.00D-06  THRLOCT = -1.00D+00  THRGAPT = -1.00D+00  THRORB  =  1.00D-06  THRMLTP =  0.00D+00
 THRCPQCI=  1.00D-10  KEXTA   =  0.00D+00  THRCOARS=  0.00D+00  SYMTOL  =  1.00D-06  GRADTOL =  1.00D-06  THROVL  =  1.00D-08
 THRORTH =  1.00D-08  GRID    =  1.00D-06  GRIDMAX =  1.00D-03  DTMAX   =  0.00D+00  THROCCDE=  1.00D-01  THROCCDE=  1.00D-01



 THRESHOLDS:

 ZERO    =  1.00D-22  ONEINT  =  1.00D-22  TWOINT  =  1.00D-22  PREFAC  =  1.00D-14  LOCALI  =  1.00D-09  EORDER  =  1.00D-04
 ENERGY  =  1.00D-12  ETEST   =  0.00D+00  EDENS   =  0.00D+00  THRDEDEF=  1.00D-06  GRADIENT=  1.00D-02  STEP    =  1.00D-03
 ORBITAL =  1.00D-05  CIVEC   =  1.00D-05  COEFF   =  1.00D-04  PRINTCI =  5.00D-02  PUNCHCI =  9.90D+01  OPTGRAD =  1.00D-08
 OPTENERG=  1.00D-06  OPTSTEP =  1.00D-08  THRGRAD =  1.00D-10  COMPRESS=  1.00D-11  VARMIN  =  1.00D-07  VARMAX  =  1.00D-03
 THRDOUB =  0.00D+00  THRDIV  =  1.00D-05  THRRED  =  1.00D-07  THRPSP  =  1.00D+00  THRDC   =  1.00D-10  THRCS   =  1.00D-10
 THRNRM  =  1.00D-08  THREQ   =  0.00D+00  THRDE   =  1.00D+00  THRREF  =  1.00D-05  SPARFAC =  1.00D+00  THRDLP  =  1.00D-07
 THRDIA  =  1.00D-10  THRDLS  =  1.00D-07  THRGPS  =  0.00D+00  THRKEX  =  0.00D+00  THRDIS  =  2.00D-01  THRVAR  =  1.00D-10
 THRLOC  =  1.00D-06  THRGAP  =  1.00D-06  THRLOCT = -1.00D+00  THRGAPT = -1.00D+00  THRORB  =  1.00D-06  THRMLTP =  0.00D+00
 THRCPQCI=  1.00D-10  KEXTA   =  0.00D+00  THRCOARS=  0.00D+00  SYMTOL  =  1.00D-06  GRADTOL =  1.00D-06  THROVL  =  1.00D-08
 THRORTH =  1.00D-08  GRID    =  1.00D-06  GRIDMAX =  1.00D-03  DTMAX   =  0.00D+00  THROCCDE=  1.00D-01  THROCCDE=  1.00D-01



 Input parameters for SORTINT:

 COMPRESS =    0.000000
 C_FINAL  =    1.000000
 DEBUG    =   -1.000000
 C_SORT1  =    0.000000
 C_SEWARD =    0.000000
 THRESH   =    0.000000
 IO       =  molpro                                                          
 SPRI     =    0.000000
 SETTING GEOMTYP        =    XYZ
 ZUNIT=BOHR
 

 Variable memory set to  995000000 words,  buffer space   230000 words

 SETTING BASIS          =    VTZ-DK
 SETTING DKROLL         =     0.00000000D+00                                  


 Recomputing integrals since basis changed


 Using spherical harmonics

 Library entry N      S cc-pVTZ-DK           selected for orbital group  1
 Library entry N      P cc-pVTZ-DK           selected for orbital group  1
 Library entry N      D cc-pVTZ-DK           selected for orbital group  1
 Library entry N      F cc-pVTZ-DK           selected for orbital group  1
 Library entry H      S cc-pVTZ-DK           selected for orbital group  2
 Library entry H      P cc-pVTZ-DK           selected for orbital group  2
 Library entry H      D cc-pVTZ-DK           selected for orbital group  2
 Library entry O      S cc-pVTZ-DK           selected for orbital group  3
 Library entry O      P cc-pVTZ-DK           selected for orbital group  3
 Library entry O      D cc-pVTZ-DK           selected for orbital group  3
 Library entry O      F cc-pVTZ-DK           selected for orbital group  3


 PROGRAM * SEWARD (Integral evaluation for generally contracted gaussian basis sets)     Author: Roland Lindh, 1990

 Geometry written to block  1 of record 700


 Point group  Cs  



 ATOMIC COORDINATES

 NR  ATOM    CHARGE       X              Y              Z

   1  N       7.00    0.000000000   -0.158760353   -1.152515511
   2  H       1.00    0.000000000    1.668394519   -1.936016051
   3  O       8.00    0.000000000    0.032133624    1.137941971

 Bond lengths in Bohr (Angstrom)

 1-2  1.988056342  1-3  2.298398570
     ( 1.052034110)     ( 1.216260145)

 Bond angles

  2-1-3  108.44589032

 NUCLEAR CHARGE:                   16
 NUMBER OF PRIMITIVE AOS:         111
 NUMBER OF SYMMETRY AOS:          100
 NUMBER OF CONTRACTIONS:           74   (  50A'  +  24A"  )
 NUMBER OF CORE ORBITALS:           2   (   2A'  +   0A"  )
 NUMBER OF VALENCE ORBITALS:        9   (   7A'  +   2A"  )


 NUCLEAR REPULSION ENERGY   30.18313522

 Eigenvalues of metric

         1 0.247E-02 0.400E-02 0.428E-02 0.841E-02 0.130E-01 0.332E-01 0.430E-01 0.464E-01
         2 0.347E-01 0.466E-01 0.103E+00 0.112E+00 0.237E+00 0.343E+00 0.397E+00 0.452E+00


 Contracted 2-electron integrals neglected if value below      1.0D-22

        1874283. INTEGRALS WRITTEN OUT IN     458 BLOCKS ON RECORD 1290 OF FILE 1


 NUMBER OF SORTED TWO-ELECTRON INTEGRALS:    2006100.     BUFFER LENGTH:  32768
 NUMBER OF SEGMENTS:   1  SEGMENT LENGTH:    2006100      RECORD LENGTH: 524288

 Memory used in sort:       2.56 MW

 SORT1 READ     1874283. AND WROTE     1914195. INTEGRALS IN      6 RECORDS. CPU TIME:     0.04 SEC, REAL TIME:     0.05 SEC
 SORT2 READ     1914195. AND WROTE     2006100. INTEGRALS IN      1 RECORDS. CPU TIME:     0.05 SEC, REAL TIME:     0.06 SEC

 FILE SIZES:   FILE 1:    50.1 MBYTE,  FILE 4:    25.2 MBYTE,   TOTAL:     75.3 MBYTE

 OPERATOR DM      FOR CENTER  0  COORDINATES:    0.000000    0.000000    0.000000


 **********************************************************************************************************************************
 DATASETS  * FILE   NREC   LENGTH (MB)   RECORD NAMES
              1      19       35.89       500      610      700      900      950      970     1000      129      960     1100   
                                          VAR    BASINP    GEOM    SYMINP    ZMAT    AOBASIS   BASIS     P2S    ABASIS      S 
                                         1400     1410     1200     1210     1080     1600     1650     1300     1700   
                                           T        V       H0       H01     AOSYM     SMH    MOLCAS    ERIS     OPER   

 PROGRAMS   *        TOTAL       INT
 CPU TIMES  *         0.62      0.54
 REAL TIME  *         1.19 SEC
 DISK USED  *        75.59 MB      
 **********************************************************************************************************************************


 PROGRAM * RHF-SCF (CLOSED SHELL)       Authors: W. Meyer, H.-J. Werner


 NUMBER OF ELECTRONS:       8+    8-
 CONVERGENCE THRESHOLDS:    1.00E-10 (Density)    1.00E-13 (Energy)
 MAX. NUMBER OF ITERATIONS:      500
 INTERPOLATION TYPE:            DIIS
 INTERPOLATION STEPS:              2 (START)      1 (STEP)
 LEVEL SHIFTS:                  0.00 (CLOSED)  0.00 (OPEN) 



 Orbital guess generated from atomic densities. Full valence occupancy:    9   2

 Molecular orbital dump at record        2100.2

 Initial occupancy:   7   1

 ITERATION    DDIFF          GRAD             ENERGY        2-EL.EN.            DIPOLE MOMENTS         DIIS   ORB.
    1      0.000D+00      0.000D+00      -129.77784142    153.799743    0.00000    0.59655   -1.06525    0    start
    2      0.000D+00      0.137D-01      -129.80447720    154.936847    0.00000    0.62093   -0.22083    1    diag
    3      0.189D-01      0.106D-01      -129.82796915    155.073151    0.00000    0.56891   -0.61469    2    diag
    4      0.921D-02      0.158D-02      -129.82872546    154.800170    0.00000    0.57709   -0.55358    3    diag
    5      0.168D-02      0.522D-03      -129.82884335    154.886696    0.00000    0.58251   -0.55461    4    diag
    6      0.729D-03      0.155D-03      -129.82886280    154.871828    0.00000    0.58303   -0.55028    5    diag
    7      0.282D-03      0.783D-04      -129.82886864    154.874009    0.00000    0.58423   -0.54766    6    diag
    8      0.196D-03      0.258D-04      -129.82886924    154.873284    0.00000    0.58424   -0.54679    7    diag
    9      0.696D-04      0.474D-05      -129.82886927    154.873158    0.00000    0.58419   -0.54662    8    diag
   10      0.137D-04      0.103D-05      -129.82886927    154.873140    0.00000    0.58416   -0.54660    9    orth
   11      0.291D-05      0.201D-06      -129.82886927    154.873136    0.00000    0.58415   -0.54659    9    diag
   12      0.523D-06      0.427D-07      -129.82886927    154.873135    0.00000    0.58415   -0.54659    9    diag
   13      0.115D-06      0.109D-07      -129.82886927    154.873135    0.00000    0.58415   -0.54659    9    diag
   14      0.292D-07      0.196D-08      -129.82886927    154.873135    0.00000    0.58415   -0.54659    9    diag
   15      0.440D-08      0.498D-09      -129.82886927    154.873135    0.00000    0.58415   -0.54659    9    diag
   16      0.109D-08      0.119D-09      -129.82886927    154.873135    0.00000    0.58415   -0.54659    9    diag
   17      0.172D-09      0.332D-10      -129.82886927    154.873135    0.00000    0.58415   -0.54659    9    diag
   18      0.506D-10      0.111D-10      -129.82886927    154.873135    0.00000    0.58415   -0.54659    0    orth

 Final occupancy:   7   1

 !RHF STATE 1.1 Energy               -129.828869268853
 Nuclear energy                        30.18313522
 One-electron energy                 -237.44857179
 Two-electron energy                   77.43656730
 Virial quotient                       -0.99991336
 !RHF STATE 1.1 Dipole moment           0.00000000     0.58414619    -0.54659131
 Dipole moment /Debye                   0.00000000     1.48465428    -1.38920554

 Orbital energies:

         1.1          2.1          3.1          4.1          5.1          6.1          7.1          8.1          9.1
    -20.648742   -15.709171    -1.519041    -0.993077    -0.740648    -0.659625    -0.429210     0.143531     0.368843

         1.2          2.2          3.2
     -0.588204     0.083213     0.613910

 HOMO      7.1    -0.429210 =     -11.6794eV
 LUMO      2.2     0.083213 =       2.2643eV
 LUMO-HOMO         0.512423 =      13.9437eV


 **********************************************************************************************************************************
 DATASETS  * FILE   NREC   LENGTH (MB)   RECORD NAMES
              1      19       35.89       500      610      700      900      950      970     1000      129      960     1100   
                                          VAR    BASINP    GEOM    SYMINP    ZMAT    AOBASIS   BASIS     P2S    ABASIS      S 
                                         1400     1410     1200     1210     1080     1600     1650     1300     1700   
                                           T        V       H0       H01     AOSYM     SMH    MOLCAS    ERIS     OPER   

              2       4        2.85       700     1000      520     2100   
                                         GEOM     BASIS   MCVARS     RHF  

 PROGRAMS   *        TOTAL        HF       INT
 CPU TIMES  *         0.82      0.20      0.54
 REAL TIME  *         1.43 SEC
 DISK USED  *        75.59 MB      
 **********************************************************************************************************************************


 PROGRAM * CCSD (Closed-shell coupled cluster)     Authors: C. Hampel, H.-J. Werner, 1991, M. Deegan, P.J. Knowles, 1992


 Convergence thresholds:  THRVAR = 1.00D-08  THRDEN = 1.00D-12

 CCSD(T)     terms to be evaluated (factor= 1.000)


 Number of core orbitals:           2 (   2   0 )
 Number of closed-shell orbitals:   6 (   5   1 )
 Number of external orbitals:      66 (  43  23 )

 Molecular orbitals read from record     2100.2  Type=RHF/CANONICAL (state 1.1)

 Number of N-1 electron functions:               6
 Number of N-2 electron functions:              21
 Number of singly external CSFs:               238
 Number of doubly external CSFs:             41002
 Total number of CSFs:                       41241

 Length of J-op  integral file:               0.00 MB
 Length of K-op  integral file:               0.25 MB
 Length of 3-ext integral record:             0.00 MB

 Memory could be reduced to 1.65 Mwords without degradation in triples

 Integral transformation finished. Total CPU:   0.02 sec, npass=  1  Memory used:   0.55 MW

 Reference energy:                   -129.82886927

 MP2 singlet pair energy:              -0.27444535
 MP2 triplet pair energy:              -0.16299629
 MP2 correlation energy:               -0.43744164
 MP2 total energy:                   -130.26631091

 SCS-MP2 correlation energy:           -0.43075433   (PS=  1.200000  PT=  0.333333)
 SCS-MP2 total energy:               -130.25962360

 ITER.      SQ.NORM     CORR.ENERGY   TOTAL ENERGY   ENERGY CHANGE        DEN1      VAR(S)    VAR(P)  DIIS     TIME  TIME/IT
   1      1.11932399    -0.44226665  -130.27113591    -0.00482500     0.01128758  0.30D-02  0.31D-02  1  1     0.06     0.04
   2      1.13037185    -0.44246247  -130.27133174    -0.00019582    -0.01247004  0.92D-04  0.52D-03  2  2     0.10     0.04
   3      1.13683064    -0.44286179  -130.27173105    -0.00039932    -0.00303481  0.49D-04  0.53D-04  3  3     0.14     0.04
   4      1.13973795    -0.44288869  -130.27175796    -0.00002691    -0.00098575  0.42D-05  0.93D-05  4  4     0.17     0.04
   5      1.14078577    -0.44291970  -130.27178897    -0.00003101    -0.00021693  0.14D-05  0.17D-05  5  5     0.20     0.04
   6      1.14115758    -0.44290211  -130.27177138     0.00001759    -0.00004254  0.97D-07  0.42D-06  6  6     0.24     0.04
   7      1.14124329    -0.44290430  -130.27177357    -0.00000219    -0.00000179  0.11D-07  0.92D-07  6  1     0.27     0.04
   8      1.14127414    -0.44290422  -130.27177349     0.00000008     0.00000195  0.46D-08  0.11D-07  6  2     0.31     0.04
   9      1.14128232    -0.44290400  -130.27177327     0.00000022    -0.00000234  0.27D-08  0.13D-08  6  3     0.35     0.04
  10      1.14128103    -0.44290453  -130.27177380    -0.00000053     0.00000064  0.51D-09  0.22D-09  6  4     0.38     0.04
  11      1.14127927    -0.44290459  -130.27177386    -0.00000006     0.00000018  0.16D-09  0.24D-10  6  5     0.42     0.04
  12      1.14127784    -0.44290478  -130.27177405    -0.00000019     0.00000045  0.15D-10  0.79D-11  6  6     0.46     0.04
  13      1.14127721    -0.44290479  -130.27177405    -0.00000001     0.00000013  0.67D-11  0.13D-11  6  1     0.50     0.04
  14      1.14127680    -0.44290481  -130.27177408    -0.00000002     0.00000008  0.95D-12  0.45D-12  6  2     0.53     0.04
  15      1.14127665    -0.44290481  -130.27177408    -0.00000000     0.00000002  0.25D-12  0.14D-12  6  3     0.57     0.04
  16      1.14127653    -0.44290481  -130.27177408    -0.00000000     0.00000002  0.80D-14  0.37D-13  6  1     0.61     0.04
  17      1.14127652    -0.44290481  -130.27177408     0.00000000    -0.00000000  0.29D-14  0.25D-14  6  4     0.65     0.04
  18      1.14127651    -0.44290481  -130.27177408    -0.00000000     0.00000000  0.74D-15  0.43D-15  6  5     0.68     0.04
  19      1.14127651    -0.44290481  -130.27177408     0.00000000    -0.00000000  0.14D-15  0.82D-16  6  6     0.72     0.04
  20      1.14127651    -0.44290481  -130.27177408    -0.00000000     0.00000000  0.22D-16  0.21D-16  6  2     0.76     0.04
  21      1.14127650    -0.44290481  -130.27177408    -0.00000000     0.00000000  0.62D-18  0.15D-17  6  4     0.79     0.04
  22      1.14127650    -0.44290481  -130.27177408    -0.00000000     0.00000000  0.89D-19  0.15D-18  6  3     0.83     0.04
  23      1.14127650    -0.44290481  -130.27177408    -0.00000000     0.00000000  0.82D-20  0.15D-19  6  1     0.86     0.04
  24      1.14127650    -0.44290481  -130.27177408     0.00000000     0.00000000  0.42D-20  0.21D-20  6  6     0.91     0.04
  25      1.14127650    -0.44290481  -130.27177408     0.00000000    -0.00000000  0.26D-21  0.47D-21  6  4     0.95     0.04

 Norm of t1 vector:      0.07639883      S-energy:     0.00000000      T1 diagnostic:  0.01559485
                                                                       D1 diagnostic:  0.04355710

 Doubles amplitudes (print threshold =  0.500E-01):

         I         J         SYM. A    SYM. B    A         B      T(IJ, AB)

         6         6         2         2         1         1     -0.14611049


 Total CPU time for triples:      0.24 sec


 RESULTS
 =======

  Reference energy                   -129.828869268853
  CCSD singlet pair energy             -0.303894423753
  CCSD triplet pair energy             -0.139010389435
  CCSD correlation energy              -0.442904813187

  Triples (T) contribution             -0.020019674302
  Total correlation energy             -0.462924487488

  CCSD total energy                  -130.271774082039
  CCSD[T] energy                     -130.292847858682
  CCSD-T energy                      -130.291387279080
 !CCSD(T) total energy               -130.291793756341

 Timing summary (sec):

 STEP                 CPU(USER)    SYS     CPU(TOT)    WALL
 Transformation          0.02      0.01      0.03      0.04
 CCSD iterations         0.93      0.13      1.06      1.06
 Triples                 0.24      0.01      0.25      0.25

 Program statistics:

 Available memory in ccsd:               994999756
 Min. memory needed in ccsd:                154850
 Max. memory used in ccsd:                  184802
 Max. memory used in cckext:                238416 (25 integral passes)



 **********************************************************************************************************************************
 DATASETS  * FILE   NREC   LENGTH (MB)   RECORD NAMES
              1      20       40.28       500      610      700      900      950      970     1000      129      960     1100   
                                          VAR    BASINP    GEOM    SYMINP    ZMAT    AOBASIS   BASIS     P2S    ABASIS      S 
                                         1400     1410     1200     1210     1080     1600     1650     1300     1700     1380   
                                           T        V       H0       H01     AOSYM     SMH    MOLCAS    ERIS     OPER     JKOP   

              2       4        2.85       700     1000      520     2100   
                                         GEOM     BASIS   MCVARS     RHF  

 PROGRAMS   *        TOTAL   CCSD(T)        HF       INT
 CPU TIMES  *         2.04      1.22      0.20      0.54
 REAL TIME  *         2.81 SEC
 DISK USED  *        75.59 MB      
 **********************************************************************************************************************************

 CCSD(T)/cc-pVTZ-DK energy=   -130.291793756341

        CCSD(T)         HF-SCF  
   -130.29179376   -129.82886927
 **********************************************************************************************************************************
 Molpro calculation terminated
 Variable memory released
