
 Primary working directories    : /tmp/r2666/235139.maple
 Secondary working directories  : /tmp/r2666/235139.maple
 Wavefunction directory         : /ddn/home4/r2666/wfu/
 Main file repository           : /tmp/r2666/235139.maple/

 SHA1      : d5ffa45e93fdbca01ffc919aa182cfdae0147319
 NAME      : 2015.1.35
 ARCHNAME  : linux/x86_64
 FC        : /opt/intel/composer_xe_2015.1.133/bin/intel64/ifort
 BLASLIB   : -Wl,-_start-group /opt/intel/mkl/lib/intel64/libmkl_intel_ilp64.a /opt/intel/mkl/lib/intel64/libmkl_intel_thread.a /opt/intel/mkl/lib/intel64/libmkl_core.a -Wl,-_end-group
 id        : olemiss

 Nodes     nprocs
 cn088        1

 Using customized tuning parameters: mindgm=1; mindgv=20; mindgc=4; mindgr=1; noblas=0; minvec=7
 default implementation of scratch files=df  

 ***,hno CCSD(T)/TZ-F12 QFF
 memory, 995, m;
 gthresh,energy=1.d-12,zero=1.d-22,oneint=1.d-22,twoint=1.d-22;
 gthresh,optgrad=1.d-8,optstep=1.d-8;
 nocompress;
 geomtyp=xyz
 bohr
 geometry={
 3
        124       124
 N        0.0000000000       -0.1783373767       -1.1398958683
 H        0.0000000000        1.6784812029       -1.9260909606
 O        0.0000000000        0.0416239638        1.1153972379
 }
 
 basis=vtz-dk
 dkroll=0
   {hf,maxit=500;accu,20;}
 {ccsd(t),nocheck,maxit=250;orbital,IGNORE_ERROR;}

 Variables initialized (889), CPU time= 0.01 sec
 Commands  initialized (702), CPU time= 0.00 sec, 572 directives.
 Default parameters read. Elapsed time= 0.05 sec

 Checking input...
 Passed
1


                                         ***  PROGRAM SYSTEM MOLPRO  ***
                                       Copyright, TTI GmbH Stuttgart, 2015
                                    Version 2015.1 linked Jul  9 2018 13:16:40


 **********************************************************************************************************************************
 LABEL *   hno CCSD(T)/TZ-F12 QFF                                                        
  64 bit serial version                                                                  DATE: 08-Feb-20          TIME: 17:57:13  
 **********************************************************************************************************************************

 SHA1:             d5ffa45e93fdbca01ffc919aa182cfdae0147319
 **********************************************************************************************************************************

 THRESHOLDS:

 ZERO    =  1.00D-22  ONEINT  =  1.00D-22  TWOINT  =  1.00D-22  PREFAC  =  1.00D-14  LOCALI  =  1.00D-09  EORDER  =  1.00D-04
 ENERGY  =  1.00D-12  ETEST   =  0.00D+00  EDENS   =  0.00D+00  THRDEDEF=  1.00D-06  GRADIENT=  1.00D-02  STEP    =  1.00D-03
 ORBITAL =  1.00D-05  CIVEC   =  1.00D-05  COEFF   =  1.00D-04  PRINTCI =  5.00D-02  PUNCHCI =  9.90D+01  OPTGRAD =  3.00D-04
 OPTENERG=  1.00D-06  OPTSTEP =  3.00D-04  THRGRAD =  1.00D-10  COMPRESS=  1.00D-11  VARMIN  =  1.00D-07  VARMAX  =  1.00D-03
 THRDOUB =  0.00D+00  THRDIV  =  1.00D-05  THRRED  =  1.00D-07  THRPSP  =  1.00D+00  THRDC   =  1.00D-10  THRCS   =  1.00D-10
 THRNRM  =  1.00D-08  THREQ   =  0.00D+00  THRDE   =  1.00D+00  THRREF  =  1.00D-05  SPARFAC =  1.00D+00  THRDLP  =  1.00D-07
 THRDIA  =  1.00D-10  THRDLS  =  1.00D-07  THRGPS  =  0.00D+00  THRKEX  =  0.00D+00  THRDIS  =  2.00D-01  THRVAR  =  1.00D-10
 THRLOC  =  1.00D-06  THRGAP  =  1.00D-06  THRLOCT = -1.00D+00  THRGAPT = -1.00D+00  THRORB  =  1.00D-06  THRMLTP =  0.00D+00
 THRCPQCI=  1.00D-10  KEXTA   =  0.00D+00  THRCOARS=  0.00D+00  SYMTOL  =  1.00D-06  GRADTOL =  1.00D-06  THROVL  =  1.00D-08
 THRORTH =  1.00D-08  GRID    =  1.00D-06  GRIDMAX =  1.00D-03  DTMAX   =  0.00D+00  THROCCDE=  1.00D-01  THROCCDE=  1.00D-01



 THRESHOLDS:

 ZERO    =  1.00D-22  ONEINT  =  1.00D-22  TWOINT  =  1.00D-22  PREFAC  =  1.00D-14  LOCALI  =  1.00D-09  EORDER  =  1.00D-04
 ENERGY  =  1.00D-12  ETEST   =  0.00D+00  EDENS   =  0.00D+00  THRDEDEF=  1.00D-06  GRADIENT=  1.00D-02  STEP    =  1.00D-03
 ORBITAL =  1.00D-05  CIVEC   =  1.00D-05  COEFF   =  1.00D-04  PRINTCI =  5.00D-02  PUNCHCI =  9.90D+01  OPTGRAD =  1.00D-08
 OPTENERG=  1.00D-06  OPTSTEP =  1.00D-08  THRGRAD =  1.00D-10  COMPRESS=  1.00D-11  VARMIN  =  1.00D-07  VARMAX  =  1.00D-03
 THRDOUB =  0.00D+00  THRDIV  =  1.00D-05  THRRED  =  1.00D-07  THRPSP  =  1.00D+00  THRDC   =  1.00D-10  THRCS   =  1.00D-10
 THRNRM  =  1.00D-08  THREQ   =  0.00D+00  THRDE   =  1.00D+00  THRREF  =  1.00D-05  SPARFAC =  1.00D+00  THRDLP  =  1.00D-07
 THRDIA  =  1.00D-10  THRDLS  =  1.00D-07  THRGPS  =  0.00D+00  THRKEX  =  0.00D+00  THRDIS  =  2.00D-01  THRVAR  =  1.00D-10
 THRLOC  =  1.00D-06  THRGAP  =  1.00D-06  THRLOCT = -1.00D+00  THRGAPT = -1.00D+00  THRORB  =  1.00D-06  THRMLTP =  0.00D+00
 THRCPQCI=  1.00D-10  KEXTA   =  0.00D+00  THRCOARS=  0.00D+00  SYMTOL  =  1.00D-06  GRADTOL =  1.00D-06  THROVL  =  1.00D-08
 THRORTH =  1.00D-08  GRID    =  1.00D-06  GRIDMAX =  1.00D-03  DTMAX   =  0.00D+00  THROCCDE=  1.00D-01  THROCCDE=  1.00D-01



 Input parameters for SORTINT:

 COMPRESS =    0.000000
 C_FINAL  =    1.000000
 DEBUG    =   -1.000000
 C_SORT1  =    0.000000
 C_SEWARD =    0.000000
 THRESH   =    0.000000
 IO       =  molpro                                                          
 SPRI     =    0.000000
 SETTING GEOMTYP        =    XYZ
 ZUNIT=BOHR
 

 Variable memory set to  995000000 words,  buffer space   230000 words

 SETTING BASIS          =    VTZ-DK
 SETTING DKROLL         =     0.00000000D+00                                  


 Recomputing integrals since basis changed


 Using spherical harmonics

 Library entry N      S cc-pVTZ-DK           selected for orbital group  1
 Library entry N      P cc-pVTZ-DK           selected for orbital group  1
 Library entry N      D cc-pVTZ-DK           selected for orbital group  1
 Library entry N      F cc-pVTZ-DK           selected for orbital group  1
 Library entry H      S cc-pVTZ-DK           selected for orbital group  2
 Library entry H      P cc-pVTZ-DK           selected for orbital group  2
 Library entry H      D cc-pVTZ-DK           selected for orbital group  2
 Library entry O      S cc-pVTZ-DK           selected for orbital group  3
 Library entry O      P cc-pVTZ-DK           selected for orbital group  3
 Library entry O      D cc-pVTZ-DK           selected for orbital group  3
 Library entry O      F cc-pVTZ-DK           selected for orbital group  3


 PROGRAM * SEWARD (Integral evaluation for generally contracted gaussian basis sets)     Author: Roland Lindh, 1990

 Geometry written to block  1 of record 700


 Point group  Cs  



 ATOMIC COORDINATES

 NR  ATOM    CHARGE       X              Y              Z

   1  N       7.00    0.000000000   -0.178337377   -1.139895868
   2  H       1.00    0.000000000    1.678481203   -1.926090961
   3  O       8.00    0.000000000    0.041623964    1.115397238

 Bond lengths in Bohr (Angstrom)

 1-2  2.016402232  1-3  2.265994260
     ( 1.067034109)     ( 1.199112522)

 Bond angles

  2-1-3  107.37776771

 NUCLEAR CHARGE:                   16
 NUMBER OF PRIMITIVE AOS:         111
 NUMBER OF SYMMETRY AOS:          100
 NUMBER OF CONTRACTIONS:           74   (  50A'  +  24A"  )
 NUMBER OF CORE ORBITALS:           2   (   2A'  +   0A"  )
 NUMBER OF VALENCE ORBITALS:        9   (   7A'  +   2A"  )


 NUCLEAR REPULSION ENERGY   30.50091421

 Eigenvalues of metric

         1 0.246E-02 0.395E-02 0.409E-02 0.856E-02 0.133E-01 0.325E-01 0.421E-01 0.465E-01
         2 0.340E-01 0.466E-01 0.101E+00 0.115E+00 0.233E+00 0.346E+00 0.396E+00 0.449E+00


 Contracted 2-electron integrals neglected if value below      1.0D-22

        1874283. INTEGRALS WRITTEN OUT IN     458 BLOCKS ON RECORD 1290 OF FILE 1


 NUMBER OF SORTED TWO-ELECTRON INTEGRALS:    2006100.     BUFFER LENGTH:  32768
 NUMBER OF SEGMENTS:   1  SEGMENT LENGTH:    2006100      RECORD LENGTH: 524288

 Memory used in sort:       2.56 MW

 SORT1 READ     1874283. AND WROTE     1914195. INTEGRALS IN      6 RECORDS. CPU TIME:     0.02 SEC, REAL TIME:     0.04 SEC
 SORT2 READ     1914195. AND WROTE     2006100. INTEGRALS IN      1 RECORDS. CPU TIME:     0.04 SEC, REAL TIME:     0.05 SEC

 FILE SIZES:   FILE 1:    50.1 MBYTE,  FILE 4:    25.2 MBYTE,   TOTAL:     75.3 MBYTE

 OPERATOR DM      FOR CENTER  0  COORDINATES:    0.000000    0.000000    0.000000


 **********************************************************************************************************************************
 DATASETS  * FILE   NREC   LENGTH (MB)   RECORD NAMES
              1      19       35.89       500      610      700      900      950      970     1000      129      960     1100   
                                          VAR    BASINP    GEOM    SYMINP    ZMAT    AOBASIS   BASIS     P2S    ABASIS      S 
                                         1400     1410     1200     1210     1080     1600     1650     1300     1700   
                                           T        V       H0       H01     AOSYM     SMH    MOLCAS    ERIS     OPER   

 PROGRAMS   *        TOTAL       INT
 CPU TIMES  *         0.59      0.50
 REAL TIME  *         1.24 SEC
 DISK USED  *        75.59 MB      
 **********************************************************************************************************************************


 PROGRAM * RHF-SCF (CLOSED SHELL)       Authors: W. Meyer, H.-J. Werner


 NUMBER OF ELECTRONS:       8+    8-
 CONVERGENCE THRESHOLDS:    1.00E-10 (Density)    1.00E-13 (Energy)
 MAX. NUMBER OF ITERATIONS:      500
 INTERPOLATION TYPE:            DIIS
 INTERPOLATION STEPS:              2 (START)      1 (STEP)
 LEVEL SHIFTS:                  0.00 (CLOSED)  0.00 (OPEN) 



 Orbital guess generated from atomic densities. Full valence occupancy:    9   2

 Molecular orbital dump at record        2100.2

 Initial occupancy:   7   1

 ITERATION    DDIFF          GRAD             ENERGY        2-EL.EN.            DIPOLE MOMENTS         DIIS   ORB.
    1      0.000D+00      0.000D+00      -129.78121864    154.359773    0.00000    0.56909   -1.00964    0    start
    2      0.000D+00      0.135D-01      -129.80837257    155.542486    0.00000    0.60784   -0.21899    1    diag
    3      0.184D-01      0.102D-01      -129.82978827    155.639021    0.00000    0.55026   -0.58402    2    diag
    4      0.888D-02      0.154D-02      -129.83051353    155.376341    0.00000    0.55914   -0.52593    3    diag
    5      0.165D-02      0.514D-03      -129.83062849    155.462253    0.00000    0.56465   -0.52726    4    diag
    6      0.717D-03      0.154D-03      -129.83064755    155.447376    0.00000    0.56522   -0.52317    5    diag
    7      0.280D-03      0.760D-04      -129.83065296    155.449795    0.00000    0.56650   -0.52077    6    diag
    8      0.191D-03      0.238D-04      -129.83065343    155.449124    0.00000    0.56652   -0.52001    7    diag
    9      0.618D-04      0.433D-05      -129.83065345    155.449013    0.00000    0.56648   -0.51986    8    diag
   10      0.119D-04      0.966D-06      -129.83065345    155.448995    0.00000    0.56644   -0.51984    9    orth
   11      0.273D-05      0.192D-06      -129.83065345    155.448990    0.00000    0.56644   -0.51983    9    diag
   12      0.511D-06      0.398D-07      -129.83065345    155.448989    0.00000    0.56643   -0.51983    9    diag
   13      0.114D-06      0.984D-08      -129.83065345    155.448988    0.00000    0.56643   -0.51983    9    diag
   14      0.284D-07      0.183D-08      -129.83065345    155.448988    0.00000    0.56643   -0.51983    9    diag
   15      0.479D-08      0.497D-09      -129.83065345    155.448988    0.00000    0.56643   -0.51983    9    diag
   16      0.116D-08      0.136D-09      -129.83065345    155.448988    0.00000    0.56643   -0.51983    9    diag
   17      0.241D-09      0.417D-10      -129.83065345    155.448988    0.00000    0.56643   -0.51983    9    diag
   18      0.833D-10      0.133D-10      -129.83065345    155.448988    0.00000    0.56643   -0.51983    0    orth

 Final occupancy:   7   1

 !RHF STATE 1.1 Energy               -129.830653454874
 Nuclear energy                        30.50091421
 One-electron energy                 -238.05606183
 Two-electron energy                   77.72449417
 Virial quotient                       -0.99955492
 !RHF STATE 1.1 Dipole moment           0.00000000     0.56643384    -0.51983043
 Dipole moment /Debye                   0.00000000     1.43963691    -1.32119062

 Orbital energies:

         1.1          2.1          3.1          4.1          5.1          6.1          7.1          8.1          9.1
    -20.647249   -15.708547    -1.533548    -0.984787    -0.744402    -0.664417    -0.423822     0.143778     0.371153

         1.2          2.2          3.2
     -0.596765     0.089633     0.611837

 HOMO      7.1    -0.423822 =     -11.5328eV
 LUMO      2.2     0.089633 =       2.4390eV
 LUMO-HOMO         0.513455 =      13.9718eV


 **********************************************************************************************************************************
 DATASETS  * FILE   NREC   LENGTH (MB)   RECORD NAMES
              1      19       35.89       500      610      700      900      950      970     1000      129      960     1100   
                                          VAR    BASINP    GEOM    SYMINP    ZMAT    AOBASIS   BASIS     P2S    ABASIS      S 
                                         1400     1410     1200     1210     1080     1600     1650     1300     1700   
                                           T        V       H0       H01     AOSYM     SMH    MOLCAS    ERIS     OPER   

              2       4        2.85       700     1000      520     2100   
                                         GEOM     BASIS   MCVARS     RHF  

 PROGRAMS   *        TOTAL        HF       INT
 CPU TIMES  *         0.75      0.16      0.50
 REAL TIME  *         1.46 SEC
 DISK USED  *        75.59 MB      
 **********************************************************************************************************************************


 PROGRAM * CCSD (Closed-shell coupled cluster)     Authors: C. Hampel, H.-J. Werner, 1991, M. Deegan, P.J. Knowles, 1992


 Convergence thresholds:  THRVAR = 1.00D-08  THRDEN = 1.00D-12

 CCSD(T)     terms to be evaluated (factor= 1.000)


 Number of core orbitals:           2 (   2   0 )
 Number of closed-shell orbitals:   6 (   5   1 )
 Number of external orbitals:      66 (  43  23 )

 Molecular orbitals read from record     2100.2  Type=RHF/CANONICAL (state 1.1)

 Number of N-1 electron functions:               6
 Number of N-2 electron functions:              21
 Number of singly external CSFs:               238
 Number of doubly external CSFs:             41002
 Total number of CSFs:                       41241

 Length of J-op  integral file:               0.00 MB
 Length of K-op  integral file:               0.25 MB
 Length of 3-ext integral record:             0.00 MB

 Memory could be reduced to 1.65 Mwords without degradation in triples

 Integral transformation finished. Total CPU:   0.02 sec, npass=  1  Memory used:   0.55 MW

 Reference energy:                   -129.83065345

 MP2 singlet pair energy:              -0.27299720
 MP2 triplet pair energy:              -0.16201815
 MP2 correlation energy:               -0.43501535
 MP2 total energy:                   -130.26566880

 SCS-MP2 correlation energy:           -0.42840793   (PS=  1.200000  PT=  0.333333)
 SCS-MP2 total energy:               -130.25906139

 ITER.      SQ.NORM     CORR.ENERGY   TOTAL ENERGY   ENERGY CHANGE        DEN1      VAR(S)    VAR(P)  DIIS     TIME  TIME/IT
   1      1.11795969    -0.44045109  -130.27110455    -0.00543574     0.01007886  0.29D-02  0.29D-02  1  1     0.07     0.04
   2      1.12867311    -0.44077456  -130.27142802    -0.00032347    -0.01213048  0.85D-04  0.49D-03  2  2     0.11     0.04
   3      1.13485042    -0.44115567  -130.27180913    -0.00038111    -0.00294973  0.46D-04  0.49D-04  3  3     0.14     0.04
   4      1.13757380    -0.44118003  -130.27183348    -0.00002435    -0.00093809  0.40D-05  0.85D-05  4  4     0.18     0.04
   5      1.13853441    -0.44120874  -130.27186220    -0.00002872    -0.00019918  0.14D-05  0.16D-05  5  5     0.21     0.04
   6      1.13888523    -0.44119303  -130.27184648     0.00001572    -0.00003957  0.11D-06  0.39D-06  6  6     0.24     0.04
   7      1.13897204    -0.44119462  -130.27184807    -0.00000159    -0.00000252  0.14D-07  0.80D-07  6  1     0.28     0.04
   8      1.13900299    -0.44119463  -130.27184808    -0.00000001     0.00000167  0.38D-08  0.96D-08  6  2     0.31     0.04
   9      1.13901069    -0.44119440  -130.27184786     0.00000023    -0.00000215  0.23D-08  0.11D-08  6  3     0.35     0.04
  10      1.13900958    -0.44119489  -130.27184834    -0.00000049     0.00000055  0.45D-09  0.19D-09  6  4     0.38     0.04
  11      1.13900787    -0.44119494  -130.27184840    -0.00000006     0.00000020  0.14D-09  0.22D-10  6  5     0.42     0.04
  12      1.13900650    -0.44119511  -130.27184857    -0.00000017     0.00000042  0.15D-10  0.74D-11  6  6     0.45     0.04
  13      1.13900589    -0.44119512  -130.27184858    -0.00000001     0.00000012  0.67D-11  0.12D-11  6  1     0.49     0.04
  14      1.13900551    -0.44119514  -130.27184859    -0.00000002     0.00000007  0.94D-12  0.40D-12  6  2     0.52     0.04
  15      1.13900537    -0.44119514  -130.27184860    -0.00000000     0.00000001  0.24D-12  0.13D-12  6  3     0.56     0.04
  16      1.13900528    -0.44119514  -130.27184860    -0.00000000     0.00000001  0.24D-13  0.14D-13  6  5     0.59     0.04
  17      1.13900525    -0.44119514  -130.27184860    -0.00000000     0.00000000  0.62D-15  0.20D-14  6  4     0.63     0.04
  18      1.13900525    -0.44119514  -130.27184860     0.00000000    -0.00000000  0.43D-15  0.29D-15  6  1     0.66     0.04
  19      1.13900525    -0.44119514  -130.27184860    -0.00000000     0.00000000  0.36D-16  0.51D-16  6  6     0.70     0.04
  20      1.13900525    -0.44119514  -130.27184860    -0.00000000     0.00000000  0.76D-17  0.12D-16  6  2     0.73     0.04
  21      1.13900524    -0.44119514  -130.27184860    -0.00000000     0.00000000  0.17D-17  0.95D-18  6  5     0.76     0.04
  22      1.13900524    -0.44119514  -130.27184860     0.00000000     0.00000000  0.97D-19  0.69D-19  6  3     0.80     0.04
  23      1.13900524    -0.44119514  -130.27184860     0.00000000    -0.00000000  0.27D-19  0.15D-19  6  4     0.84     0.04
  24      1.13900524    -0.44119514  -130.27184860     0.00000000    -0.00000000  0.40D-20  0.39D-20  6  1     0.87     0.04
  25      1.13900524    -0.44119514  -130.27184860     0.00000000    -0.00000000  0.52D-21  0.69D-21  6  6     0.91     0.04

 Norm of t1 vector:      0.07423645      S-energy:     0.00000000      T1 diagnostic:  0.01515345
                                                                       D1 diagnostic:  0.04127570

 Doubles amplitudes (print threshold =  0.500E-01):

         I         J         SYM. A    SYM. B    A         B      T(IJ, AB)

         6         6         2         2         1         1     -0.14110845


 Total CPU time for triples:      0.23 sec


 RESULTS
 =======

  Reference energy                   -129.830653454874
  CCSD singlet pair energy             -0.302395605286
  CCSD triplet pair energy             -0.138799539267
  CCSD correlation energy              -0.441195144551

  Triples (T) contribution             -0.019592508863
  Total correlation energy             -0.460787653413

  CCSD total energy                  -130.271848599425
  CCSD[T] energy                     -130.292433173734
  CCSD-T energy                      -130.291047877718
 !CCSD(T) total energy               -130.291441108288

 Timing summary (sec):

 STEP                 CPU(USER)    SYS     CPU(TOT)    WALL
 Transformation          0.03      0.01      0.04      0.04
 CCSD iterations         0.89      0.11      1.00      0.98
 Triples                 0.23      0.00      0.23      0.24

 Program statistics:

 Available memory in ccsd:               994999756
 Min. memory needed in ccsd:                154850
 Max. memory used in ccsd:                  184802
 Max. memory used in cckext:                238416 (25 integral passes)



 **********************************************************************************************************************************
 DATASETS  * FILE   NREC   LENGTH (MB)   RECORD NAMES
              1      20       40.28       500      610      700      900      950      970     1000      129      960     1100   
                                          VAR    BASINP    GEOM    SYMINP    ZMAT    AOBASIS   BASIS     P2S    ABASIS      S 
                                         1400     1410     1200     1210     1080     1600     1650     1300     1700     1380   
                                           T        V       H0       H01     AOSYM     SMH    MOLCAS    ERIS     OPER     JKOP   

              2       4        2.85       700     1000      520     2100   
                                         GEOM     BASIS   MCVARS     RHF  

 PROGRAMS   *        TOTAL   CCSD(T)        HF       INT
 CPU TIMES  *         1.91      1.16      0.16      0.50
 REAL TIME  *         2.76 SEC
 DISK USED  *        75.59 MB      
 **********************************************************************************************************************************

 CCSD(T)/cc-pVTZ-DK energy=   -130.291441108288

        CCSD(T)         HF-SCF  
   -130.29144111   -129.83065345
 **********************************************************************************************************************************
 Molpro calculation terminated
 Variable memory released
