
 Primary working directories    : /tmp/r2666/235560.maple
 Secondary working directories  : /tmp/r2666/235560.maple
 Wavefunction directory         : /ddn/home4/r2666/wfu/
 Main file repository           : /tmp/r2666/235560.maple/

 SHA1      : d5ffa45e93fdbca01ffc919aa182cfdae0147319
 NAME      : 2015.1.35
 ARCHNAME  : linux/x86_64
 FC        : /opt/intel/composer_xe_2015.1.133/bin/intel64/ifort
 BLASLIB   : -Wl,-_start-group /opt/intel/mkl/lib/intel64/libmkl_intel_ilp64.a /opt/intel/mkl/lib/intel64/libmkl_intel_thread.a /opt/intel/mkl/lib/intel64/libmkl_core.a -Wl,-_end-group
 id        : olemiss

 Nodes     nprocs
 cn096        1

 Using customized tuning parameters: mindgm=1; mindgv=20; mindgc=4; mindgr=1; noblas=0; minvec=7
 default implementation of scratch files=df  

 ***,hno CCSD(T)/TZ-F12 QFF
 memory, 995, m;
 gthresh,energy=1.d-12,zero=1.d-22,oneint=1.d-22,twoint=1.d-22;
 gthresh,optgrad=1.d-8,optstep=1.d-8;
 nocompress;
 geomtyp=xyz
 bohr
 geometry={
 3
         57        57
 N        0.0000000000       -0.1594673210       -1.1396160791
 H        0.0000000000        1.6655362758       -1.9281145832
 O        0.0000000000        0.0356988353        1.1171410712
 }
 
 basis=vtz-dk
 dkroll=0
   {hf,maxit=500;accu,20;}
 {ccsd(t),nocheck,maxit=250;orbital,IGNORE_ERROR;}

 Variables initialized (889), CPU time= 0.00 sec
 Commands  initialized (702), CPU time= 0.02 sec, 572 directives.
 Default parameters read. Elapsed time= 0.05 sec

 Checking input...
 Passed
1


                                         ***  PROGRAM SYSTEM MOLPRO  ***
                                       Copyright, TTI GmbH Stuttgart, 2015
                                    Version 2015.1 linked Jul  9 2018 13:16:40


 **********************************************************************************************************************************
 LABEL *   hno CCSD(T)/TZ-F12 QFF                                                        
  64 bit serial version                                                                  DATE: 09-Feb-20          TIME: 14:33:22  
 **********************************************************************************************************************************

 SHA1:             d5ffa45e93fdbca01ffc919aa182cfdae0147319
 **********************************************************************************************************************************

 THRESHOLDS:

 ZERO    =  1.00D-22  ONEINT  =  1.00D-22  TWOINT  =  1.00D-22  PREFAC  =  1.00D-14  LOCALI  =  1.00D-09  EORDER  =  1.00D-04
 ENERGY  =  1.00D-12  ETEST   =  0.00D+00  EDENS   =  0.00D+00  THRDEDEF=  1.00D-06  GRADIENT=  1.00D-02  STEP    =  1.00D-03
 ORBITAL =  1.00D-05  CIVEC   =  1.00D-05  COEFF   =  1.00D-04  PRINTCI =  5.00D-02  PUNCHCI =  9.90D+01  OPTGRAD =  3.00D-04
 OPTENERG=  1.00D-06  OPTSTEP =  3.00D-04  THRGRAD =  1.00D-10  COMPRESS=  1.00D-11  VARMIN  =  1.00D-07  VARMAX  =  1.00D-03
 THRDOUB =  0.00D+00  THRDIV  =  1.00D-05  THRRED  =  1.00D-07  THRPSP  =  1.00D+00  THRDC   =  1.00D-10  THRCS   =  1.00D-10
 THRNRM  =  1.00D-08  THREQ   =  0.00D+00  THRDE   =  1.00D+00  THRREF  =  1.00D-05  SPARFAC =  1.00D+00  THRDLP  =  1.00D-07
 THRDIA  =  1.00D-10  THRDLS  =  1.00D-07  THRGPS  =  0.00D+00  THRKEX  =  0.00D+00  THRDIS  =  2.00D-01  THRVAR  =  1.00D-10
 THRLOC  =  1.00D-06  THRGAP  =  1.00D-06  THRLOCT = -1.00D+00  THRGAPT = -1.00D+00  THRORB  =  1.00D-06  THRMLTP =  0.00D+00
 THRCPQCI=  1.00D-10  KEXTA   =  0.00D+00  THRCOARS=  0.00D+00  SYMTOL  =  1.00D-06  GRADTOL =  1.00D-06  THROVL  =  1.00D-08
 THRORTH =  1.00D-08  GRID    =  1.00D-06  GRIDMAX =  1.00D-03  DTMAX   =  0.00D+00  THROCCDE=  1.00D-01  THROCCDE=  1.00D-01



 THRESHOLDS:

 ZERO    =  1.00D-22  ONEINT  =  1.00D-22  TWOINT  =  1.00D-22  PREFAC  =  1.00D-14  LOCALI  =  1.00D-09  EORDER  =  1.00D-04
 ENERGY  =  1.00D-12  ETEST   =  0.00D+00  EDENS   =  0.00D+00  THRDEDEF=  1.00D-06  GRADIENT=  1.00D-02  STEP    =  1.00D-03
 ORBITAL =  1.00D-05  CIVEC   =  1.00D-05  COEFF   =  1.00D-04  PRINTCI =  5.00D-02  PUNCHCI =  9.90D+01  OPTGRAD =  1.00D-08
 OPTENERG=  1.00D-06  OPTSTEP =  1.00D-08  THRGRAD =  1.00D-10  COMPRESS=  1.00D-11  VARMIN  =  1.00D-07  VARMAX  =  1.00D-03
 THRDOUB =  0.00D+00  THRDIV  =  1.00D-05  THRRED  =  1.00D-07  THRPSP  =  1.00D+00  THRDC   =  1.00D-10  THRCS   =  1.00D-10
 THRNRM  =  1.00D-08  THREQ   =  0.00D+00  THRDE   =  1.00D+00  THRREF  =  1.00D-05  SPARFAC =  1.00D+00  THRDLP  =  1.00D-07
 THRDIA  =  1.00D-10  THRDLS  =  1.00D-07  THRGPS  =  0.00D+00  THRKEX  =  0.00D+00  THRDIS  =  2.00D-01  THRVAR  =  1.00D-10
 THRLOC  =  1.00D-06  THRGAP  =  1.00D-06  THRLOCT = -1.00D+00  THRGAPT = -1.00D+00  THRORB  =  1.00D-06  THRMLTP =  0.00D+00
 THRCPQCI=  1.00D-10  KEXTA   =  0.00D+00  THRCOARS=  0.00D+00  SYMTOL  =  1.00D-06  GRADTOL =  1.00D-06  THROVL  =  1.00D-08
 THRORTH =  1.00D-08  GRID    =  1.00D-06  GRIDMAX =  1.00D-03  DTMAX   =  0.00D+00  THROCCDE=  1.00D-01  THROCCDE=  1.00D-01



 Input parameters for SORTINT:

 COMPRESS =    0.000000
 C_FINAL  =    1.000000
 DEBUG    =   -1.000000
 C_SORT1  =    0.000000
 C_SEWARD =    0.000000
 THRESH   =    0.000000
 IO       =  molpro                                                          
 SPRI     =    0.000000
 SETTING GEOMTYP        =    XYZ
 ZUNIT=BOHR
 

 Variable memory set to  995000000 words,  buffer space   230000 words

 SETTING BASIS          =    VTZ-DK
 SETTING DKROLL         =     0.00000000D+00                                  


 Recomputing integrals since basis changed


 Using spherical harmonics

 Library entry N      S cc-pVTZ-DK           selected for orbital group  1
 Library entry N      P cc-pVTZ-DK           selected for orbital group  1
 Library entry N      D cc-pVTZ-DK           selected for orbital group  1
 Library entry N      F cc-pVTZ-DK           selected for orbital group  1
 Library entry H      S cc-pVTZ-DK           selected for orbital group  2
 Library entry H      P cc-pVTZ-DK           selected for orbital group  2
 Library entry H      D cc-pVTZ-DK           selected for orbital group  2
 Library entry O      S cc-pVTZ-DK           selected for orbital group  3
 Library entry O      P cc-pVTZ-DK           selected for orbital group  3
 Library entry O      D cc-pVTZ-DK           selected for orbital group  3
 Library entry O      F cc-pVTZ-DK           selected for orbital group  3


 PROGRAM * SEWARD (Integral evaluation for generally contracted gaussian basis sets)     Author: Roland Lindh, 1990

 Geometry written to block  1 of record 700


 Point group  Cs  



 ATOMIC COORDINATES

 NR  ATOM    CHARGE       X              Y              Z

   1  N       7.00    0.000000000   -0.159467321   -1.139616079
   2  H       1.00    0.000000000    1.665536276   -1.928114583
   3  O       8.00    0.000000000    0.035698835    1.117141071

 Bond lengths in Bohr (Angstrom)

 1-2  1.988056342  1-3  2.265180493
     ( 1.052034110)     ( 1.198681895)

 Bond angles

  2-1-3  108.42422233

 NUCLEAR CHARGE:                   16
 NUMBER OF PRIMITIVE AOS:         111
 NUMBER OF SYMMETRY AOS:          100
 NUMBER OF CONTRACTIONS:           74   (  50A'  +  24A"  )
 NUMBER OF CORE ORBITALS:           2   (   2A'  +   0A"  )
 NUMBER OF VALENCE ORBITALS:        9   (   7A'  +   2A"  )


 NUCLEAR REPULSION ENERGY   30.55928983

 Eigenvalues of metric

         1 0.241E-02 0.392E-02 0.404E-02 0.831E-02 0.130E-01 0.321E-01 0.420E-01 0.463E-01
         2 0.338E-01 0.464E-01 0.100E+00 0.111E+00 0.231E+00 0.341E+00 0.392E+00 0.447E+00


 Contracted 2-electron integrals neglected if value below      1.0D-22

        1874283. INTEGRALS WRITTEN OUT IN     458 BLOCKS ON RECORD 1290 OF FILE 1


 NUMBER OF SORTED TWO-ELECTRON INTEGRALS:    2006100.     BUFFER LENGTH:  32768
 NUMBER OF SEGMENTS:   1  SEGMENT LENGTH:    2006100      RECORD LENGTH: 524288

 Memory used in sort:       2.56 MW

 SORT1 READ     1874283. AND WROTE     1914195. INTEGRALS IN      6 RECORDS. CPU TIME:     0.04 SEC, REAL TIME:     0.06 SEC
 SORT2 READ     1914195. AND WROTE     2006100. INTEGRALS IN      1 RECORDS. CPU TIME:     0.05 SEC, REAL TIME:     0.07 SEC

 FILE SIZES:   FILE 1:    50.1 MBYTE,  FILE 4:    25.2 MBYTE,   TOTAL:     75.3 MBYTE

 OPERATOR DM      FOR CENTER  0  COORDINATES:    0.000000    0.000000    0.000000


 **********************************************************************************************************************************
 DATASETS  * FILE   NREC   LENGTH (MB)   RECORD NAMES
              1      19       35.89       500      610      700      900      950      970     1000      129      960     1100   
                                          VAR    BASINP    GEOM    SYMINP    ZMAT    AOBASIS   BASIS     P2S    ABASIS      S 
                                         1400     1410     1200     1210     1080     1600     1650     1300     1700   
                                           T        V       H0       H01     AOSYM     SMH    MOLCAS    ERIS     OPER   

 PROGRAMS   *        TOTAL       INT
 CPU TIMES  *         0.66      0.56
 REAL TIME  *         3.09 SEC
 DISK USED  *        75.59 MB      
 **********************************************************************************************************************************


 PROGRAM * RHF-SCF (CLOSED SHELL)       Authors: W. Meyer, H.-J. Werner


 NUMBER OF ELECTRONS:       8+    8-
 CONVERGENCE THRESHOLDS:    1.00E-10 (Density)    1.00E-13 (Energy)
 MAX. NUMBER OF ITERATIONS:      500
 INTERPOLATION TYPE:            DIIS
 INTERPOLATION STEPS:              2 (START)      1 (STEP)
 LEVEL SHIFTS:                  0.00 (CLOSED)  0.00 (OPEN) 



 Orbital guess generated from atomic densities. Full valence occupancy:    9   2

 Molecular orbital dump at record        2100.2

 Initial occupancy:   7   1

 ITERATION    DDIFF          GRAD             ENERGY        2-EL.EN.            DIPOLE MOMENTS         DIIS   ORB.
    1      0.000D+00      0.000D+00      -129.78276247    154.474103    0.00000    0.58821   -1.00949    0    start
    2      0.000D+00      0.134D-01      -129.80990320    155.643267    0.00000    0.60920   -0.22986    1    diag
    3      0.182D-01      0.100D-01      -129.83053822    155.743070    0.00000    0.55999   -0.58963    2    diag
    4      0.876D-02      0.155D-02      -129.83126155    155.482294    0.00000    0.56852   -0.53136    3    diag
    5      0.165D-02      0.509D-03      -129.83137320    155.567355    0.00000    0.57393   -0.53274    4    diag
    6      0.710D-03      0.151D-03      -129.83139148    155.552746    0.00000    0.57452   -0.52873    5    diag
    7      0.275D-03      0.748D-04      -129.83139670    155.555114    0.00000    0.57577   -0.52635    6    diag
    8      0.188D-03      0.233D-04      -129.83139716    155.554465    0.00000    0.57579   -0.52560    7    diag
    9      0.605D-04      0.423D-05      -129.83139717    155.554356    0.00000    0.57574   -0.52546    8    diag
   10      0.117D-04      0.954D-06      -129.83139717    155.554339    0.00000    0.57571   -0.52544    9    orth
   11      0.273D-05      0.187D-06      -129.83139717    155.554335    0.00000    0.57570   -0.52543    9    diag
   12      0.502D-06      0.383D-07      -129.83139717    155.554333    0.00000    0.57570   -0.52543    9    diag
   13      0.108D-06      0.935D-08      -129.83139717    155.554333    0.00000    0.57570   -0.52543    9    diag
   14      0.267D-07      0.173D-08      -129.83139717    155.554333    0.00000    0.57570   -0.52543    9    diag
   15      0.447D-08      0.460D-09      -129.83139717    155.554333    0.00000    0.57570   -0.52543    9    diag
   16      0.107D-08      0.121D-09      -129.83139717    155.554333    0.00000    0.57570   -0.52543    9    diag
   17      0.214D-09      0.358D-10      -129.83139717    155.554333    0.00000    0.57570   -0.52543    9    diag
   18      0.707D-10      0.118D-10      -129.83139717    155.554333    0.00000    0.57570   -0.52543    0    orth

 Final occupancy:   7   1

 !RHF STATE 1.1 Energy               -129.831397174934
 Nuclear energy                        30.55928983
 One-electron energy                 -238.16785356
 Two-electron energy                   77.77716655
 Virial quotient                       -0.99940558
 !RHF STATE 1.1 Dipole moment           0.00000000     0.57569930    -0.52542973
 Dipole moment /Debye                   0.00000000     1.46318582    -1.33542170

 Orbital energies:

         1.1          2.1          3.1          4.1          5.1          6.1          7.1          8.1          9.1
    -20.647080   -15.706160    -1.533447    -0.988956    -0.746028    -0.664688    -0.423864     0.144571     0.371233

         1.2          2.2          3.2
     -0.596537     0.089743     0.611963

 HOMO      7.1    -0.423864 =     -11.5339eV
 LUMO      2.2     0.089743 =       2.4420eV
 LUMO-HOMO         0.513607 =      13.9760eV


 **********************************************************************************************************************************
 DATASETS  * FILE   NREC   LENGTH (MB)   RECORD NAMES
              1      19       35.89       500      610      700      900      950      970     1000      129      960     1100   
                                          VAR    BASINP    GEOM    SYMINP    ZMAT    AOBASIS   BASIS     P2S    ABASIS      S 
                                         1400     1410     1200     1210     1080     1600     1650     1300     1700   
                                           T        V       H0       H01     AOSYM     SMH    MOLCAS    ERIS     OPER   

              2       4        2.85       700     1000      520     2100   
                                         GEOM     BASIS   MCVARS     RHF  

 PROGRAMS   *        TOTAL        HF       INT
 CPU TIMES  *         0.86      0.20      0.56
 REAL TIME  *         3.42 SEC
 DISK USED  *        75.59 MB      
 **********************************************************************************************************************************


 PROGRAM * CCSD (Closed-shell coupled cluster)     Authors: C. Hampel, H.-J. Werner, 1991, M. Deegan, P.J. Knowles, 1992


 Convergence thresholds:  THRVAR = 1.00D-08  THRDEN = 1.00D-12

 CCSD(T)     terms to be evaluated (factor= 1.000)


 Number of core orbitals:           2 (   2   0 )
 Number of closed-shell orbitals:   6 (   5   1 )
 Number of external orbitals:      66 (  43  23 )

 Molecular orbitals read from record     2100.2  Type=RHF/CANONICAL (state 1.1)

 Number of N-1 electron functions:               6
 Number of N-2 electron functions:              21
 Number of singly external CSFs:               238
 Number of doubly external CSFs:             41002
 Total number of CSFs:                       41241

 Length of J-op  integral file:               0.00 MB
 Length of K-op  integral file:               0.25 MB
 Length of 3-ext integral record:             0.00 MB

 Memory could be reduced to 1.65 Mwords without degradation in triples

 Integral transformation finished. Total CPU:   0.02 sec, npass=  1  Memory used:   0.55 MW

 Reference energy:                   -129.83139717

 MP2 singlet pair energy:              -0.27259013
 MP2 triplet pair energy:              -0.16178475
 MP2 correlation energy:               -0.43437488
 MP2 total energy:                   -130.26577205

 SCS-MP2 correlation energy:           -0.42777422   (PS=  1.200000  PT=  0.333333)
 SCS-MP2 total energy:               -130.25917139

 ITER.      SQ.NORM     CORR.ENERGY   TOTAL ENERGY   ENERGY CHANGE        DEN1      VAR(S)    VAR(P)  DIIS     TIME  TIME/IT
   1      1.11741708    -0.43986194  -130.27125912    -0.00548706     0.00989884  0.28D-02  0.29D-02  1  1     0.07     0.06
   2      1.12803158    -0.44019006  -130.27158723    -0.00032812    -0.01204841  0.83D-04  0.49D-03  2  2     0.12     0.05
   3      1.13411851    -0.44056189  -130.27195907    -0.00037183    -0.00291306  0.45D-04  0.49D-04  3  3     0.15     0.05
   4      1.13681515    -0.44058723  -130.27198441    -0.00002534    -0.00092847  0.38D-05  0.86D-05  4  4     0.19     0.05
   5      1.13776081    -0.44061505  -130.27201223    -0.00002782    -0.00019571  0.13D-05  0.16D-05  5  5     0.23     0.05
   6      1.13810812    -0.44059961  -130.27199679     0.00001544    -0.00003907  0.96D-07  0.41D-06  6  6     0.27     0.04
   7      1.13819426    -0.44060147  -130.27199865    -0.00000186    -0.00000246  0.12D-07  0.84D-07  6  1     0.31     0.04
   8      1.13822450    -0.44060157  -130.27199875    -0.00000010     0.00000190  0.44D-08  0.96D-08  6  2     0.35     0.04
   9      1.13823194    -0.44060139  -130.27199856     0.00000019    -0.00000223  0.24D-08  0.11D-08  6  3     0.38     0.04
  10      1.13823071    -0.44060187  -130.27199905    -0.00000049     0.00000060  0.47D-09  0.19D-09  6  4     0.42     0.04
  11      1.13822901    -0.44060193  -130.27199911    -0.00000006     0.00000019  0.14D-09  0.22D-10  6  5     0.46     0.04
  12      1.13822765    -0.44060210  -130.27199927    -0.00000017     0.00000042  0.15D-10  0.72D-11  6  6     0.49     0.04
  13      1.13822706    -0.44060211  -130.27199928    -0.00000001     0.00000012  0.65D-11  0.12D-11  6  1     0.52     0.04
  14      1.13822669    -0.44060212  -130.27199930    -0.00000002     0.00000007  0.90D-12  0.41D-12  6  2     0.57     0.04
  15      1.13822656    -0.44060213  -130.27199930    -0.00000000     0.00000001  0.22D-12  0.14D-12  6  3     0.61     0.04
  16      1.13822647    -0.44060213  -130.27199930    -0.00000000     0.00000001  0.24D-13  0.15D-13  6  5     0.64     0.04
  17      1.13822644    -0.44060213  -130.27199930    -0.00000000     0.00000000  0.80D-15  0.22D-14  6  4     0.68     0.04
  18      1.13822644    -0.44060213  -130.27199930     0.00000000    -0.00000000  0.50D-15  0.32D-15  6  1     0.73     0.04
  19      1.13822644    -0.44060213  -130.27199930    -0.00000000     0.00000000  0.43D-16  0.56D-16  6  6     0.76     0.04
  20      1.13822643    -0.44060213  -130.27199930    -0.00000000     0.00000000  0.90D-17  0.13D-16  6  2     0.79     0.04
  21      1.13822643    -0.44060213  -130.27199930    -0.00000000     0.00000000  0.18D-17  0.10D-17  6  5     0.83     0.04
  22      1.13822643    -0.44060213  -130.27199930     0.00000000     0.00000000  0.11D-18  0.75D-19  6  3     0.86     0.04
  23      1.13822643    -0.44060213  -130.27199930     0.00000000    -0.00000000  0.31D-19  0.16D-19  6  4     0.91     0.04
  24      1.13822643    -0.44060213  -130.27199930     0.00000000    -0.00000000  0.45D-20  0.46D-20  6  1     0.95     0.04
  25      1.13822643    -0.44060213  -130.27199930     0.00000000    -0.00000000  0.49D-21  0.80D-21  6  6     0.98     0.04

 Norm of t1 vector:      0.07364140      S-energy:     0.00000000      T1 diagnostic:  0.01503199
                                                                       D1 diagnostic:  0.04127287

 Doubles amplitudes (print threshold =  0.500E-01):

         I         J         SYM. A    SYM. B    A         B      T(IJ, AB)

         6         6         2         2         1         1     -0.14118660


 Total CPU time for triples:      0.24 sec


 RESULTS
 =======

  Reference energy                   -129.831397174934
  CCSD singlet pair energy             -0.301885836601
  CCSD triplet pair energy             -0.138716292439
  CCSD correlation energy              -0.440602129039

  Triples (T) contribution             -0.019490918292
  Total correlation energy             -0.460093047331

  CCSD total energy                  -130.271999303973
  CCSD[T] energy                     -130.292469948864
  CCSD-T energy                      -130.291102243919
 !CCSD(T) total energy               -130.291490222265

 Timing summary (sec):

 STEP                 CPU(USER)    SYS     CPU(TOT)    WALL
 Transformation          0.03      0.02      0.05      0.10
 CCSD iterations         0.95      0.15      1.10      1.10
 Triples                 0.24      0.02      0.26      0.25

 Program statistics:

 Available memory in ccsd:               994999756
 Min. memory needed in ccsd:                154850
 Max. memory used in ccsd:                  184802
 Max. memory used in cckext:                238416 (25 integral passes)



 **********************************************************************************************************************************
 DATASETS  * FILE   NREC   LENGTH (MB)   RECORD NAMES
              1      20       40.28       500      610      700      900      950      970     1000      129      960     1100   
                                          VAR    BASINP    GEOM    SYMINP    ZMAT    AOBASIS   BASIS     P2S    ABASIS      S 
                                         1400     1410     1200     1210     1080     1600     1650     1300     1700     1380   
                                           T        V       H0       H01     AOSYM     SMH    MOLCAS    ERIS     OPER     JKOP   

              2       4        2.85       700     1000      520     2100   
                                         GEOM     BASIS   MCVARS     RHF  

 PROGRAMS   *        TOTAL   CCSD(T)        HF       INT
 CPU TIMES  *         2.13      1.27      0.20      0.56
 REAL TIME  *         5.04 SEC
 DISK USED  *        75.59 MB      
 **********************************************************************************************************************************

 CCSD(T)/cc-pVTZ-DK energy=   -130.291490222265

        CCSD(T)         HF-SCF  
   -130.29149022   -129.83139717
 **********************************************************************************************************************************
 Molpro calculation terminated
 Variable memory released
