
 Primary working directories    : /tmp/r2666/235085.maple
 Secondary working directories  : /tmp/r2666/235085.maple
 Wavefunction directory         : /ddn/home4/r2666/wfu/
 Main file repository           : /tmp/r2666/235085.maple/

 SHA1      : d5ffa45e93fdbca01ffc919aa182cfdae0147319
 NAME      : 2015.1.35
 ARCHNAME  : linux/x86_64
 FC        : /opt/intel/composer_xe_2015.1.133/bin/intel64/ifort
 BLASLIB   : -Wl,-_start-group /opt/intel/mkl/lib/intel64/libmkl_intel_ilp64.a /opt/intel/mkl/lib/intel64/libmkl_intel_thread.a /opt/intel/mkl/lib/intel64/libmkl_core.a -Wl,-_end-group
 id        : olemiss

 Nodes     nprocs
 cn033        1

 Using customized tuning parameters: mindgm=1; mindgv=20; mindgc=4; mindgr=1; noblas=0; minvec=7
 default implementation of scratch files=df  

 ***,hno CCSD(T)/TZ-F12 QFF
 memory, 995, m;
 gthresh,energy=1.d-12,zero=1.d-22,oneint=1.d-22,twoint=1.d-22;
 gthresh,optgrad=1.d-8,optstep=1.d-8;
 nocompress;
 geomtyp=xyz
 bohr
 geometry={
 3
         70        70
 N        0.0000000000       -0.1511468112       -1.1330719104
 H        0.0000000000        1.6659320368       -1.9396650417
 O        0.0000000000        0.0269825644        1.1221473612
 }
 
 basis=vtz-dk
 dkroll=0
   {hf,maxit=500;accu,20;}
 {ccsd(t),nocheck,maxit=250;orbital,IGNORE_ERROR;}

 Variables initialized (889), CPU time= 0.01 sec
 Commands  initialized (702), CPU time= 0.00 sec, 572 directives.
 Default parameters read. Elapsed time= 0.06 sec

 Checking input...
 Passed
1


                                         ***  PROGRAM SYSTEM MOLPRO  ***
                                       Copyright, TTI GmbH Stuttgart, 2015
                                    Version 2015.1 linked Jul  9 2018 13:16:40


 **********************************************************************************************************************************
 LABEL *   hno CCSD(T)/TZ-F12 QFF                                                        
  64 bit serial version                                                                  DATE: 08-Feb-20          TIME: 17:57:06  
 **********************************************************************************************************************************

 SHA1:             d5ffa45e93fdbca01ffc919aa182cfdae0147319
 **********************************************************************************************************************************

 THRESHOLDS:

 ZERO    =  1.00D-22  ONEINT  =  1.00D-22  TWOINT  =  1.00D-22  PREFAC  =  1.00D-14  LOCALI  =  1.00D-09  EORDER  =  1.00D-04
 ENERGY  =  1.00D-12  ETEST   =  0.00D+00  EDENS   =  0.00D+00  THRDEDEF=  1.00D-06  GRADIENT=  1.00D-02  STEP    =  1.00D-03
 ORBITAL =  1.00D-05  CIVEC   =  1.00D-05  COEFF   =  1.00D-04  PRINTCI =  5.00D-02  PUNCHCI =  9.90D+01  OPTGRAD =  3.00D-04
 OPTENERG=  1.00D-06  OPTSTEP =  3.00D-04  THRGRAD =  1.00D-10  COMPRESS=  1.00D-11  VARMIN  =  1.00D-07  VARMAX  =  1.00D-03
 THRDOUB =  0.00D+00  THRDIV  =  1.00D-05  THRRED  =  1.00D-07  THRPSP  =  1.00D+00  THRDC   =  1.00D-10  THRCS   =  1.00D-10
 THRNRM  =  1.00D-08  THREQ   =  0.00D+00  THRDE   =  1.00D+00  THRREF  =  1.00D-05  SPARFAC =  1.00D+00  THRDLP  =  1.00D-07
 THRDIA  =  1.00D-10  THRDLS  =  1.00D-07  THRGPS  =  0.00D+00  THRKEX  =  0.00D+00  THRDIS  =  2.00D-01  THRVAR  =  1.00D-10
 THRLOC  =  1.00D-06  THRGAP  =  1.00D-06  THRLOCT = -1.00D+00  THRGAPT = -1.00D+00  THRORB  =  1.00D-06  THRMLTP =  0.00D+00
 THRCPQCI=  1.00D-10  KEXTA   =  0.00D+00  THRCOARS=  0.00D+00  SYMTOL  =  1.00D-06  GRADTOL =  1.00D-06  THROVL  =  1.00D-08
 THRORTH =  1.00D-08  GRID    =  1.00D-06  GRIDMAX =  1.00D-03  DTMAX   =  0.00D+00  THROCCDE=  1.00D-01  THROCCDE=  1.00D-01



 THRESHOLDS:

 ZERO    =  1.00D-22  ONEINT  =  1.00D-22  TWOINT  =  1.00D-22  PREFAC  =  1.00D-14  LOCALI  =  1.00D-09  EORDER  =  1.00D-04
 ENERGY  =  1.00D-12  ETEST   =  0.00D+00  EDENS   =  0.00D+00  THRDEDEF=  1.00D-06  GRADIENT=  1.00D-02  STEP    =  1.00D-03
 ORBITAL =  1.00D-05  CIVEC   =  1.00D-05  COEFF   =  1.00D-04  PRINTCI =  5.00D-02  PUNCHCI =  9.90D+01  OPTGRAD =  1.00D-08
 OPTENERG=  1.00D-06  OPTSTEP =  1.00D-08  THRGRAD =  1.00D-10  COMPRESS=  1.00D-11  VARMIN  =  1.00D-07  VARMAX  =  1.00D-03
 THRDOUB =  0.00D+00  THRDIV  =  1.00D-05  THRRED  =  1.00D-07  THRPSP  =  1.00D+00  THRDC   =  1.00D-10  THRCS   =  1.00D-10
 THRNRM  =  1.00D-08  THREQ   =  0.00D+00  THRDE   =  1.00D+00  THRREF  =  1.00D-05  SPARFAC =  1.00D+00  THRDLP  =  1.00D-07
 THRDIA  =  1.00D-10  THRDLS  =  1.00D-07  THRGPS  =  0.00D+00  THRKEX  =  0.00D+00  THRDIS  =  2.00D-01  THRVAR  =  1.00D-10
 THRLOC  =  1.00D-06  THRGAP  =  1.00D-06  THRLOCT = -1.00D+00  THRGAPT = -1.00D+00  THRORB  =  1.00D-06  THRMLTP =  0.00D+00
 THRCPQCI=  1.00D-10  KEXTA   =  0.00D+00  THRCOARS=  0.00D+00  SYMTOL  =  1.00D-06  GRADTOL =  1.00D-06  THROVL  =  1.00D-08
 THRORTH =  1.00D-08  GRID    =  1.00D-06  GRIDMAX =  1.00D-03  DTMAX   =  0.00D+00  THROCCDE=  1.00D-01  THROCCDE=  1.00D-01



 Input parameters for SORTINT:

 COMPRESS =    0.000000
 C_FINAL  =    1.000000
 DEBUG    =   -1.000000
 C_SORT1  =    0.000000
 C_SEWARD =    0.000000
 THRESH   =    0.000000
 IO       =  molpro                                                          
 SPRI     =    0.000000
 SETTING GEOMTYP        =    XYZ
 ZUNIT=BOHR
 

 Variable memory set to  995000000 words,  buffer space   230000 words

 SETTING BASIS          =    VTZ-DK
 SETTING DKROLL         =     0.00000000D+00                                  


 Recomputing integrals since basis changed


 Using spherical harmonics

 Library entry N      S cc-pVTZ-DK           selected for orbital group  1
 Library entry N      P cc-pVTZ-DK           selected for orbital group  1
 Library entry N      D cc-pVTZ-DK           selected for orbital group  1
 Library entry N      F cc-pVTZ-DK           selected for orbital group  1
 Library entry H      S cc-pVTZ-DK           selected for orbital group  2
 Library entry H      P cc-pVTZ-DK           selected for orbital group  2
 Library entry H      D cc-pVTZ-DK           selected for orbital group  2
 Library entry O      S cc-pVTZ-DK           selected for orbital group  3
 Library entry O      P cc-pVTZ-DK           selected for orbital group  3
 Library entry O      D cc-pVTZ-DK           selected for orbital group  3
 Library entry O      F cc-pVTZ-DK           selected for orbital group  3


 PROGRAM * SEWARD (Integral evaluation for generally contracted gaussian basis sets)     Author: Roland Lindh, 1990

 Geometry written to block  1 of record 700


 Point group  Cs  



 ATOMIC COORDINATES

 NR  ATOM    CHARGE       X              Y              Z

   1  N       7.00    0.000000000   -0.151146811   -1.133071910
   2  H       1.00    0.000000000    1.665932037   -1.939665042
   3  O       8.00    0.000000000    0.026982564    1.122147361

 Bond lengths in Bohr (Angstrom)

 1-2  1.988056342  1-3  2.262243143
     ( 1.052034110)     ( 1.197127517)

 Bond angles

  2-1-3  109.42006613

 NUCLEAR CHARGE:                   16
 NUMBER OF PRIMITIVE AOS:         111
 NUMBER OF SYMMETRY AOS:          100
 NUMBER OF CONTRACTIONS:           74   (  50A'  +  24A"  )
 NUMBER OF CORE ORBITALS:           2   (   2A'  +   0A"  )
 NUMBER OF VALENCE ORBITALS:        9   (   7A'  +   2A"  )


 NUCLEAR REPULSION ENERGY   30.57878638

 Eigenvalues of metric

         1 0.240E-02 0.391E-02 0.401E-02 0.832E-02 0.130E-01 0.320E-01 0.420E-01 0.461E-01
         2 0.338E-01 0.463E-01 0.100E+00 0.110E+00 0.231E+00 0.342E+00 0.391E+00 0.447E+00


 Contracted 2-electron integrals neglected if value below      1.0D-22

        1874283. INTEGRALS WRITTEN OUT IN     458 BLOCKS ON RECORD 1290 OF FILE 1


 NUMBER OF SORTED TWO-ELECTRON INTEGRALS:    2006100.     BUFFER LENGTH:  32768
 NUMBER OF SEGMENTS:   1  SEGMENT LENGTH:    2006100      RECORD LENGTH: 524288

 Memory used in sort:       2.56 MW

 SORT1 READ     1874283. AND WROTE     1914195. INTEGRALS IN      6 RECORDS. CPU TIME:     0.05 SEC, REAL TIME:     0.06 SEC
 SORT2 READ     1914195. AND WROTE     2006100. INTEGRALS IN      1 RECORDS. CPU TIME:     0.04 SEC, REAL TIME:     0.07 SEC

 FILE SIZES:   FILE 1:    50.1 MBYTE,  FILE 4:    25.2 MBYTE,   TOTAL:     75.3 MBYTE

 OPERATOR DM      FOR CENTER  0  COORDINATES:    0.000000    0.000000    0.000000


 **********************************************************************************************************************************
 DATASETS  * FILE   NREC   LENGTH (MB)   RECORD NAMES
              1      19       35.89       500      610      700      900      950      970     1000      129      960     1100   
                                          VAR    BASINP    GEOM    SYMINP    ZMAT    AOBASIS   BASIS     P2S    ABASIS      S 
                                         1400     1410     1200     1210     1080     1600     1650     1300     1700   
                                           T        V       H0       H01     AOSYM     SMH    MOLCAS    ERIS     OPER   

 PROGRAMS   *        TOTAL       INT
 CPU TIMES  *         0.63      0.54
 REAL TIME  *         1.31 SEC
 DISK USED  *        75.59 MB      
 **********************************************************************************************************************************


 PROGRAM * RHF-SCF (CLOSED SHELL)       Authors: W. Meyer, H.-J. Werner


 NUMBER OF ELECTRONS:       8+    8-
 CONVERGENCE THRESHOLDS:    1.00E-10 (Density)    1.00E-13 (Energy)
 MAX. NUMBER OF ITERATIONS:      500
 INTERPOLATION TYPE:            DIIS
 INTERPOLATION STEPS:              2 (START)      1 (STEP)
 LEVEL SHIFTS:                  0.00 (CLOSED)  0.00 (OPEN) 



 Orbital guess generated from atomic densities. Full valence occupancy:    9   2

 Molecular orbital dump at record        2100.2

 Initial occupancy:   7   1

 ITERATION    DDIFF          GRAD             ENERGY        2-EL.EN.            DIPOLE MOMENTS         DIIS   ORB.
    1      0.000D+00      0.000D+00      -129.78319737    154.505709    0.00000    0.59609   -1.00680    0    start
    2      0.000D+00      0.134D-01      -129.81034513    155.681046    0.00000    0.60772   -0.23469    1    diag
    3      0.181D-01      0.992D-02      -129.83065429    155.777145    0.00000    0.56298   -0.59130    2    diag
    4      0.870D-02      0.155D-02      -129.83137686    155.517056    0.00000    0.57106   -0.53303    3    diag
    5      0.165D-02      0.506D-03      -129.83148760    155.602270    0.00000    0.57654   -0.53453    4    diag
    6      0.708D-03      0.150D-03      -129.83150568    155.587723    0.00000    0.57716   -0.53056    5    diag
    7      0.274D-03      0.742D-04      -129.83151081    155.590113    0.00000    0.57843   -0.52823    6    diag
    8      0.187D-03      0.231D-04      -129.83151125    155.589479    0.00000    0.57845   -0.52749    7    diag
    9      0.597D-04      0.419D-05      -129.83151127    155.589371    0.00000    0.57840   -0.52734    8    diag
   10      0.115D-04      0.957D-06      -129.83151127    155.589353    0.00000    0.57837   -0.52732    9    orth
   11      0.274D-05      0.188D-06      -129.83151127    155.589349    0.00000    0.57836   -0.52732    9    diag
   12      0.505D-06      0.380D-07      -129.83151127    155.589347    0.00000    0.57836   -0.52731    9    diag
   13      0.108D-06      0.925D-08      -129.83151127    155.589347    0.00000    0.57836   -0.52731    9    diag
   14      0.265D-07      0.172D-08      -129.83151127    155.589347    0.00000    0.57836   -0.52731    9    diag
   15      0.448D-08      0.459D-09      -129.83151127    155.589347    0.00000    0.57836   -0.52731    9    diag
   16      0.108D-08      0.121D-09      -129.83151127    155.589347    0.00000    0.57836   -0.52731    9    diag
   17      0.216D-09      0.355D-10      -129.83151127    155.589347    0.00000    0.57836   -0.52731    9    diag
   18      0.714D-10      0.117D-10      -129.83151127    155.589347    0.00000    0.57836   -0.52731    9    diag
   19      0.282D-10      0.261D-11      -129.83151127    155.589347    0.00000    0.57836   -0.52731    0    orth

 Final occupancy:   7   1

 !RHF STATE 1.1 Energy               -129.831511274200
 Nuclear energy                        30.57878638
 One-electron energy                 -238.20497115
 Two-electron energy                   77.79467349
 Virial quotient                       -0.99938648
 !RHF STATE 1.1 Dipole moment           0.00000000     0.57836006    -0.52731429
 Dipole moment /Debye                   0.00000000     1.46994837    -1.34021145

 Orbital energies:

         1.1          2.1          3.1          4.1          5.1          6.1          7.1          8.1          9.1
    -20.647166   -15.705665    -1.534221    -0.989186    -0.746433    -0.665333    -0.422663     0.144451     0.371437

         1.2          2.2          3.2
     -0.597144     0.090233     0.611864

 HOMO      7.1    -0.422663 =     -11.5013eV
 LUMO      2.2     0.090233 =       2.4554eV
 LUMO-HOMO         0.512897 =      13.9566eV


 **********************************************************************************************************************************
 DATASETS  * FILE   NREC   LENGTH (MB)   RECORD NAMES
              1      19       35.89       500      610      700      900      950      970     1000      129      960     1100   
                                          VAR    BASINP    GEOM    SYMINP    ZMAT    AOBASIS   BASIS     P2S    ABASIS      S 
                                         1400     1410     1200     1210     1080     1600     1650     1300     1700   
                                           T        V       H0       H01     AOSYM     SMH    MOLCAS    ERIS     OPER   

              2       4        2.85       700     1000      520     2100   
                                         GEOM     BASIS   MCVARS     RHF  

 PROGRAMS   *        TOTAL        HF       INT
 CPU TIMES  *         0.85      0.22      0.54
 REAL TIME  *         1.58 SEC
 DISK USED  *        75.59 MB      
 **********************************************************************************************************************************


 PROGRAM * CCSD (Closed-shell coupled cluster)     Authors: C. Hampel, H.-J. Werner, 1991, M. Deegan, P.J. Knowles, 1992


 Convergence thresholds:  THRVAR = 1.00D-08  THRDEN = 1.00D-12

 CCSD(T)     terms to be evaluated (factor= 1.000)


 Number of core orbitals:           2 (   2   0 )
 Number of closed-shell orbitals:   6 (   5   1 )
 Number of external orbitals:      66 (  43  23 )

 Molecular orbitals read from record     2100.2  Type=RHF/CANONICAL (state 1.1)

 Number of N-1 electron functions:               6
 Number of N-2 electron functions:              21
 Number of singly external CSFs:               238
 Number of doubly external CSFs:             41002
 Total number of CSFs:                       41241

 Length of J-op  integral file:               0.00 MB
 Length of K-op  integral file:               0.25 MB
 Length of 3-ext integral record:             0.00 MB

 Memory could be reduced to 1.65 Mwords without degradation in triples

 Integral transformation finished. Total CPU:   0.04 sec, npass=  1  Memory used:   0.55 MW

 Reference energy:                   -129.83151127

 MP2 singlet pair energy:              -0.27242838
 MP2 triplet pair energy:              -0.16168417
 MP2 correlation energy:               -0.43411255
 MP2 total energy:                   -130.26562382

 SCS-MP2 correlation energy:           -0.42751753   (PS=  1.200000  PT=  0.333333)
 SCS-MP2 total energy:               -130.25902881

 ITER.      SQ.NORM     CORR.ENERGY   TOTAL ENERGY   ENERGY CHANGE        DEN1      VAR(S)    VAR(P)  DIIS     TIME  TIME/IT
   1      1.11727687    -0.43965777  -130.27116904    -0.00554522     0.00980017  0.28D-02  0.29D-02  1  1     0.09     0.05
   2      1.12787056    -0.43999301  -130.27150429    -0.00033525    -0.01202291  0.83D-04  0.49D-03  2  2     0.13     0.05
   3      1.13394612    -0.44036525  -130.27187652    -0.00037224    -0.00290520  0.45D-04  0.49D-04  3  3     0.18     0.05
   4      1.13663875    -0.44038978  -130.27190105    -0.00002453    -0.00092667  0.38D-05  0.87D-05  4  4     0.23     0.05
   5      1.13759053    -0.44041763  -130.27192890    -0.00002785    -0.00019674  0.13D-05  0.17D-05  5  5     0.27     0.05
   6      1.13794250    -0.44040228  -130.27191355     0.00001535    -0.00003933  0.97D-07  0.42D-06  6  6     0.31     0.05
   7      1.13803119    -0.44040409  -130.27191537    -0.00000181    -0.00000269  0.12D-07  0.85D-07  6  1     0.36     0.05
   8      1.13806192    -0.44040426  -130.27191554    -0.00000017     0.00000187  0.45D-08  0.98D-08  6  2     0.41     0.05
   9      1.13806958    -0.44040405  -130.27191532     0.00000021    -0.00000223  0.25D-08  0.11D-08  6  3     0.46     0.05
  10      1.13806832    -0.44040455  -130.27191583    -0.00000050     0.00000058  0.49D-09  0.20D-09  6  4     0.51     0.05
  11      1.13806656    -0.44040461  -130.27191588    -0.00000006     0.00000021  0.15D-09  0.23D-10  6  5     0.56     0.05
  12      1.13806516    -0.44040478  -130.27191606    -0.00000017     0.00000043  0.16D-10  0.77D-11  6  6     0.60     0.05
  13      1.13806455    -0.44040479  -130.27191606    -0.00000001     0.00000012  0.69D-11  0.12D-11  6  1     0.64     0.05
  14      1.13806416    -0.44040481  -130.27191608    -0.00000002     0.00000008  0.93D-12  0.43D-12  6  2     0.69     0.05
  15      1.13806403    -0.44040481  -130.27191608    -0.00000000     0.00000001  0.23D-12  0.15D-12  6  3     0.74     0.05
  16      1.13806393    -0.44040481  -130.27191609    -0.00000000     0.00000001  0.27D-13  0.16D-13  6  5     0.79     0.05
  17      1.13806391    -0.44040481  -130.27191609    -0.00000000     0.00000000  0.92D-15  0.25D-14  6  4     0.84     0.05
  18      1.13806390    -0.44040481  -130.27191609     0.00000000    -0.00000000  0.55D-15  0.35D-15  6  1     0.88     0.05
  19      1.13806390    -0.44040481  -130.27191609    -0.00000000     0.00000000  0.48D-16  0.62D-16  6  6     0.93     0.05
  20      1.13806390    -0.44040481  -130.27191609    -0.00000000     0.00000000  0.97D-17  0.14D-16  6  2     0.98     0.05
  21      1.13806390    -0.44040481  -130.27191609    -0.00000000     0.00000000  0.20D-17  0.11D-17  6  5     1.02     0.05
  22      1.13806390    -0.44040481  -130.27191609     0.00000000     0.00000000  0.12D-18  0.80D-19  6  3     1.07     0.05
  23      1.13806390    -0.44040481  -130.27191609     0.00000000    -0.00000000  0.33D-19  0.17D-19  6  4     1.12     0.05
  24      1.13806390    -0.44040481  -130.27191609     0.00000000    -0.00000000  0.48D-20  0.49D-20  6  1     1.15     0.05
  25      1.13806390    -0.44040481  -130.27191609     0.00000000    -0.00000000  0.50D-21  0.87D-21  6  6     1.20     0.05

 Norm of t1 vector:      0.07371977      S-energy:     0.00000000      T1 diagnostic:  0.01504798
                                                                       D1 diagnostic:  0.04116647

 Doubles amplitudes (print threshold =  0.500E-01):

         I         J         SYM. A    SYM. B    A         B      T(IJ, AB)

         6         6         2         2         1         1     -0.14077878


 Total CPU time for triples:      0.35 sec


 RESULTS
 =======

  Reference energy                   -129.831511274200
  CCSD singlet pair energy             -0.301712791596
  CCSD triplet pair energy             -0.138692021930
  CCSD correlation energy              -0.440404813525

  Triples (T) contribution             -0.019455544517
  Total correlation energy             -0.459860358041

  CCSD total energy                  -130.271916087724
  CCSD[T] energy                     -130.292350907041
  CCSD-T energy                      -130.290983779730
 !CCSD(T) total energy               -130.291371632241

 Timing summary (sec):

 STEP                 CPU(USER)    SYS     CPU(TOT)    WALL
 Transformation          0.04      0.00      0.04      0.05
 CCSD iterations         1.17      0.14      1.31      1.29
 Triples                 0.35      0.00      0.35      0.35

 Program statistics:

 Available memory in ccsd:               994999756
 Min. memory needed in ccsd:                154850
 Max. memory used in ccsd:                  184802
 Max. memory used in cckext:                238416 (25 integral passes)



 **********************************************************************************************************************************
 DATASETS  * FILE   NREC   LENGTH (MB)   RECORD NAMES
              1      20       40.28       500      610      700      900      950      970     1000      129      960     1100   
                                          VAR    BASINP    GEOM    SYMINP    ZMAT    AOBASIS   BASIS     P2S    ABASIS      S 
                                         1400     1410     1200     1210     1080     1600     1650     1300     1700     1380   
                                           T        V       H0       H01     AOSYM     SMH    MOLCAS    ERIS     OPER     JKOP   

              2       4        2.85       700     1000      520     2100   
                                         GEOM     BASIS   MCVARS     RHF  

 PROGRAMS   *        TOTAL   CCSD(T)        HF       INT
 CPU TIMES  *         2.43      1.58      0.22      0.54
 REAL TIME  *         3.32 SEC
 DISK USED  *        75.59 MB      
 **********************************************************************************************************************************

 CCSD(T)/cc-pVTZ-DK energy=   -130.291371632241

        CCSD(T)         HF-SCF  
   -130.29137163   -129.83151127
 **********************************************************************************************************************************
 Molpro calculation terminated
 Variable memory released
