
 Primary working directories    : /tmp/r2666/235144.maple
 Secondary working directories  : /tmp/r2666/235144.maple
 Wavefunction directory         : /ddn/home4/r2666/wfu/
 Main file repository           : /tmp/r2666/235144.maple/

 SHA1      : d5ffa45e93fdbca01ffc919aa182cfdae0147319
 NAME      : 2015.1.35
 ARCHNAME  : linux/x86_64
 FC        : /opt/intel/composer_xe_2015.1.133/bin/intel64/ifort
 BLASLIB   : -Wl,-_start-group /opt/intel/mkl/lib/intel64/libmkl_intel_ilp64.a /opt/intel/mkl/lib/intel64/libmkl_intel_thread.a /opt/intel/mkl/lib/intel64/libmkl_core.a -Wl,-_end-group
 id        : olemiss

 Nodes     nprocs
 cn089        1

 Using customized tuning parameters: mindgm=1; mindgv=20; mindgc=4; mindgr=1; noblas=0; minvec=7
 default implementation of scratch files=df  

 ***,hno CCSD(T)/TZ-F12 QFF
 memory, 995, m;
 gthresh,energy=1.d-12,zero=1.d-22,oneint=1.d-22,twoint=1.d-22;
 gthresh,optgrad=1.d-8,optstep=1.d-8;
 nocompress;
 geomtyp=xyz
 bohr
 geometry={
 3
        129       129
 N        0.0000000000       -0.1824487036       -1.1404926860
 H        0.0000000000        1.6833874597       -1.9296233002
 O        0.0000000000        0.0408290340        1.1195263952
 }
 
 basis=vtz-dk
 dkroll=0
   {hf,maxit=500;accu,20;}
 {ccsd(t),nocheck,maxit=250;orbital,IGNORE_ERROR;}

 Variables initialized (889), CPU time= 0.00 sec
 Commands  initialized (702), CPU time= 0.01 sec, 572 directives.
 Default parameters read. Elapsed time= 0.04 sec

 Checking input...
 Passed
1


                                         ***  PROGRAM SYSTEM MOLPRO  ***
                                       Copyright, TTI GmbH Stuttgart, 2015
                                    Version 2015.1 linked Jul  9 2018 13:16:40


 **********************************************************************************************************************************
 LABEL *   hno CCSD(T)/TZ-F12 QFF                                                        
  64 bit serial version                                                                  DATE: 08-Feb-20          TIME: 17:57:13  
 **********************************************************************************************************************************

 SHA1:             d5ffa45e93fdbca01ffc919aa182cfdae0147319
 **********************************************************************************************************************************

 THRESHOLDS:

 ZERO    =  1.00D-22  ONEINT  =  1.00D-22  TWOINT  =  1.00D-22  PREFAC  =  1.00D-14  LOCALI  =  1.00D-09  EORDER  =  1.00D-04
 ENERGY  =  1.00D-12  ETEST   =  0.00D+00  EDENS   =  0.00D+00  THRDEDEF=  1.00D-06  GRADIENT=  1.00D-02  STEP    =  1.00D-03
 ORBITAL =  1.00D-05  CIVEC   =  1.00D-05  COEFF   =  1.00D-04  PRINTCI =  5.00D-02  PUNCHCI =  9.90D+01  OPTGRAD =  3.00D-04
 OPTENERG=  1.00D-06  OPTSTEP =  3.00D-04  THRGRAD =  1.00D-10  COMPRESS=  1.00D-11  VARMIN  =  1.00D-07  VARMAX  =  1.00D-03
 THRDOUB =  0.00D+00  THRDIV  =  1.00D-05  THRRED  =  1.00D-07  THRPSP  =  1.00D+00  THRDC   =  1.00D-10  THRCS   =  1.00D-10
 THRNRM  =  1.00D-08  THREQ   =  0.00D+00  THRDE   =  1.00D+00  THRREF  =  1.00D-05  SPARFAC =  1.00D+00  THRDLP  =  1.00D-07
 THRDIA  =  1.00D-10  THRDLS  =  1.00D-07  THRGPS  =  0.00D+00  THRKEX  =  0.00D+00  THRDIS  =  2.00D-01  THRVAR  =  1.00D-10
 THRLOC  =  1.00D-06  THRGAP  =  1.00D-06  THRLOCT = -1.00D+00  THRGAPT = -1.00D+00  THRORB  =  1.00D-06  THRMLTP =  0.00D+00
 THRCPQCI=  1.00D-10  KEXTA   =  0.00D+00  THRCOARS=  0.00D+00  SYMTOL  =  1.00D-06  GRADTOL =  1.00D-06  THROVL  =  1.00D-08
 THRORTH =  1.00D-08  GRID    =  1.00D-06  GRIDMAX =  1.00D-03  DTMAX   =  0.00D+00  THROCCDE=  1.00D-01  THROCCDE=  1.00D-01



 THRESHOLDS:

 ZERO    =  1.00D-22  ONEINT  =  1.00D-22  TWOINT  =  1.00D-22  PREFAC  =  1.00D-14  LOCALI  =  1.00D-09  EORDER  =  1.00D-04
 ENERGY  =  1.00D-12  ETEST   =  0.00D+00  EDENS   =  0.00D+00  THRDEDEF=  1.00D-06  GRADIENT=  1.00D-02  STEP    =  1.00D-03
 ORBITAL =  1.00D-05  CIVEC   =  1.00D-05  COEFF   =  1.00D-04  PRINTCI =  5.00D-02  PUNCHCI =  9.90D+01  OPTGRAD =  1.00D-08
 OPTENERG=  1.00D-06  OPTSTEP =  1.00D-08  THRGRAD =  1.00D-10  COMPRESS=  1.00D-11  VARMIN  =  1.00D-07  VARMAX  =  1.00D-03
 THRDOUB =  0.00D+00  THRDIV  =  1.00D-05  THRRED  =  1.00D-07  THRPSP  =  1.00D+00  THRDC   =  1.00D-10  THRCS   =  1.00D-10
 THRNRM  =  1.00D-08  THREQ   =  0.00D+00  THRDE   =  1.00D+00  THRREF  =  1.00D-05  SPARFAC =  1.00D+00  THRDLP  =  1.00D-07
 THRDIA  =  1.00D-10  THRDLS  =  1.00D-07  THRGPS  =  0.00D+00  THRKEX  =  0.00D+00  THRDIS  =  2.00D-01  THRVAR  =  1.00D-10
 THRLOC  =  1.00D-06  THRGAP  =  1.00D-06  THRLOCT = -1.00D+00  THRGAPT = -1.00D+00  THRORB  =  1.00D-06  THRMLTP =  0.00D+00
 THRCPQCI=  1.00D-10  KEXTA   =  0.00D+00  THRCOARS=  0.00D+00  SYMTOL  =  1.00D-06  GRADTOL =  1.00D-06  THROVL  =  1.00D-08
 THRORTH =  1.00D-08  GRID    =  1.00D-06  GRIDMAX =  1.00D-03  DTMAX   =  0.00D+00  THROCCDE=  1.00D-01  THROCCDE=  1.00D-01



 Input parameters for SORTINT:

 COMPRESS =    0.000000
 C_FINAL  =    1.000000
 DEBUG    =   -1.000000
 C_SORT1  =    0.000000
 C_SEWARD =    0.000000
 THRESH   =    0.000000
 IO       =  molpro                                                          
 SPRI     =    0.000000
 SETTING GEOMTYP        =    XYZ
 ZUNIT=BOHR
 

 Variable memory set to  995000000 words,  buffer space   230000 words

 SETTING BASIS          =    VTZ-DK
 SETTING DKROLL         =     0.00000000D+00                                  


 Recomputing integrals since basis changed


 Using spherical harmonics

 Library entry N      S cc-pVTZ-DK           selected for orbital group  1
 Library entry N      P cc-pVTZ-DK           selected for orbital group  1
 Library entry N      D cc-pVTZ-DK           selected for orbital group  1
 Library entry N      F cc-pVTZ-DK           selected for orbital group  1
 Library entry H      S cc-pVTZ-DK           selected for orbital group  2
 Library entry H      P cc-pVTZ-DK           selected for orbital group  2
 Library entry H      D cc-pVTZ-DK           selected for orbital group  2
 Library entry O      S cc-pVTZ-DK           selected for orbital group  3
 Library entry O      P cc-pVTZ-DK           selected for orbital group  3
 Library entry O      D cc-pVTZ-DK           selected for orbital group  3
 Library entry O      F cc-pVTZ-DK           selected for orbital group  3


 PROGRAM * SEWARD (Integral evaluation for generally contracted gaussian basis sets)     Author: Roland Lindh, 1990

 Geometry written to block  1 of record 700


 Point group  Cs  



 ATOMIC COORDINATES

 NR  ATOM    CHARGE       X              Y              Z

   1  N       7.00    0.000000000   -0.182448704   -1.140492686
   2  H       1.00    0.000000000    1.683387460   -1.929623300
   3  O       8.00    0.000000000    0.040829034    1.119526395

 Bond lengths in Bohr (Angstrom)

 1-2  2.025850862  1-3  2.271021619
     ( 1.072034109)     ( 1.201772886)

 Bond angles

  2-1-3  107.28308039

 NUCLEAR CHARGE:                   16
 NUMBER OF PRIMITIVE AOS:         111
 NUMBER OF SYMMETRY AOS:          100
 NUMBER OF CONTRACTIONS:           74   (  50A'  +  24A"  )
 NUMBER OF CORE ORBITALS:           2   (   2A'  +   0A"  )
 NUMBER OF VALENCE ORBITALS:        9   (   7A'  +   2A"  )


 NUCLEAR REPULSION ENERGY   30.42369647

 Eigenvalues of metric

         1 0.249E-02 0.399E-02 0.413E-02 0.866E-02 0.135E-01 0.327E-01 0.423E-01 0.465E-01
         2 0.341E-01 0.466E-01 0.101E+00 0.117E+00 0.235E+00 0.349E+00 0.397E+00 0.450E+00


 Contracted 2-electron integrals neglected if value below      1.0D-22

        1874283. INTEGRALS WRITTEN OUT IN     458 BLOCKS ON RECORD 1290 OF FILE 1


 NUMBER OF SORTED TWO-ELECTRON INTEGRALS:    2006100.     BUFFER LENGTH:  32768
 NUMBER OF SEGMENTS:   1  SEGMENT LENGTH:    2006100      RECORD LENGTH: 524288

 Memory used in sort:       2.56 MW

 SORT1 READ     1874283. AND WROTE     1914195. INTEGRALS IN      6 RECORDS. CPU TIME:     0.03 SEC, REAL TIME:     0.04 SEC
 SORT2 READ     1914195. AND WROTE     2006100. INTEGRALS IN      1 RECORDS. CPU TIME:     0.05 SEC, REAL TIME:     0.07 SEC

 FILE SIZES:   FILE 1:    50.1 MBYTE,  FILE 4:    25.2 MBYTE,   TOTAL:     75.3 MBYTE

 OPERATOR DM      FOR CENTER  0  COORDINATES:    0.000000    0.000000    0.000000


 **********************************************************************************************************************************
 DATASETS  * FILE   NREC   LENGTH (MB)   RECORD NAMES
              1      19       35.89       500      610      700      900      950      970     1000      129      960     1100   
                                          VAR    BASINP    GEOM    SYMINP    ZMAT    AOBASIS   BASIS     P2S    ABASIS      S 
                                         1400     1410     1200     1210     1080     1600     1650     1300     1700   
                                           T        V       H0       H01     AOSYM     SMH    MOLCAS    ERIS     OPER   

 PROGRAMS   *        TOTAL       INT
 CPU TIMES  *         0.62      0.54
 REAL TIME  *         1.34 SEC
 DISK USED  *        75.59 MB      
 **********************************************************************************************************************************


 PROGRAM * RHF-SCF (CLOSED SHELL)       Authors: W. Meyer, H.-J. Werner


 NUMBER OF ELECTRONS:       8+    8-
 CONVERGENCE THRESHOLDS:    1.00E-10 (Density)    1.00E-13 (Energy)
 MAX. NUMBER OF ITERATIONS:      500
 INTERPOLATION TYPE:            DIIS
 INTERPOLATION STEPS:              2 (START)      1 (STEP)
 LEVEL SHIFTS:                  0.00 (CLOSED)  0.00 (OPEN) 



 Orbital guess generated from atomic densities. Full valence occupancy:    9   2

 Molecular orbital dump at record        2100.2

 Initial occupancy:   7   1

 ITERATION    DDIFF          GRAD             ENERGY        2-EL.EN.            DIPOLE MOMENTS         DIIS   ORB.
    1      0.000D+00      0.000D+00      -129.78002916    154.217234    0.00000    0.56602   -1.01822    0    start
    2      0.000D+00      0.136D-01      -129.80711273    155.401184    0.00000    0.60915   -0.21535    1    diag
    3      0.185D-01      0.103D-01      -129.82916915    155.501497    0.00000    0.54933   -0.58682    2    diag
    4      0.898D-02      0.155D-02      -129.82990053    155.236290    0.00000    0.55814   -0.52831    3    diag
    5      0.165D-02      0.517D-03      -129.83001747    155.322769    0.00000    0.56371   -0.52959    4    diag
    6      0.723D-03      0.155D-03      -129.83003696    155.307769    0.00000    0.56426   -0.52542    5    diag
    7      0.282D-03      0.769D-04      -129.83004252    155.310180    0.00000    0.56556   -0.52298    6    diag
    8      0.193D-03      0.243D-04      -129.83004302    155.309493    0.00000    0.56558   -0.52221    7    diag
    9      0.634D-04      0.444D-05      -129.83004304    155.309378    0.00000    0.56553   -0.52205    8    diag
   10      0.123D-04      0.984D-06      -129.83004304    155.309359    0.00000    0.56550   -0.52203    9    orth
   11      0.276D-05      0.195D-06      -129.83004304    155.309355    0.00000    0.56549   -0.52203    9    diag
   12      0.518D-06      0.408D-07      -129.83004304    155.309353    0.00000    0.56549   -0.52202    9    diag
   13      0.117D-06      0.102D-07      -129.83004304    155.309353    0.00000    0.56549   -0.52202    9    diag
   14      0.292D-07      0.188D-08      -129.83004304    155.309352    0.00000    0.56549   -0.52202    9    diag
   15      0.486D-08      0.506D-09      -129.83004304    155.309352    0.00000    0.56549   -0.52202    9    diag
   16      0.117D-08      0.136D-09      -129.83004304    155.309352    0.00000    0.56549   -0.52202    9    diag
   17      0.239D-09      0.422D-10      -129.83004304    155.309352    0.00000    0.56549   -0.52202    9    diag
   18      0.829D-10      0.136D-10      -129.83004304    155.309352    0.00000    0.56549   -0.52202    9    diag
   19      0.315D-10      0.293D-11      -129.83004304    155.309352    0.00000    0.56549   -0.52202    0    orth

 Final occupancy:   7   1

 !RHF STATE 1.1 Energy               -129.830043043305
 Nuclear energy                        30.42369647
 One-electron energy                 -237.90841575
 Two-electron energy                   77.65467624
 Virial quotient                       -0.99968535
 !RHF STATE 1.1 Dipole moment           0.00000000     0.56548540    -0.52202249
 Dipole moment /Debye                   0.00000000     1.43722639    -1.32676192

 Orbital energies:

         1.1          2.1          3.1          4.1          5.1          6.1          7.1          8.1          9.1
    -20.647601   -15.709708    -1.531353    -0.984185    -0.743036    -0.663653    -0.424407     0.143287     0.370825

         1.2          2.2          3.2
     -0.595588     0.088629     0.612091

 HOMO      7.1    -0.424407 =     -11.5487eV
 LUMO      2.2     0.088629 =       2.4117eV
 LUMO-HOMO         0.513037 =      13.9604eV


 **********************************************************************************************************************************
 DATASETS  * FILE   NREC   LENGTH (MB)   RECORD NAMES
              1      19       35.89       500      610      700      900      950      970     1000      129      960     1100   
                                          VAR    BASINP    GEOM    SYMINP    ZMAT    AOBASIS   BASIS     P2S    ABASIS      S 
                                         1400     1410     1200     1210     1080     1600     1650     1300     1700   
                                           T        V       H0       H01     AOSYM     SMH    MOLCAS    ERIS     OPER   

              2       4        2.85       700     1000      520     2100   
                                         GEOM     BASIS   MCVARS     RHF  

 PROGRAMS   *        TOTAL        HF       INT
 CPU TIMES  *         0.84      0.21      0.54
 REAL TIME  *         1.63 SEC
 DISK USED  *        75.59 MB      
 **********************************************************************************************************************************


 PROGRAM * CCSD (Closed-shell coupled cluster)     Authors: C. Hampel, H.-J. Werner, 1991, M. Deegan, P.J. Knowles, 1992


 Convergence thresholds:  THRVAR = 1.00D-08  THRDEN = 1.00D-12

 CCSD(T)     terms to be evaluated (factor= 1.000)


 Number of core orbitals:           2 (   2   0 )
 Number of closed-shell orbitals:   6 (   5   1 )
 Number of external orbitals:      66 (  43  23 )

 Molecular orbitals read from record     2100.2  Type=RHF/CANONICAL (state 1.1)

 Number of N-1 electron functions:               6
 Number of N-2 electron functions:              21
 Number of singly external CSFs:               238
 Number of doubly external CSFs:             41002
 Total number of CSFs:                       41241

 Length of J-op  integral file:               0.00 MB
 Length of K-op  integral file:               0.25 MB
 Length of 3-ext integral record:             0.00 MB

 Memory could be reduced to 1.65 Mwords without degradation in triples

 Integral transformation finished. Total CPU:   0.02 sec, npass=  1  Memory used:   0.55 MW

 Reference energy:                   -129.83004304

 MP2 singlet pair energy:              -0.27339731
 MP2 triplet pair energy:              -0.16226858
 MP2 correlation energy:               -0.43566589
 MP2 total energy:                   -130.26570893

 SCS-MP2 correlation energy:           -0.42904389   (PS=  1.200000  PT=  0.333333)
 SCS-MP2 total energy:               -130.25908694

 ITER.      SQ.NORM     CORR.ENERGY   TOTAL ENERGY   ENERGY CHANGE        DEN1      VAR(S)    VAR(P)  DIIS     TIME  TIME/IT
   1      1.11841969    -0.44099193  -130.27103498    -0.00532604     0.01033933  0.29D-02  0.30D-02  1  1     0.08     0.05
   2      1.12923144    -0.44129458  -130.27133762    -0.00030264    -0.01222003  0.86D-04  0.50D-03  2  2     0.10     0.05
   3      1.13549704    -0.44168347  -130.27172651    -0.00038889    -0.00298018  0.48D-04  0.50D-04  3  3     0.13     0.04
   4      1.13826240    -0.44170752  -130.27175057    -0.00002406    -0.00095025  0.41D-05  0.87D-05  4  4     0.17     0.04
   5      1.13924557    -0.44173705  -130.27178010    -0.00002953    -0.00020395  0.15D-05  0.16D-05  5  5     0.21     0.04
   6      1.13960247    -0.44172093  -130.27176397     0.00001613    -0.00004035  0.11D-06  0.39D-06  6  6     0.24     0.04
   7      1.13969005    -0.44172247  -130.27176551    -0.00000154    -0.00000249  0.14D-07  0.81D-07  6  1     0.27     0.04
   8      1.13972148    -0.44172244  -130.27176548     0.00000003     0.00000159  0.37D-08  0.99D-08  6  2     0.30     0.04
   9      1.13972946    -0.44172218  -130.27176523     0.00000025    -0.00000214  0.23D-08  0.11D-08  6  3     0.33     0.04
  10      1.13972839    -0.44172268  -130.27176573    -0.00000050     0.00000054  0.46D-09  0.20D-09  6  4     0.37     0.04
  11      1.13972665    -0.44172274  -130.27176578    -0.00000006     0.00000021  0.15D-09  0.22D-10  6  5     0.41     0.04
  12      1.13972526    -0.44172291  -130.27176596    -0.00000017     0.00000043  0.16D-10  0.77D-11  6  6     0.44     0.04
  13      1.13972463    -0.44172292  -130.27176596    -0.00000001     0.00000012  0.69D-11  0.12D-11  6  1     0.48     0.04
  14      1.13972423    -0.44172294  -130.27176598    -0.00000002     0.00000008  0.98D-12  0.41D-12  6  2     0.52     0.04
  15      1.13972409    -0.44172294  -130.27176598    -0.00000000     0.00000001  0.26D-12  0.13D-12  6  3     0.55     0.04
  16      1.13972399    -0.44172294  -130.27176599    -0.00000000     0.00000001  0.25D-13  0.14D-13  6  5     0.59     0.04
  17      1.13972397    -0.44172295  -130.27176599    -0.00000000     0.00000000  0.57D-15  0.19D-14  6  4     0.62     0.04
  18      1.13972397    -0.44172294  -130.27176599     0.00000000    -0.00000000  0.41D-15  0.27D-15  6  1     0.66     0.04
  19      1.13972396    -0.44172295  -130.27176599    -0.00000000     0.00000000  0.36D-16  0.49D-16  6  6     0.69     0.04
  20      1.13972396    -0.44172295  -130.27176599    -0.00000000     0.00000000  0.76D-17  0.12D-16  6  2     0.72     0.04
  21      1.13972396    -0.44172295  -130.27176599    -0.00000000     0.00000000  0.17D-17  0.97D-18  6  5     0.76     0.04
  22      1.13972396    -0.44172295  -130.27176599     0.00000000     0.00000000  0.94D-19  0.70D-19  6  3     0.80     0.04
  23      1.13972396    -0.44172295  -130.27176599     0.00000000    -0.00000000  0.25D-19  0.15D-19  6  4     0.84     0.04
  24      1.13972396    -0.44172295  -130.27176599     0.00000000    -0.00000000  0.38D-20  0.39D-20  6  1     0.87     0.04
  25      1.13972396    -0.44172295  -130.27176599     0.00000000    -0.00000000  0.54D-21  0.67D-21  6  6     0.90     0.04

 Norm of t1 vector:      0.07489540      S-energy:     0.00000000      T1 diagnostic:  0.01528796
                                                                       D1 diagnostic:  0.04161854

 Doubles amplitudes (print threshold =  0.500E-01):

         I         J         SYM. A    SYM. B    A         B      T(IJ, AB)

         6         6         2         2         1         1     -0.14179186


 Total CPU time for triples:      0.24 sec


 RESULTS
 =======

  Reference energy                   -129.830043043305
  CCSD singlet pair energy             -0.302853747852
  CCSD triplet pair energy             -0.138869197257
  CCSD correlation energy              -0.441722945108

  Triples (T) contribution             -0.019703907213
  Total correlation energy             -0.461426852321

  CCSD total energy                  -130.271765988413
  CCSD[T] energy                     -130.292477937260
  CCSD-T energy                      -130.291071852425
 !CCSD(T) total energy               -130.291469895626

 Timing summary (sec):

 STEP                 CPU(USER)    SYS     CPU(TOT)    WALL
 Transformation          0.03      0.02      0.05      0.16
 CCSD iterations         0.87      0.13      1.00      1.00
 Triples                 0.24      0.00      0.24      0.25

 Program statistics:

 Available memory in ccsd:               994999756
 Min. memory needed in ccsd:                154850
 Max. memory used in ccsd:                  184802
 Max. memory used in cckext:                238416 (25 integral passes)



 **********************************************************************************************************************************
 DATASETS  * FILE   NREC   LENGTH (MB)   RECORD NAMES
              1      20       40.28       500      610      700      900      950      970     1000      129      960     1100   
                                          VAR    BASINP    GEOM    SYMINP    ZMAT    AOBASIS   BASIS     P2S    ABASIS      S 
                                         1400     1410     1200     1210     1080     1600     1650     1300     1700     1380   
                                           T        V       H0       H01     AOSYM     SMH    MOLCAS    ERIS     OPER     JKOP   

              2       4        2.85       700     1000      520     2100   
                                         GEOM     BASIS   MCVARS     RHF  

 PROGRAMS   *        TOTAL   CCSD(T)        HF       INT
 CPU TIMES  *         2.01      1.17      0.21      0.54
 REAL TIME  *         3.08 SEC
 DISK USED  *        75.59 MB      
 **********************************************************************************************************************************

 CCSD(T)/cc-pVTZ-DK energy=   -130.291469895626

        CCSD(T)         HF-SCF  
   -130.29146990   -129.83004304
 **********************************************************************************************************************************
 Molpro calculation terminated
 Variable memory released
