
 Primary working directories    : /tmp/r2666/235128.maple
 Secondary working directories  : /tmp/r2666/235128.maple
 Wavefunction directory         : /ddn/home4/r2666/wfu/
 Main file repository           : /tmp/r2666/235128.maple/

 SHA1      : d5ffa45e93fdbca01ffc919aa182cfdae0147319
 NAME      : 2015.1.35
 ARCHNAME  : linux/x86_64
 FC        : /opt/intel/composer_xe_2015.1.133/bin/intel64/ifort
 BLASLIB   : -Wl,-_start-group /opt/intel/mkl/lib/intel64/libmkl_intel_ilp64.a /opt/intel/mkl/lib/intel64/libmkl_intel_thread.a /opt/intel/mkl/lib/intel64/libmkl_core.a -Wl,-_end-group
 id        : olemiss

 Nodes     nprocs
 cn035        1

 Using customized tuning parameters: mindgm=1; mindgv=20; mindgc=4; mindgr=1; noblas=0; minvec=7
 default implementation of scratch files=df  

 ***,hno CCSD(T)/TZ-F12 QFF
 memory, 995, m;
 gthresh,energy=1.d-12,zero=1.d-22,oneint=1.d-22,twoint=1.d-22;
 gthresh,optgrad=1.d-8,optstep=1.d-8;
 nocompress;
 geomtyp=xyz
 bohr
 geometry={
 3
        113       113
 N        0.0000000000       -0.1730126296       -1.1416875392
 H        0.0000000000        1.6743472089       -1.9259861988
 O        0.0000000000        0.0404332107        1.1170841470
 }
 
 basis=vtz-dk
 dkroll=0
   {hf,maxit=500;accu,20;}
 {ccsd(t),nocheck,maxit=250;orbital,IGNORE_ERROR;}

 Variables initialized (889), CPU time= 0.00 sec
 Commands  initialized (702), CPU time= 0.01 sec, 572 directives.
 Default parameters read. Elapsed time= 0.05 sec

 Checking input...
 Passed
1


                                         ***  PROGRAM SYSTEM MOLPRO  ***
                                       Copyright, TTI GmbH Stuttgart, 2015
                                    Version 2015.1 linked Jul  9 2018 13:16:40


 **********************************************************************************************************************************
 LABEL *   hno CCSD(T)/TZ-F12 QFF                                                        
  64 bit serial version                                                                  DATE: 08-Feb-20          TIME: 17:57:11  
 **********************************************************************************************************************************

 SHA1:             d5ffa45e93fdbca01ffc919aa182cfdae0147319
 **********************************************************************************************************************************

 THRESHOLDS:

 ZERO    =  1.00D-22  ONEINT  =  1.00D-22  TWOINT  =  1.00D-22  PREFAC  =  1.00D-14  LOCALI  =  1.00D-09  EORDER  =  1.00D-04
 ENERGY  =  1.00D-12  ETEST   =  0.00D+00  EDENS   =  0.00D+00  THRDEDEF=  1.00D-06  GRADIENT=  1.00D-02  STEP    =  1.00D-03
 ORBITAL =  1.00D-05  CIVEC   =  1.00D-05  COEFF   =  1.00D-04  PRINTCI =  5.00D-02  PUNCHCI =  9.90D+01  OPTGRAD =  3.00D-04
 OPTENERG=  1.00D-06  OPTSTEP =  3.00D-04  THRGRAD =  1.00D-10  COMPRESS=  1.00D-11  VARMIN  =  1.00D-07  VARMAX  =  1.00D-03
 THRDOUB =  0.00D+00  THRDIV  =  1.00D-05  THRRED  =  1.00D-07  THRPSP  =  1.00D+00  THRDC   =  1.00D-10  THRCS   =  1.00D-10
 THRNRM  =  1.00D-08  THREQ   =  0.00D+00  THRDE   =  1.00D+00  THRREF  =  1.00D-05  SPARFAC =  1.00D+00  THRDLP  =  1.00D-07
 THRDIA  =  1.00D-10  THRDLS  =  1.00D-07  THRGPS  =  0.00D+00  THRKEX  =  0.00D+00  THRDIS  =  2.00D-01  THRVAR  =  1.00D-10
 THRLOC  =  1.00D-06  THRGAP  =  1.00D-06  THRLOCT = -1.00D+00  THRGAPT = -1.00D+00  THRORB  =  1.00D-06  THRMLTP =  0.00D+00
 THRCPQCI=  1.00D-10  KEXTA   =  0.00D+00  THRCOARS=  0.00D+00  SYMTOL  =  1.00D-06  GRADTOL =  1.00D-06  THROVL  =  1.00D-08
 THRORTH =  1.00D-08  GRID    =  1.00D-06  GRIDMAX =  1.00D-03  DTMAX   =  0.00D+00  THROCCDE=  1.00D-01  THROCCDE=  1.00D-01



 THRESHOLDS:

 ZERO    =  1.00D-22  ONEINT  =  1.00D-22  TWOINT  =  1.00D-22  PREFAC  =  1.00D-14  LOCALI  =  1.00D-09  EORDER  =  1.00D-04
 ENERGY  =  1.00D-12  ETEST   =  0.00D+00  EDENS   =  0.00D+00  THRDEDEF=  1.00D-06  GRADIENT=  1.00D-02  STEP    =  1.00D-03
 ORBITAL =  1.00D-05  CIVEC   =  1.00D-05  COEFF   =  1.00D-04  PRINTCI =  5.00D-02  PUNCHCI =  9.90D+01  OPTGRAD =  1.00D-08
 OPTENERG=  1.00D-06  OPTSTEP =  1.00D-08  THRGRAD =  1.00D-10  COMPRESS=  1.00D-11  VARMIN  =  1.00D-07  VARMAX  =  1.00D-03
 THRDOUB =  0.00D+00  THRDIV  =  1.00D-05  THRRED  =  1.00D-07  THRPSP  =  1.00D+00  THRDC   =  1.00D-10  THRCS   =  1.00D-10
 THRNRM  =  1.00D-08  THREQ   =  0.00D+00  THRDE   =  1.00D+00  THRREF  =  1.00D-05  SPARFAC =  1.00D+00  THRDLP  =  1.00D-07
 THRDIA  =  1.00D-10  THRDLS  =  1.00D-07  THRGPS  =  0.00D+00  THRKEX  =  0.00D+00  THRDIS  =  2.00D-01  THRVAR  =  1.00D-10
 THRLOC  =  1.00D-06  THRGAP  =  1.00D-06  THRLOCT = -1.00D+00  THRGAPT = -1.00D+00  THRORB  =  1.00D-06  THRMLTP =  0.00D+00
 THRCPQCI=  1.00D-10  KEXTA   =  0.00D+00  THRCOARS=  0.00D+00  SYMTOL  =  1.00D-06  GRADTOL =  1.00D-06  THROVL  =  1.00D-08
 THRORTH =  1.00D-08  GRID    =  1.00D-06  GRIDMAX =  1.00D-03  DTMAX   =  0.00D+00  THROCCDE=  1.00D-01  THROCCDE=  1.00D-01



 Input parameters for SORTINT:

 COMPRESS =    0.000000
 C_FINAL  =    1.000000
 DEBUG    =   -1.000000
 C_SORT1  =    0.000000
 C_SEWARD =    0.000000
 THRESH   =    0.000000
 IO       =  molpro                                                          
 SPRI     =    0.000000
 SETTING GEOMTYP        =    XYZ
 ZUNIT=BOHR
 

 Variable memory set to  995000000 words,  buffer space   230000 words

 SETTING BASIS          =    VTZ-DK
 SETTING DKROLL         =     0.00000000D+00                                  


 Recomputing integrals since basis changed


 Using spherical harmonics

 Library entry N      S cc-pVTZ-DK           selected for orbital group  1
 Library entry N      P cc-pVTZ-DK           selected for orbital group  1
 Library entry N      D cc-pVTZ-DK           selected for orbital group  1
 Library entry N      F cc-pVTZ-DK           selected for orbital group  1
 Library entry H      S cc-pVTZ-DK           selected for orbital group  2
 Library entry H      P cc-pVTZ-DK           selected for orbital group  2
 Library entry H      D cc-pVTZ-DK           selected for orbital group  2
 Library entry O      S cc-pVTZ-DK           selected for orbital group  3
 Library entry O      P cc-pVTZ-DK           selected for orbital group  3
 Library entry O      D cc-pVTZ-DK           selected for orbital group  3
 Library entry O      F cc-pVTZ-DK           selected for orbital group  3


 PROGRAM * SEWARD (Integral evaluation for generally contracted gaussian basis sets)     Author: Roland Lindh, 1990

 Geometry written to block  1 of record 700


 Point group  Cs  



 ATOMIC COORDINATES

 NR  ATOM    CHARGE       X              Y              Z

   1  N       7.00    0.000000000   -0.173012630   -1.141687539
   2  H       1.00    0.000000000    1.674347209   -1.925986199
   3  O       8.00    0.000000000    0.040433211    1.117084147

 Bond lengths in Bohr (Angstrom)

 1-2  2.006953602  1-3  2.268834207
     ( 1.062034110)     ( 1.200615357)

 Bond angles

  2-1-3  107.60548730

 NUCLEAR CHARGE:                   16
 NUMBER OF PRIMITIVE AOS:         111
 NUMBER OF SYMMETRY AOS:          100
 NUMBER OF CONTRACTIONS:           74   (  50A'  +  24A"  )
 NUMBER OF CORE ORBITALS:           2   (   2A'  +   0A"  )
 NUMBER OF VALENCE ORBITALS:        9   (   7A'  +   2A"  )


 NUCLEAR REPULSION ENERGY   30.48632394

 Eigenvalues of metric

         1 0.245E-02 0.396E-02 0.409E-02 0.848E-02 0.132E-01 0.324E-01 0.422E-01 0.464E-01
         2 0.340E-01 0.465E-01 0.101E+00 0.114E+00 0.233E+00 0.345E+00 0.395E+00 0.449E+00


 Contracted 2-electron integrals neglected if value below      1.0D-22

        1874283. INTEGRALS WRITTEN OUT IN     458 BLOCKS ON RECORD 1290 OF FILE 1


 NUMBER OF SORTED TWO-ELECTRON INTEGRALS:    2006100.     BUFFER LENGTH:  32768
 NUMBER OF SEGMENTS:   1  SEGMENT LENGTH:    2006100      RECORD LENGTH: 524288

 Memory used in sort:       2.56 MW

 SORT1 READ     1874283. AND WROTE     1914195. INTEGRALS IN      6 RECORDS. CPU TIME:     0.05 SEC, REAL TIME:     0.06 SEC
 SORT2 READ     1914195. AND WROTE     2006100. INTEGRALS IN      1 RECORDS. CPU TIME:     0.06 SEC, REAL TIME:     0.06 SEC

 FILE SIZES:   FILE 1:    50.1 MBYTE,  FILE 4:    25.2 MBYTE,   TOTAL:     75.3 MBYTE

 OPERATOR DM      FOR CENTER  0  COORDINATES:    0.000000    0.000000    0.000000


 **********************************************************************************************************************************
 DATASETS  * FILE   NREC   LENGTH (MB)   RECORD NAMES
              1      19       35.89       500      610      700      900      950      970     1000      129      960     1100   
                                          VAR    BASINP    GEOM    SYMINP    ZMAT    AOBASIS   BASIS     P2S    ABASIS      S 
                                         1400     1410     1200     1210     1080     1600     1650     1300     1700   
                                           T        V       H0       H01     AOSYM     SMH    MOLCAS    ERIS     OPER   

 PROGRAMS   *        TOTAL       INT
 CPU TIMES  *         0.64      0.55
 REAL TIME  *         1.39 SEC
 DISK USED  *        75.59 MB      
 **********************************************************************************************************************************


 PROGRAM * RHF-SCF (CLOSED SHELL)       Authors: W. Meyer, H.-J. Werner


 NUMBER OF ELECTRONS:       8+    8-
 CONVERGENCE THRESHOLDS:    1.00E-10 (Density)    1.00E-13 (Energy)
 MAX. NUMBER OF ITERATIONS:      500
 INTERPOLATION TYPE:            DIIS
 INTERPOLATION STEPS:              2 (START)      1 (STEP)
 LEVEL SHIFTS:                  0.00 (CLOSED)  0.00 (OPEN) 



 Orbital guess generated from atomic densities. Full valence occupancy:    9   2

 Molecular orbital dump at record        2100.2

 Initial occupancy:   7   1

 ITERATION    DDIFF          GRAD             ENERGY        2-EL.EN.            DIPOLE MOMENTS         DIIS   ORB.
    1      0.000D+00      0.000D+00      -129.78133128    154.337664    0.00000    0.57529   -1.01467    0    start
    2      0.000D+00      0.135D-01      -129.80844683    155.512403    0.00000    0.60954   -0.22145    1    diag
    3      0.184D-01      0.102D-01      -129.82987149    155.613540    0.00000    0.55396   -0.58787    2    diag
    4      0.888D-02      0.155D-02      -129.83059893    155.350388    0.00000    0.56274   -0.52949    3    diag
    5      0.165D-02      0.514D-03      -129.83071342    155.436114    0.00000    0.56821   -0.53079    4    diag
    6      0.717D-03      0.153D-03      -129.83073235    155.421296    0.00000    0.56878   -0.52669    5    diag
    7      0.279D-03      0.760D-04      -129.83073775    155.423680    0.00000    0.57005   -0.52427    6    diag
    8      0.191D-03      0.239D-04      -129.83073824    155.423008    0.00000    0.57006   -0.52351    7    diag
    9      0.622D-04      0.434D-05      -129.83073826    155.422897    0.00000    0.57002   -0.52336    8    diag
   10      0.120D-04      0.968D-06      -129.83073826    155.422879    0.00000    0.56998   -0.52333    9    orth
   11      0.274D-05      0.191D-06      -129.83073826    155.422875    0.00000    0.56998   -0.52333    9    diag
   12      0.509D-06      0.396D-07      -129.83073826    155.422873    0.00000    0.56997   -0.52333    9    diag
   13      0.113D-06      0.977D-08      -129.83073826    155.422873    0.00000    0.56997   -0.52333    9    diag
   14      0.280D-07      0.180D-08      -129.83073826    155.422873    0.00000    0.56997   -0.52333    9    diag
   15      0.466D-08      0.482D-09      -129.83073826    155.422873    0.00000    0.56997   -0.52333    9    diag
   16      0.112D-08      0.128D-09      -129.83073826    155.422873    0.00000    0.56997   -0.52333    9    diag
   17      0.226D-09      0.390D-10      -129.83073826    155.422873    0.00000    0.56997   -0.52333    9    diag
   18      0.765D-10      0.127D-10      -129.83073826    155.422873    0.00000    0.56997   -0.52333    0    orth

 Final occupancy:   7   1

 !RHF STATE 1.1 Energy               -129.830738258401
 Nuclear energy                        30.48632394
 One-electron energy                 -238.02849851
 Two-electron energy                   77.71143631
 Virial quotient                       -0.99955209
 !RHF STATE 1.1 Dipole moment           0.00000000     0.56997345    -0.52332765
 Dipole moment /Debye                   0.00000000     1.44863311    -1.33007908

 Orbital energies:

         1.1          2.1          3.1          4.1          5.1          6.1          7.1          8.1          9.1
    -20.647312   -15.708057    -1.532201    -0.986462    -0.744437    -0.664002    -0.424435     0.143977     0.370974

         1.2          2.2          3.2
     -0.595906     0.089069     0.612064

 HOMO      7.1    -0.424435 =     -11.5495eV
 LUMO      2.2     0.089069 =       2.4237eV
 LUMO-HOMO         0.513504 =      13.9732eV


 **********************************************************************************************************************************
 DATASETS  * FILE   NREC   LENGTH (MB)   RECORD NAMES
              1      19       35.89       500      610      700      900      950      970     1000      129      960     1100   
                                          VAR    BASINP    GEOM    SYMINP    ZMAT    AOBASIS   BASIS     P2S    ABASIS      S 
                                         1400     1410     1200     1210     1080     1600     1650     1300     1700   
                                           T        V       H0       H01     AOSYM     SMH    MOLCAS    ERIS     OPER   

              2       4        2.85       700     1000      520     2100   
                                         GEOM     BASIS   MCVARS     RHF  

 PROGRAMS   *        TOTAL        HF       INT
 CPU TIMES  *         0.85      0.21      0.55
 REAL TIME  *         1.66 SEC
 DISK USED  *        75.59 MB      
 **********************************************************************************************************************************


 PROGRAM * CCSD (Closed-shell coupled cluster)     Authors: C. Hampel, H.-J. Werner, 1991, M. Deegan, P.J. Knowles, 1992


 Convergence thresholds:  THRVAR = 1.00D-08  THRDEN = 1.00D-12

 CCSD(T)     terms to be evaluated (factor= 1.000)


 Number of core orbitals:           2 (   2   0 )
 Number of closed-shell orbitals:   6 (   5   1 )
 Number of external orbitals:      66 (  43  23 )

 Molecular orbitals read from record     2100.2  Type=RHF/CANONICAL (state 1.1)

 Number of N-1 electron functions:               6
 Number of N-2 electron functions:              21
 Number of singly external CSFs:               238
 Number of doubly external CSFs:             41002
 Total number of CSFs:                       41241

 Length of J-op  integral file:               0.00 MB
 Length of K-op  integral file:               0.25 MB
 Length of 3-ext integral record:             0.00 MB

 Memory could be reduced to 1.65 Mwords without degradation in triples

 Integral transformation finished. Total CPU:   0.04 sec, npass=  1  Memory used:   0.55 MW

 Reference energy:                   -129.83073826

 MP2 singlet pair energy:              -0.27303217
 MP2 triplet pair energy:              -0.16205130
 MP2 correlation energy:               -0.43508346
 MP2 total energy:                   -130.26582172

 SCS-MP2 correlation energy:           -0.42847052   (PS=  1.200000  PT=  0.333333)
 SCS-MP2 total energy:               -130.25920878

 ITER.      SQ.NORM     CORR.ENERGY   TOTAL ENERGY   ENERGY CHANGE        DEN1      VAR(S)    VAR(P)  DIIS     TIME  TIME/IT
   1      1.11794980    -0.44047522  -130.27121348    -0.00539176     0.01014283  0.29D-02  0.29D-02  1  1     0.08     0.05
   2      1.12866682    -0.44078879  -130.27152705    -0.00031357    -0.01213989  0.85D-04  0.49D-03  2  2     0.13     0.05
   3      1.13484435    -0.44116887  -130.27190712    -0.00038008    -0.00294819  0.46D-04  0.49D-04  3  3     0.18     0.05
   4      1.13757547    -0.44119377  -130.27193203    -0.00002490    -0.00093958  0.39D-05  0.86D-05  4  4     0.23     0.05
   5      1.13853798    -0.44122242  -130.27196068    -0.00002865    -0.00019951  0.14D-05  0.16D-05  5  5     0.28     0.05
   6      1.13888879    -0.44120662  -130.27194487     0.00001580    -0.00003963  0.10D-06  0.40D-06  6  6     0.33     0.05
   7      1.13897497    -0.44120833  -130.27194659    -0.00000171    -0.00000242  0.13D-07  0.82D-07  6  1     0.38     0.05
   8      1.13900565    -0.44120835  -130.27194660    -0.00000002     0.00000176  0.40D-08  0.97D-08  6  2     0.43     0.05
   9      1.13901329    -0.44120813  -130.27194639     0.00000021    -0.00000218  0.23D-08  0.11D-08  6  3     0.48     0.05
  10      1.13901214    -0.44120862  -130.27194688    -0.00000049     0.00000057  0.46D-09  0.19D-09  6  4     0.52     0.05
  11      1.13901043    -0.44120868  -130.27194694    -0.00000006     0.00000020  0.14D-09  0.22D-10  6  5     0.57     0.05
  12      1.13900906    -0.44120885  -130.27194711    -0.00000017     0.00000042  0.15D-10  0.73D-11  6  6     0.62     0.05
  13      1.13900846    -0.44120886  -130.27194711    -0.00000001     0.00000012  0.66D-11  0.12D-11  6  1     0.66     0.05
  14      1.13900808    -0.44120888  -130.27194713    -0.00000002     0.00000007  0.93D-12  0.40D-12  6  2     0.72     0.05
  15      1.13900794    -0.44120888  -130.27194713    -0.00000000     0.00000001  0.24D-12  0.13D-12  6  3     0.77     0.05
  16      1.13900784    -0.44120888  -130.27194714    -0.00000000     0.00000002  0.67D-14  0.34D-13  6  1     0.82     0.05
  17      1.13900783    -0.44120888  -130.27194714     0.00000000    -0.00000000  0.31D-14  0.26D-14  6  4     0.87     0.05
  18      1.13900782    -0.44120888  -130.27194714    -0.00000000     0.00000000  0.68D-15  0.46D-15  6  5     0.90     0.05
  19      1.13900782    -0.44120888  -130.27194714     0.00000000    -0.00000000  0.12D-15  0.79D-16  6  6     0.96     0.05
  20      1.13900782    -0.44120888  -130.27194714    -0.00000000     0.00000000  0.16D-16  0.17D-16  6  2     1.00     0.05
  21      1.13900781    -0.44120888  -130.27194714    -0.00000000     0.00000000  0.24D-17  0.21D-17  6  3     1.05     0.05
  22      1.13900781    -0.44120888  -130.27194714    -0.00000000     0.00000000  0.27D-18  0.34D-18  6  4     1.09     0.05
  23      1.13900781    -0.44120888  -130.27194714    -0.00000000     0.00000000  0.10D-18  0.28D-19  6  1     1.14     0.05
  24      1.13900781    -0.44120888  -130.27194714     0.00000000    -0.00000000  0.17D-19  0.10D-19  6  6     1.19     0.05
  25      1.13900781    -0.44120888  -130.27194714     0.00000000    -0.00000000  0.37D-20  0.70D-21  6  5     1.24     0.05
  26      1.13900781    -0.44120888  -130.27194714     0.00000000    -0.00000000  0.75D-21  0.29D-21  6  2     1.29     0.05
  27      1.13900781    -0.44120888  -130.27194714     0.00000000    -0.00000000  0.25D-22  0.16D-22  6  3     1.33     0.05

 Norm of t1 vector:      0.07424302      S-energy:     0.00000000      T1 diagnostic:  0.01515479
                                                                       D1 diagnostic:  0.04147254

 Doubles amplitudes (print threshold =  0.500E-01):

         I         J         SYM. A    SYM. B    A         B      T(IJ, AB)

         6         6         2         2         1         1     -0.14158897


 Total CPU time for triples:      0.36 sec


 RESULTS
 =======

  Reference energy                   -129.830738258401
  CCSD singlet pair energy             -0.302409854486
  CCSD triplet pair energy             -0.138799025388
  CCSD correlation energy              -0.441208879872

  Triples (T) contribution             -0.019605525994
  Total correlation energy             -0.460814405866

  CCSD total energy                  -130.271947138274
  CCSD[T] energy                     -130.292546525985
  CCSD-T energy                      -130.291159676291
 !CCSD(T) total energy               -130.291552664267

 Timing summary (sec):

 STEP                 CPU(USER)    SYS     CPU(TOT)    WALL
 Transformation          0.04      0.01      0.05      0.04
 CCSD iterations         1.29      0.14      1.43      1.47
 Triples                 0.36      0.02      0.38      0.36

 Program statistics:

 Available memory in ccsd:               994999756
 Min. memory needed in ccsd:                154850
 Max. memory used in ccsd:                  184802
 Max. memory used in cckext:                238416 (27 integral passes)



 **********************************************************************************************************************************
 DATASETS  * FILE   NREC   LENGTH (MB)   RECORD NAMES
              1      20       40.28       500      610      700      900      950      970     1000      129      960     1100   
                                          VAR    BASINP    GEOM    SYMINP    ZMAT    AOBASIS   BASIS     P2S    ABASIS      S 
                                         1400     1410     1200     1210     1080     1600     1650     1300     1700     1380   
                                           T        V       H0       H01     AOSYM     SMH    MOLCAS    ERIS     OPER     JKOP   

              2       4        2.85       700     1000      520     2100   
                                         GEOM     BASIS   MCVARS     RHF  

 PROGRAMS   *        TOTAL   CCSD(T)        HF       INT
 CPU TIMES  *         2.57      1.72      0.21      0.55
 REAL TIME  *         3.61 SEC
 DISK USED  *        75.59 MB      
 **********************************************************************************************************************************

 CCSD(T)/cc-pVTZ-DK energy=   -130.291552664267

        CCSD(T)         HF-SCF  
   -130.29155266   -129.83073826
 **********************************************************************************************************************************
 Molpro calculation terminated
 Variable memory released
