
 Primary working directories    : /tmp/r2666/235120.maple
 Secondary working directories  : /tmp/r2666/235120.maple
 Wavefunction directory         : /ddn/home4/r2666/wfu/
 Main file repository           : /tmp/r2666/235120.maple/

 SHA1      : d5ffa45e93fdbca01ffc919aa182cfdae0147319
 NAME      : 2015.1.35
 ARCHNAME  : linux/x86_64
 FC        : /opt/intel/composer_xe_2015.1.133/bin/intel64/ifort
 BLASLIB   : -Wl,-_start-group /opt/intel/mkl/lib/intel64/libmkl_intel_ilp64.a /opt/intel/mkl/lib/intel64/libmkl_intel_thread.a /opt/intel/mkl/lib/intel64/libmkl_core.a -Wl,-_end-group
 id        : olemiss

 Nodes     nprocs
 cn023        1

 Using customized tuning parameters: mindgm=1; mindgv=20; mindgc=4; mindgr=1; noblas=0; minvec=7
 default implementation of scratch files=df  

 ***,hno CCSD(T)/TZ-F12 QFF
 memory, 995, m;
 gthresh,energy=1.d-12,zero=1.d-22,oneint=1.d-22,twoint=1.d-22;
 gthresh,optgrad=1.d-8,optstep=1.d-8;
 nocompress;
 geomtyp=xyz
 bohr
 geometry={
 3
        105       105
 N        0.0000000000       -0.1681775965       -1.1540031467
 H        0.0000000000        1.6722854812       -1.9303547247
 O        0.0000000000        0.0376599054        1.1337682804
 }
 
 basis=vtz-dk
 dkroll=0
   {hf,maxit=500;accu,20;}
 {ccsd(t),nocheck,maxit=250;orbital,IGNORE_ERROR;}

 Variables initialized (889), CPU time= 0.00 sec
 Commands  initialized (702), CPU time= 0.01 sec, 572 directives.
 Default parameters read. Elapsed time= 0.05 sec

 Checking input...
 Passed
1


                                         ***  PROGRAM SYSTEM MOLPRO  ***
                                       Copyright, TTI GmbH Stuttgart, 2015
                                    Version 2015.1 linked Jul  9 2018 13:16:40


 **********************************************************************************************************************************
 LABEL *   hno CCSD(T)/TZ-F12 QFF                                                        
  64 bit serial version                                                                  DATE: 08-Feb-20          TIME: 17:57:10  
 **********************************************************************************************************************************

 SHA1:             d5ffa45e93fdbca01ffc919aa182cfdae0147319
 **********************************************************************************************************************************

 THRESHOLDS:

 ZERO    =  1.00D-22  ONEINT  =  1.00D-22  TWOINT  =  1.00D-22  PREFAC  =  1.00D-14  LOCALI  =  1.00D-09  EORDER  =  1.00D-04
 ENERGY  =  1.00D-12  ETEST   =  0.00D+00  EDENS   =  0.00D+00  THRDEDEF=  1.00D-06  GRADIENT=  1.00D-02  STEP    =  1.00D-03
 ORBITAL =  1.00D-05  CIVEC   =  1.00D-05  COEFF   =  1.00D-04  PRINTCI =  5.00D-02  PUNCHCI =  9.90D+01  OPTGRAD =  3.00D-04
 OPTENERG=  1.00D-06  OPTSTEP =  3.00D-04  THRGRAD =  1.00D-10  COMPRESS=  1.00D-11  VARMIN  =  1.00D-07  VARMAX  =  1.00D-03
 THRDOUB =  0.00D+00  THRDIV  =  1.00D-05  THRRED  =  1.00D-07  THRPSP  =  1.00D+00  THRDC   =  1.00D-10  THRCS   =  1.00D-10
 THRNRM  =  1.00D-08  THREQ   =  0.00D+00  THRDE   =  1.00D+00  THRREF  =  1.00D-05  SPARFAC =  1.00D+00  THRDLP  =  1.00D-07
 THRDIA  =  1.00D-10  THRDLS  =  1.00D-07  THRGPS  =  0.00D+00  THRKEX  =  0.00D+00  THRDIS  =  2.00D-01  THRVAR  =  1.00D-10
 THRLOC  =  1.00D-06  THRGAP  =  1.00D-06  THRLOCT = -1.00D+00  THRGAPT = -1.00D+00  THRORB  =  1.00D-06  THRMLTP =  0.00D+00
 THRCPQCI=  1.00D-10  KEXTA   =  0.00D+00  THRCOARS=  0.00D+00  SYMTOL  =  1.00D-06  GRADTOL =  1.00D-06  THROVL  =  1.00D-08
 THRORTH =  1.00D-08  GRID    =  1.00D-06  GRIDMAX =  1.00D-03  DTMAX   =  0.00D+00  THROCCDE=  1.00D-01  THROCCDE=  1.00D-01



 THRESHOLDS:

 ZERO    =  1.00D-22  ONEINT  =  1.00D-22  TWOINT  =  1.00D-22  PREFAC  =  1.00D-14  LOCALI  =  1.00D-09  EORDER  =  1.00D-04
 ENERGY  =  1.00D-12  ETEST   =  0.00D+00  EDENS   =  0.00D+00  THRDEDEF=  1.00D-06  GRADIENT=  1.00D-02  STEP    =  1.00D-03
 ORBITAL =  1.00D-05  CIVEC   =  1.00D-05  COEFF   =  1.00D-04  PRINTCI =  5.00D-02  PUNCHCI =  9.90D+01  OPTGRAD =  1.00D-08
 OPTENERG=  1.00D-06  OPTSTEP =  1.00D-08  THRGRAD =  1.00D-10  COMPRESS=  1.00D-11  VARMIN  =  1.00D-07  VARMAX  =  1.00D-03
 THRDOUB =  0.00D+00  THRDIV  =  1.00D-05  THRRED  =  1.00D-07  THRPSP  =  1.00D+00  THRDC   =  1.00D-10  THRCS   =  1.00D-10
 THRNRM  =  1.00D-08  THREQ   =  0.00D+00  THRDE   =  1.00D+00  THRREF  =  1.00D-05  SPARFAC =  1.00D+00  THRDLP  =  1.00D-07
 THRDIA  =  1.00D-10  THRDLS  =  1.00D-07  THRGPS  =  0.00D+00  THRKEX  =  0.00D+00  THRDIS  =  2.00D-01  THRVAR  =  1.00D-10
 THRLOC  =  1.00D-06  THRGAP  =  1.00D-06  THRLOCT = -1.00D+00  THRGAPT = -1.00D+00  THRORB  =  1.00D-06  THRMLTP =  0.00D+00
 THRCPQCI=  1.00D-10  KEXTA   =  0.00D+00  THRCOARS=  0.00D+00  SYMTOL  =  1.00D-06  GRADTOL =  1.00D-06  THROVL  =  1.00D-08
 THRORTH =  1.00D-08  GRID    =  1.00D-06  GRIDMAX =  1.00D-03  DTMAX   =  0.00D+00  THROCCDE=  1.00D-01  THROCCDE=  1.00D-01



 Input parameters for SORTINT:

 COMPRESS =    0.000000
 C_FINAL  =    1.000000
 DEBUG    =   -1.000000
 C_SORT1  =    0.000000
 C_SEWARD =    0.000000
 THRESH   =    0.000000
 IO       =  molpro                                                          
 SPRI     =    0.000000
 SETTING GEOMTYP        =    XYZ
 ZUNIT=BOHR
 

 Variable memory set to  995000000 words,  buffer space   230000 words

 SETTING BASIS          =    VTZ-DK
 SETTING DKROLL         =     0.00000000D+00                                  


 Recomputing integrals since basis changed


 Using spherical harmonics

 Library entry N      S cc-pVTZ-DK           selected for orbital group  1
 Library entry N      P cc-pVTZ-DK           selected for orbital group  1
 Library entry N      D cc-pVTZ-DK           selected for orbital group  1
 Library entry N      F cc-pVTZ-DK           selected for orbital group  1
 Library entry H      S cc-pVTZ-DK           selected for orbital group  2
 Library entry H      P cc-pVTZ-DK           selected for orbital group  2
 Library entry H      D cc-pVTZ-DK           selected for orbital group  2
 Library entry O      S cc-pVTZ-DK           selected for orbital group  3
 Library entry O      P cc-pVTZ-DK           selected for orbital group  3
 Library entry O      D cc-pVTZ-DK           selected for orbital group  3
 Library entry O      F cc-pVTZ-DK           selected for orbital group  3


 PROGRAM * SEWARD (Integral evaluation for generally contracted gaussian basis sets)     Author: Roland Lindh, 1990

 Geometry written to block  1 of record 700


 Point group  Cs  



 ATOMIC COORDINATES

 NR  ATOM    CHARGE       X              Y              Z

   1  N       7.00    0.000000000   -0.168177596   -1.154003147
   2  H       1.00    0.000000000    1.672285481   -1.930354725
   3  O       8.00    0.000000000    0.037659905    1.133768280

 Bond lengths in Bohr (Angstrom)

 1-2  1.997504972  1-3  2.297012664
     ( 1.057034110)     ( 1.215526755)

 Bond angles

  2-1-3  107.72996058

 NUCLEAR CHARGE:                   16
 NUMBER OF PRIMITIVE AOS:         111
 NUMBER OF SYMMETRY AOS:          100
 NUMBER OF CONTRACTIONS:           74   (  50A'  +  24A"  )
 NUMBER OF CORE ORBITALS:           2   (   2A'  +   0A"  )
 NUMBER OF VALENCE ORBITALS:        9   (   7A'  +   2A"  )


 NUCLEAR REPULSION ENERGY   30.18743084

 Eigenvalues of metric

         1 0.249E-02 0.402E-02 0.427E-02 0.848E-02 0.131E-01 0.333E-01 0.430E-01 0.465E-01
         2 0.347E-01 0.466E-01 0.103E+00 0.114E+00 0.237E+00 0.344E+00 0.398E+00 0.452E+00


 Contracted 2-electron integrals neglected if value below      1.0D-22

        1874254. INTEGRALS WRITTEN OUT IN     458 BLOCKS ON RECORD 1290 OF FILE 1


 NUMBER OF SORTED TWO-ELECTRON INTEGRALS:    2006100.     BUFFER LENGTH:  32768
 NUMBER OF SEGMENTS:   1  SEGMENT LENGTH:    2006100      RECORD LENGTH: 524288

 Memory used in sort:       2.56 MW

 SORT1 READ     1874254. AND WROTE     1914161. INTEGRALS IN      6 RECORDS. CPU TIME:     0.03 SEC, REAL TIME:     0.05 SEC
 SORT2 READ     1914161. AND WROTE     2006100. INTEGRALS IN      1 RECORDS. CPU TIME:     0.05 SEC, REAL TIME:     0.08 SEC

 FILE SIZES:   FILE 1:    50.1 MBYTE,  FILE 4:    25.2 MBYTE,   TOTAL:     75.3 MBYTE

 OPERATOR DM      FOR CENTER  0  COORDINATES:    0.000000    0.000000    0.000000


 **********************************************************************************************************************************
 DATASETS  * FILE   NREC   LENGTH (MB)   RECORD NAMES
              1      19       35.89       500      610      700      900      950      970     1000      129      960     1100   
                                          VAR    BASINP    GEOM    SYMINP    ZMAT    AOBASIS   BASIS     P2S    ABASIS      S 
                                         1400     1410     1200     1210     1080     1600     1650     1300     1700   
                                           T        V       H0       H01     AOSYM     SMH    MOLCAS    ERIS     OPER   

 PROGRAMS   *        TOTAL       INT
 CPU TIMES  *         0.71      0.60
 REAL TIME  *         1.39 SEC
 DISK USED  *        75.59 MB      
 **********************************************************************************************************************************


 PROGRAM * RHF-SCF (CLOSED SHELL)       Authors: W. Meyer, H.-J. Werner


 NUMBER OF ELECTRONS:       8+    8-
 CONVERGENCE THRESHOLDS:    1.00E-10 (Density)    1.00E-13 (Energy)
 MAX. NUMBER OF ITERATIONS:      500
 INTERPOLATION TYPE:            DIIS
 INTERPOLATION STEPS:              2 (START)      1 (STEP)
 LEVEL SHIFTS:                  0.00 (CLOSED)  0.00 (OPEN) 



 Orbital guess generated from atomic densities. Full valence occupancy:    9   2

 Molecular orbital dump at record        2100.2

 Initial occupancy:   7   1

 ITERATION    DDIFF          GRAD             ENERGY        2-EL.EN.            DIPOLE MOMENTS         DIIS   ORB.
    1      0.000D+00      0.000D+00      -129.77757594    153.806677    0.00000    0.58658   -1.06212    0    start
    2      0.000D+00      0.137D-01      -129.80424156    154.947844    0.00000    0.62045   -0.21621    1    diag
    3      0.189D-01      0.107D-01      -129.82791346    155.081588    0.00000    0.56398   -0.61033    2    diag
    4      0.924D-02      0.157D-02      -129.82866770    154.808776    0.00000    0.57247   -0.54953    3    diag
    5      0.168D-02      0.524D-03      -129.82878658    154.895398    0.00000    0.57789   -0.55052    4    diag
    6      0.731D-03      0.156D-03      -129.82880630    154.880430    0.00000    0.57839   -0.54617    5    diag
    7      0.284D-03      0.787D-04      -129.82881220    154.882633    0.00000    0.57961   -0.54355    6    diag
    8      0.197D-03      0.259D-04      -129.82881280    154.881900    0.00000    0.57962   -0.54268    7    diag
    9      0.697D-04      0.474D-05      -129.82881283    154.881775    0.00000    0.57957   -0.54251    8    diag
   10      0.136D-04      0.102D-05      -129.82881283    154.881757    0.00000    0.57953   -0.54248    9    orth
   11      0.289D-05      0.201D-06      -129.82881283    154.881753    0.00000    0.57953   -0.54248    9    diag
   12      0.523D-06      0.428D-07      -129.82881283    154.881751    0.00000    0.57953   -0.54248    9    diag
   13      0.116D-06      0.109D-07      -129.82881283    154.881751    0.00000    0.57952   -0.54248    9    diag
   14      0.295D-07      0.195D-08      -129.82881283    154.881751    0.00000    0.57952   -0.54248    9    diag
   15      0.446D-08      0.491D-09      -129.82881283    154.881751    0.00000    0.57952   -0.54248    9    diag
   16      0.108D-08      0.115D-09      -129.82881283    154.881751    0.00000    0.57952   -0.54248    9    diag
   17      0.170D-09      0.314D-10      -129.82881283    154.881751    0.00000    0.57952   -0.54248    9    diag
   18      0.482D-10      0.102D-10      -129.82881283    154.881751    0.00000    0.57952   -0.54248    9    diag
   19      0.198D-10      0.201D-11      -129.82881283    154.881751    0.00000    0.57952   -0.54248    9    fixocc
   20      0.461D-11      0.313D-12      -129.82881283    154.881751    0.00000    0.57952   -0.54248    9    orth
   21      0.820D-12      0.107D-12      -129.82881283    154.881751    0.00000    0.57952   -0.54248    0    orth

 Final occupancy:   7   1

 !RHF STATE 1.1 Energy               -129.828812826615
 Nuclear energy                        30.18743084
 One-electron energy                 -237.45711918
 Two-electron energy                   77.44087551
 Virial quotient                       -0.99992927
 !RHF STATE 1.1 Dipole moment           0.00000000     0.57952470    -0.54247816
 Dipole moment /Debye                   0.00000000     1.47290839    -1.37875164

 Orbital energies:

         1.1          2.1          3.1          4.1          5.1          6.1          7.1          8.1          9.1
    -20.648610   -15.709881    -1.519955    -0.991239    -0.740361    -0.659726    -0.429186     0.143399     0.368910

         1.2          2.2          3.2
     -0.588726     0.083545     0.613755

 HOMO      7.1    -0.429186 =     -11.6787eV
 LUMO      2.2     0.083545 =       2.2734eV
 LUMO-HOMO         0.512731 =      13.9521eV


 **********************************************************************************************************************************
 DATASETS  * FILE   NREC   LENGTH (MB)   RECORD NAMES
              1      19       35.89       500      610      700      900      950      970     1000      129      960     1100   
                                          VAR    BASINP    GEOM    SYMINP    ZMAT    AOBASIS   BASIS     P2S    ABASIS      S 
                                         1400     1410     1200     1210     1080     1600     1650     1300     1700   
                                           T        V       H0       H01     AOSYM     SMH    MOLCAS    ERIS     OPER   

              2       4        2.85       700     1000      520     2100   
                                         GEOM     BASIS   MCVARS     RHF  

 PROGRAMS   *        TOTAL        HF       INT
 CPU TIMES  *         0.98      0.27      0.60
 REAL TIME  *         1.71 SEC
 DISK USED  *        75.59 MB      
 **********************************************************************************************************************************


 PROGRAM * CCSD (Closed-shell coupled cluster)     Authors: C. Hampel, H.-J. Werner, 1991, M. Deegan, P.J. Knowles, 1992


 Convergence thresholds:  THRVAR = 1.00D-08  THRDEN = 1.00D-12

 CCSD(T)     terms to be evaluated (factor= 1.000)


 Number of core orbitals:           2 (   2   0 )
 Number of closed-shell orbitals:   6 (   5   1 )
 Number of external orbitals:      66 (  43  23 )

 Molecular orbitals read from record     2100.2  Type=RHF/CANONICAL (state 1.1)

 Number of N-1 electron functions:               6
 Number of N-2 electron functions:              21
 Number of singly external CSFs:               238
 Number of doubly external CSFs:             41002
 Total number of CSFs:                       41241

 Length of J-op  integral file:               0.00 MB
 Length of K-op  integral file:               0.25 MB
 Length of 3-ext integral record:             0.00 MB

 Memory could be reduced to 1.65 Mwords without degradation in triples

 Integral transformation finished. Total CPU:   0.04 sec, npass=  1  Memory used:   0.55 MW

 Reference energy:                   -129.82881283

 MP2 singlet pair energy:              -0.27448728
 MP2 triplet pair energy:              -0.16301354
 MP2 correlation energy:               -0.43750082
 MP2 total energy:                   -130.26631365

 SCS-MP2 correlation energy:           -0.43081539   (PS=  1.200000  PT=  0.333333)
 SCS-MP2 total energy:               -130.25962821

 ITER.      SQ.NORM     CORR.ENERGY   TOTAL ENERGY   ENERGY CHANGE        DEN1      VAR(S)    VAR(P)  DIIS     TIME  TIME/IT
   1      1.11939521    -0.44233953  -130.27115236    -0.00483871     0.01127180  0.30D-02  0.31D-02  1  1     0.10     0.06
   2      1.13044637    -0.44254132  -130.27135414    -0.00020178    -0.01247181  0.92D-04  0.52D-03  2  2     0.15     0.06
   3      1.13690705    -0.44294120  -130.27175402    -0.00039988    -0.00303952  0.49D-04  0.53D-04  3  3     0.21     0.06
   4      1.13980622    -0.44296796  -130.27178079    -0.00002676    -0.00098469  0.42D-05  0.92D-05  4  4     0.26     0.06
   5      1.14084794    -0.44299901  -130.27181183    -0.00003105    -0.00021594  0.14D-05  0.17D-05  5  5     0.31     0.06
   6      1.14121707    -0.44298148  -130.27179430     0.00001753    -0.00004232  0.10D-06  0.41D-06  6  6     0.37     0.06
   7      1.14130206    -0.44298356  -130.27179639    -0.00000209    -0.00000179  0.12D-07  0.89D-07  6  1     0.43     0.06
   8      1.14133286    -0.44298344  -130.27179627     0.00000012     0.00000188  0.43D-08  0.11D-07  6  2     0.48     0.06
   9      1.14134095    -0.44298322  -130.27179605     0.00000022    -0.00000229  0.26D-08  0.13D-08  6  3     0.53     0.06
  10      1.14133971    -0.44298374  -130.27179657    -0.00000052     0.00000063  0.49D-09  0.22D-09  6  4     0.59     0.06
  11      1.14133798    -0.44298380  -130.27179663    -0.00000006     0.00000017  0.15D-09  0.24D-10  6  5     0.64     0.06
  12      1.14133656    -0.44298399  -130.27179681    -0.00000018     0.00000044  0.15D-10  0.77D-11  6  6     0.70     0.06
  13      1.14133594    -0.44298399  -130.27179682    -0.00000001     0.00000013  0.67D-11  0.13D-11  6  1     0.75     0.06
  14      1.14133554    -0.44298401  -130.27179684    -0.00000002     0.00000008  0.95D-12  0.44D-12  6  2     0.80     0.06
  15      1.14133538    -0.44298402  -130.27179684    -0.00000000     0.00000001  0.25D-12  0.14D-12  6  3     0.86     0.06
  16      1.14133527    -0.44298402  -130.27179685    -0.00000000     0.00000002  0.77D-14  0.36D-13  6  1     0.91     0.06
  17      1.14133525    -0.44298402  -130.27179685     0.00000000    -0.00000000  0.28D-14  0.24D-14  6  4     0.99     0.06
  18      1.14133524    -0.44298402  -130.27179685    -0.00000000     0.00000000  0.69D-15  0.42D-15  6  5     1.05     0.06
  19      1.14133525    -0.44298402  -130.27179685     0.00000000    -0.00000000  0.13D-15  0.80D-16  6  6     1.10     0.06
  20      1.14133524    -0.44298402  -130.27179685    -0.00000000     0.00000000  0.21D-16  0.20D-16  6  2     1.15     0.06
  21      1.14133524    -0.44298402  -130.27179685    -0.00000000     0.00000000  0.57D-18  0.14D-17  6  4     1.20     0.06
  22      1.14133524    -0.44298402  -130.27179685    -0.00000000     0.00000000  0.86D-19  0.14D-18  6  3     1.26     0.06
  23      1.14133524    -0.44298402  -130.27179685    -0.00000000     0.00000000  0.79D-20  0.15D-19  6  1     1.32     0.06
  24      1.14133524    -0.44298402  -130.27179685     0.00000000     0.00000000  0.42D-20  0.20D-20  6  6     1.37     0.06
  25      1.14133524    -0.44298402  -130.27179685     0.00000000    -0.00000000  0.26D-21  0.45D-21  6  4     1.42     0.06

 Norm of t1 vector:      0.07632210      S-energy:    -0.00000000      T1 diagnostic:  0.01557918
                                                                       D1 diagnostic:  0.04340509

 Doubles amplitudes (print threshold =  0.500E-01):

         I         J         SYM. A    SYM. B    A         B      T(IJ, AB)

         6         6         2         2         1         1     -0.14582392


 Total CPU time for triples:      0.36 sec


 RESULTS
 =======

  Reference energy                   -129.828812826615
  CCSD singlet pair energy             -0.303960257850
  CCSD triplet pair energy             -0.139023762363
  CCSD correlation energy              -0.442984020213

  Triples (T) contribution             -0.020022514090
  Total correlation energy             -0.463006534303

  CCSD total energy                  -130.271796846828
  CCSD[T] energy                     -130.292871453025
  CCSD-T energy                      -130.291412650127
 !CCSD(T) total energy               -130.291819360918

 Timing summary (sec):

 STEP                 CPU(USER)    SYS     CPU(TOT)    WALL
 Transformation          0.04      0.01      0.05      0.05
 CCSD iterations         1.40      0.14      1.54      1.55
 Triples                 0.36      0.01      0.37      0.37

 Program statistics:

 Available memory in ccsd:               994999756
 Min. memory needed in ccsd:                154850
 Max. memory used in ccsd:                  184802
 Max. memory used in cckext:                238416 (25 integral passes)



 **********************************************************************************************************************************
 DATASETS  * FILE   NREC   LENGTH (MB)   RECORD NAMES
              1      20       40.28       500      610      700      900      950      970     1000      129      960     1100   
                                          VAR    BASINP    GEOM    SYMINP    ZMAT    AOBASIS   BASIS     P2S    ABASIS      S 
                                         1400     1410     1200     1210     1080     1600     1650     1300     1700     1380   
                                           T        V       H0       H01     AOSYM     SMH    MOLCAS    ERIS     OPER     JKOP   

              2       4        2.85       700     1000      520     2100   
                                         GEOM     BASIS   MCVARS     RHF  

 PROGRAMS   *        TOTAL   CCSD(T)        HF       INT
 CPU TIMES  *         2.81      1.83      0.27      0.60
 REAL TIME  *         3.71 SEC
 DISK USED  *        75.59 MB      
 **********************************************************************************************************************************

 CCSD(T)/cc-pVTZ-DK energy=   -130.291819360918

        CCSD(T)         HF-SCF  
   -130.29181936   -129.82881283
 **********************************************************************************************************************************
 Molpro calculation terminated
 Variable memory released
