
 Primary working directories    : /tmp/r2666/235086.maple
 Secondary working directories  : /tmp/r2666/235086.maple
 Wavefunction directory         : /ddn/home4/r2666/wfu/
 Main file repository           : /tmp/r2666/235086.maple/

 SHA1      : d5ffa45e93fdbca01ffc919aa182cfdae0147319
 NAME      : 2015.1.35
 ARCHNAME  : linux/x86_64
 FC        : /opt/intel/composer_xe_2015.1.133/bin/intel64/ifort
 BLASLIB   : -Wl,-_start-group /opt/intel/mkl/lib/intel64/libmkl_intel_ilp64.a /opt/intel/mkl/lib/intel64/libmkl_intel_thread.a /opt/intel/mkl/lib/intel64/libmkl_core.a -Wl,-_end-group
 id        : olemiss

 Nodes     nprocs
 cn037        1

 Using customized tuning parameters: mindgm=1; mindgv=20; mindgc=4; mindgr=1; noblas=0; minvec=7
 default implementation of scratch files=df  

 ***,hno CCSD(T)/TZ-F12 QFF
 memory, 995, m;
 gthresh,energy=1.d-12,zero=1.d-22,oneint=1.d-22,twoint=1.d-22;
 gthresh,optgrad=1.d-8,optstep=1.d-8;
 nocompress;
 geomtyp=xyz
 bohr
 geometry={
 3
         71        71
 N        0.0000000000       -0.1541076093       -1.1387429186
 H        0.0000000000        1.6665123497       -1.9373110021
 O        0.0000000000        0.0293630496        1.1254643297
 }
 
 basis=vtz-dk
 dkroll=0
   {hf,maxit=500;accu,20;}
 {ccsd(t),nocheck,maxit=250;orbital,IGNORE_ERROR;}

 Variables initialized (889), CPU time= 0.00 sec
 Commands  initialized (702), CPU time= 0.01 sec, 572 directives.
 Default parameters read. Elapsed time= 0.04 sec

 Checking input...
 Passed
1


                                         ***  PROGRAM SYSTEM MOLPRO  ***
                                       Copyright, TTI GmbH Stuttgart, 2015
                                    Version 2015.1 linked Jul  9 2018 13:16:40


 **********************************************************************************************************************************
 LABEL *   hno CCSD(T)/TZ-F12 QFF                                                        
  64 bit serial version                                                                  DATE: 08-Feb-20          TIME: 17:57:06  
 **********************************************************************************************************************************

 SHA1:             d5ffa45e93fdbca01ffc919aa182cfdae0147319
 **********************************************************************************************************************************

 THRESHOLDS:

 ZERO    =  1.00D-22  ONEINT  =  1.00D-22  TWOINT  =  1.00D-22  PREFAC  =  1.00D-14  LOCALI  =  1.00D-09  EORDER  =  1.00D-04
 ENERGY  =  1.00D-12  ETEST   =  0.00D+00  EDENS   =  0.00D+00  THRDEDEF=  1.00D-06  GRADIENT=  1.00D-02  STEP    =  1.00D-03
 ORBITAL =  1.00D-05  CIVEC   =  1.00D-05  COEFF   =  1.00D-04  PRINTCI =  5.00D-02  PUNCHCI =  9.90D+01  OPTGRAD =  3.00D-04
 OPTENERG=  1.00D-06  OPTSTEP =  3.00D-04  THRGRAD =  1.00D-10  COMPRESS=  1.00D-11  VARMIN  =  1.00D-07  VARMAX  =  1.00D-03
 THRDOUB =  0.00D+00  THRDIV  =  1.00D-05  THRRED  =  1.00D-07  THRPSP  =  1.00D+00  THRDC   =  1.00D-10  THRCS   =  1.00D-10
 THRNRM  =  1.00D-08  THREQ   =  0.00D+00  THRDE   =  1.00D+00  THRREF  =  1.00D-05  SPARFAC =  1.00D+00  THRDLP  =  1.00D-07
 THRDIA  =  1.00D-10  THRDLS  =  1.00D-07  THRGPS  =  0.00D+00  THRKEX  =  0.00D+00  THRDIS  =  2.00D-01  THRVAR  =  1.00D-10
 THRLOC  =  1.00D-06  THRGAP  =  1.00D-06  THRLOCT = -1.00D+00  THRGAPT = -1.00D+00  THRORB  =  1.00D-06  THRMLTP =  0.00D+00
 THRCPQCI=  1.00D-10  KEXTA   =  0.00D+00  THRCOARS=  0.00D+00  SYMTOL  =  1.00D-06  GRADTOL =  1.00D-06  THROVL  =  1.00D-08
 THRORTH =  1.00D-08  GRID    =  1.00D-06  GRIDMAX =  1.00D-03  DTMAX   =  0.00D+00  THROCCDE=  1.00D-01  THROCCDE=  1.00D-01



 THRESHOLDS:

 ZERO    =  1.00D-22  ONEINT  =  1.00D-22  TWOINT  =  1.00D-22  PREFAC  =  1.00D-14  LOCALI  =  1.00D-09  EORDER  =  1.00D-04
 ENERGY  =  1.00D-12  ETEST   =  0.00D+00  EDENS   =  0.00D+00  THRDEDEF=  1.00D-06  GRADIENT=  1.00D-02  STEP    =  1.00D-03
 ORBITAL =  1.00D-05  CIVEC   =  1.00D-05  COEFF   =  1.00D-04  PRINTCI =  5.00D-02  PUNCHCI =  9.90D+01  OPTGRAD =  1.00D-08
 OPTENERG=  1.00D-06  OPTSTEP =  1.00D-08  THRGRAD =  1.00D-10  COMPRESS=  1.00D-11  VARMIN  =  1.00D-07  VARMAX  =  1.00D-03
 THRDOUB =  0.00D+00  THRDIV  =  1.00D-05  THRRED  =  1.00D-07  THRPSP  =  1.00D+00  THRDC   =  1.00D-10  THRCS   =  1.00D-10
 THRNRM  =  1.00D-08  THREQ   =  0.00D+00  THRDE   =  1.00D+00  THRREF  =  1.00D-05  SPARFAC =  1.00D+00  THRDLP  =  1.00D-07
 THRDIA  =  1.00D-10  THRDLS  =  1.00D-07  THRGPS  =  0.00D+00  THRKEX  =  0.00D+00  THRDIS  =  2.00D-01  THRVAR  =  1.00D-10
 THRLOC  =  1.00D-06  THRGAP  =  1.00D-06  THRLOCT = -1.00D+00  THRGAPT = -1.00D+00  THRORB  =  1.00D-06  THRMLTP =  0.00D+00
 THRCPQCI=  1.00D-10  KEXTA   =  0.00D+00  THRCOARS=  0.00D+00  SYMTOL  =  1.00D-06  GRADTOL =  1.00D-06  THROVL  =  1.00D-08
 THRORTH =  1.00D-08  GRID    =  1.00D-06  GRIDMAX =  1.00D-03  DTMAX   =  0.00D+00  THROCCDE=  1.00D-01  THROCCDE=  1.00D-01



 Input parameters for SORTINT:

 COMPRESS =    0.000000
 C_FINAL  =    1.000000
 DEBUG    =   -1.000000
 C_SORT1  =    0.000000
 C_SEWARD =    0.000000
 THRESH   =    0.000000
 IO       =  molpro                                                          
 SPRI     =    0.000000
 SETTING GEOMTYP        =    XYZ
 ZUNIT=BOHR
 

 Variable memory set to  995000000 words,  buffer space   230000 words

 SETTING BASIS          =    VTZ-DK
 SETTING DKROLL         =     0.00000000D+00                                  


 Recomputing integrals since basis changed


 Using spherical harmonics

 Library entry N      S cc-pVTZ-DK           selected for orbital group  1
 Library entry N      P cc-pVTZ-DK           selected for orbital group  1
 Library entry N      D cc-pVTZ-DK           selected for orbital group  1
 Library entry N      F cc-pVTZ-DK           selected for orbital group  1
 Library entry H      S cc-pVTZ-DK           selected for orbital group  2
 Library entry H      P cc-pVTZ-DK           selected for orbital group  2
 Library entry H      D cc-pVTZ-DK           selected for orbital group  2
 Library entry O      S cc-pVTZ-DK           selected for orbital group  3
 Library entry O      P cc-pVTZ-DK           selected for orbital group  3
 Library entry O      D cc-pVTZ-DK           selected for orbital group  3
 Library entry O      F cc-pVTZ-DK           selected for orbital group  3


 PROGRAM * SEWARD (Integral evaluation for generally contracted gaussian basis sets)     Author: Roland Lindh, 1990

 Geometry written to block  1 of record 700


 Point group  Cs  



 ATOMIC COORDINATES

 NR  ATOM    CHARGE       X              Y              Z

   1  N       7.00    0.000000000   -0.154107609   -1.138742919
   2  H       1.00    0.000000000    1.666512350   -1.937311002
   3  O       8.00    0.000000000    0.029363050    1.125464330

 Bond lengths in Bohr (Angstrom)

 1-2  1.988056342  1-3  2.271628479
     ( 1.052034110)     ( 1.202094023)

 Bond angles

  2-1-3  109.05081738

 NUCLEAR CHARGE:                   16
 NUMBER OF PRIMITIVE AOS:         111
 NUMBER OF SYMMETRY AOS:          100
 NUMBER OF CONTRACTIONS:           74   (  50A'  +  24A"  )
 NUMBER OF CORE ORBITALS:           2   (   2A'  +   0A"  )
 NUMBER OF VALENCE ORBITALS:        9   (   7A'  +   2A"  )


 NUCLEAR REPULSION ENERGY   30.47651332

 Eigenvalues of metric

         1 0.242E-02 0.395E-02 0.407E-02 0.834E-02 0.130E-01 0.323E-01 0.423E-01 0.462E-01
         2 0.340E-01 0.464E-01 0.101E+00 0.111E+00 0.232E+00 0.342E+00 0.393E+00 0.448E+00


 Contracted 2-electron integrals neglected if value below      1.0D-22

        1874283. INTEGRALS WRITTEN OUT IN     458 BLOCKS ON RECORD 1290 OF FILE 1


 NUMBER OF SORTED TWO-ELECTRON INTEGRALS:    2006100.     BUFFER LENGTH:  32768
 NUMBER OF SEGMENTS:   1  SEGMENT LENGTH:    2006100      RECORD LENGTH: 524288

 Memory used in sort:       2.56 MW

 SORT1 READ     1874283. AND WROTE     1914195. INTEGRALS IN      6 RECORDS. CPU TIME:     0.04 SEC, REAL TIME:     0.06 SEC
 SORT2 READ     1914195. AND WROTE     2006100. INTEGRALS IN      1 RECORDS. CPU TIME:     0.06 SEC, REAL TIME:     0.06 SEC

 FILE SIZES:   FILE 1:    50.1 MBYTE,  FILE 4:    25.2 MBYTE,   TOTAL:     75.3 MBYTE

 OPERATOR DM      FOR CENTER  0  COORDINATES:    0.000000    0.000000    0.000000


 **********************************************************************************************************************************
 DATASETS  * FILE   NREC   LENGTH (MB)   RECORD NAMES
              1      19       35.89       500      610      700      900      950      970     1000      129      960     1100   
                                          VAR    BASINP    GEOM    SYMINP    ZMAT    AOBASIS   BASIS     P2S    ABASIS      S 
                                         1400     1410     1200     1210     1080     1600     1650     1300     1700   
                                           T        V       H0       H01     AOSYM     SMH    MOLCAS    ERIS     OPER   

 PROGRAMS   *        TOTAL       INT
 CPU TIMES  *         0.64      0.56
 REAL TIME  *         1.37 SEC
 DISK USED  *        75.59 MB      
 **********************************************************************************************************************************


 PROGRAM * RHF-SCF (CLOSED SHELL)       Authors: W. Meyer, H.-J. Werner


 NUMBER OF ELECTRONS:       8+    8-
 CONVERGENCE THRESHOLDS:    1.00E-10 (Density)    1.00E-13 (Energy)
 MAX. NUMBER OF ITERATIONS:      500
 INTERPOLATION TYPE:            DIIS
 INTERPOLATION STEPS:              2 (START)      1 (STEP)
 LEVEL SHIFTS:                  0.00 (CLOSED)  0.00 (OPEN) 



 Orbital guess generated from atomic densities. Full valence occupancy:    9   2

 Molecular orbital dump at record        2100.2

 Initial occupancy:   7   1

 ITERATION    DDIFF          GRAD             ENERGY        2-EL.EN.            DIPOLE MOMENTS         DIIS   ORB.
    1      0.000D+00      0.000D+00      -129.78192450    154.323510    0.00000    0.59533   -1.02165    0    start
    2      0.000D+00      0.134D-01      -129.80897313    155.489319    0.00000    0.61124   -0.23108    1    diag
    3      0.183D-01      0.101D-01      -129.83007385    155.595684    0.00000    0.56417   -0.59705    2    diag
    4      0.883D-02      0.156D-02      -129.83080520    155.332221    0.00000    0.57233   -0.53806    3    diag
    5      0.166D-02      0.511D-03      -129.83091786    155.417741    0.00000    0.57779   -0.53942    4    diag
    6      0.713D-03      0.151D-03      -129.83093631    155.403107    0.00000    0.57838   -0.53535    5    diag
    7      0.276D-03      0.753D-04      -129.83094162    155.405442    0.00000    0.57962   -0.53294    6    diag
    8      0.189D-03      0.238D-04      -129.83094210    155.404784    0.00000    0.57964   -0.53217    7    diag
    9      0.621D-04      0.433D-05      -129.83094212    155.404672    0.00000    0.57960   -0.53202    8    diag
   10      0.120D-04      0.974D-06      -129.83094212    155.404654    0.00000    0.57956   -0.53199    9    orth
   11      0.278D-05      0.191D-06      -129.83094212    155.404650    0.00000    0.57955   -0.53199    9    diag
   12      0.509D-06      0.390D-07      -129.83094212    155.404649    0.00000    0.57955   -0.53199    9    diag
   13      0.109D-06      0.958D-08      -129.83094212    155.404648    0.00000    0.57955   -0.53199    9    diag
   14      0.270D-07      0.176D-08      -129.83094212    155.404648    0.00000    0.57955   -0.53199    9    diag
   15      0.443D-08      0.458D-09      -129.83094212    155.404648    0.00000    0.57955   -0.53199    9    diag
   16      0.106D-08      0.115D-09      -129.83094212    155.404648    0.00000    0.57955   -0.53199    9    diag
   17      0.197D-09      0.329D-10      -129.83094212    155.404648    0.00000    0.57955   -0.53199    9    diag
   18      0.621D-10      0.110D-10      -129.83094212    155.404648    0.00000    0.57955   -0.53199    9    diag
   19      0.264D-10      0.244D-11      -129.83094212    155.404648    0.00000    0.57955   -0.53199    0    orth

 Final occupancy:   7   1

 !RHF STATE 1.1 Energy               -129.830942124825
 Nuclear energy                        30.47651332
 One-electron energy                 -238.00977955
 Two-electron energy                   77.70232410
 Virial quotient                       -0.99952526
 !RHF STATE 1.1 Dipole moment           0.00000000     0.57955164    -0.53198790
 Dipole moment /Debye                   0.00000000     1.47297685    -1.35208981

 Orbital energies:

         1.1          2.1          3.1          4.1          5.1          6.1          7.1          8.1          9.1
    -20.647549   -15.706602    -1.530281    -0.990124    -0.744924    -0.663811    -0.424474     0.144232     0.370836

         1.2          2.2          3.2
     -0.594801     0.088407     0.612401

 HOMO      7.1    -0.424474 =     -11.5505eV
 LUMO      2.2     0.088407 =       2.4057eV
 LUMO-HOMO         0.512881 =      13.9562eV


 **********************************************************************************************************************************
 DATASETS  * FILE   NREC   LENGTH (MB)   RECORD NAMES
              1      19       35.89       500      610      700      900      950      970     1000      129      960     1100   
                                          VAR    BASINP    GEOM    SYMINP    ZMAT    AOBASIS   BASIS     P2S    ABASIS      S 
                                         1400     1410     1200     1210     1080     1600     1650     1300     1700   
                                           T        V       H0       H01     AOSYM     SMH    MOLCAS    ERIS     OPER   

              2       4        2.85       700     1000      520     2100   
                                         GEOM     BASIS   MCVARS     RHF  

 PROGRAMS   *        TOTAL        HF       INT
 CPU TIMES  *         0.86      0.22      0.56
 REAL TIME  *         1.63 SEC
 DISK USED  *        75.59 MB      
 **********************************************************************************************************************************


 PROGRAM * CCSD (Closed-shell coupled cluster)     Authors: C. Hampel, H.-J. Werner, 1991, M. Deegan, P.J. Knowles, 1992


 Convergence thresholds:  THRVAR = 1.00D-08  THRDEN = 1.00D-12

 CCSD(T)     terms to be evaluated (factor= 1.000)


 Number of core orbitals:           2 (   2   0 )
 Number of closed-shell orbitals:   6 (   5   1 )
 Number of external orbitals:      66 (  43  23 )

 Molecular orbitals read from record     2100.2  Type=RHF/CANONICAL (state 1.1)

 Number of N-1 electron functions:               6
 Number of N-2 electron functions:              21
 Number of singly external CSFs:               238
 Number of doubly external CSFs:             41002
 Total number of CSFs:                       41241

 Length of J-op  integral file:               0.00 MB
 Length of K-op  integral file:               0.25 MB
 Length of 3-ext integral record:             0.00 MB

 Memory could be reduced to 1.65 Mwords without degradation in triples

 Integral transformation finished. Total CPU:   0.03 sec, npass=  1  Memory used:   0.55 MW

 Reference energy:                   -129.83094212

 MP2 singlet pair energy:              -0.27294590
 MP2 triplet pair energy:              -0.16201818
 MP2 correlation energy:               -0.43496408
 MP2 total energy:                   -130.26590620

 SCS-MP2 correlation energy:           -0.42834639   (PS=  1.200000  PT=  0.333333)
 SCS-MP2 total energy:               -130.25928851

 ITER.      SQ.NORM     CORR.ENERGY   TOTAL ENERGY   ENERGY CHANGE        DEN1      VAR(S)    VAR(P)  DIIS     TIME  TIME/IT
   1      1.11779966    -0.44032678  -130.27126891    -0.00536271     0.01017343  0.29D-02  0.29D-02  1  1     0.08     0.05
   2      1.12850621    -0.44062816  -130.27157028    -0.00030137    -0.01213468  0.85D-04  0.49D-03  2  2     0.13     0.05
   3      1.13467612    -0.44100687  -130.27194899    -0.00037871    -0.00293812  0.46D-04  0.50D-04  3  3     0.18     0.05
   4      1.13742067    -0.44103206  -130.27197419    -0.00002519    -0.00094122  0.39D-05  0.88D-05  4  4     0.23     0.05
   5      1.13839374    -0.44106063  -130.27200275    -0.00002857    -0.00020128  0.13D-05  0.17D-05  5  5     0.27     0.05
   6      1.13874942    -0.44104474  -130.27198686     0.00001589    -0.00004002  0.96D-07  0.42D-06  6  6     0.33     0.06
   7      1.13883696    -0.44104665  -130.27198877    -0.00000191    -0.00000243  0.12D-07  0.87D-07  6  1     0.36     0.06
   8      1.13886768    -0.44104675  -130.27198887    -0.00000010     0.00000190  0.45D-08  0.10D-07  6  2     0.41     0.05
   9      1.13887544    -0.44104654  -130.27198866     0.00000021    -0.00000226  0.26D-08  0.11D-08  6  3     0.46     0.05
  10      1.13887419    -0.44104705  -130.27198917    -0.00000051     0.00000060  0.50D-09  0.20D-09  6  4     0.51     0.05
  11      1.13887243    -0.44104710  -130.27198923    -0.00000006     0.00000020  0.15D-09  0.23D-10  6  5     0.56     0.05
  12      1.13887103    -0.44104728  -130.27198940    -0.00000018     0.00000043  0.16D-10  0.77D-11  6  6     0.60     0.05
  13      1.13887041    -0.44104729  -130.27198941    -0.00000001     0.00000012  0.68D-11  0.12D-11  6  1     0.64     0.05
  14      1.13887002    -0.44104731  -130.27198943    -0.00000002     0.00000008  0.94D-12  0.43D-12  6  2     0.69     0.05
  15      1.13886989    -0.44104731  -130.27198943    -0.00000000     0.00000001  0.24D-12  0.14D-12  6  3     0.74     0.05
  16      1.13886979    -0.44104731  -130.27198943    -0.00000000     0.00000001  0.26D-13  0.16D-13  6  5     0.78     0.05
  17      1.13886976    -0.44104731  -130.27198944    -0.00000000     0.00000000  0.83D-15  0.23D-14  6  4     0.83     0.05
  18      1.13886976    -0.44104731  -130.27198944     0.00000000    -0.00000000  0.52D-15  0.33D-15  6  1     0.88     0.05
  19      1.13886975    -0.44104731  -130.27198944    -0.00000000     0.00000000  0.48D-16  0.59D-16  6  6     0.93     0.05
  20      1.13886975    -0.44104731  -130.27198944    -0.00000000     0.00000000  0.10D-16  0.14D-16  6  2     0.98     0.05
  21      1.13886975    -0.44104731  -130.27198944    -0.00000000     0.00000000  0.19D-17  0.11D-17  6  5     1.04     0.05
  22      1.13886975    -0.44104731  -130.27198944     0.00000000     0.00000000  0.11D-18  0.80D-19  6  3     1.07     0.05
  23      1.13886975    -0.44104731  -130.27198944     0.00000000    -0.00000000  0.31D-19  0.17D-19  6  4     1.12     0.05
  24      1.13886975    -0.44104731  -130.27198944     0.00000000    -0.00000000  0.46D-20  0.48D-20  6  1     1.17     0.05
  25      1.13886975    -0.44104731  -130.27198944     0.00000000    -0.00000000  0.53D-21  0.84D-21  6  6     1.22     0.05

 Norm of t1 vector:      0.07435442      S-energy:     0.00000000      T1 diagnostic:  0.01517753
                                                                       D1 diagnostic:  0.04176412

 Doubles amplitudes (print threshold =  0.500E-01):

         I         J         SYM. A    SYM. B    A         B      T(IJ, AB)

         6         6         2         2         1         1     -0.14215516


 Total CPU time for triples:      0.37 sec


 RESULTS
 =======

  Reference energy                   -129.830942124825
  CCSD singlet pair energy             -0.302273762917
  CCSD triplet pair energy             -0.138773548038
  CCSD correlation energy              -0.441047310953

  Triples (T) contribution             -0.019598096802
  Total correlation energy             -0.460645407756

  CCSD total energy                  -130.271989435779
  CCSD[T] energy                     -130.292584802024
  CCSD-T energy                      -130.291195060186
 !CCSD(T) total energy               -130.291587532581

 Timing summary (sec):

 STEP                 CPU(USER)    SYS     CPU(TOT)    WALL
 Transformation          0.03      0.02      0.05      0.07
 CCSD iterations         1.19      0.16      1.35      1.36
 Triples                 0.37      0.01      0.38      0.37

 Program statistics:

 Available memory in ccsd:               994999756
 Min. memory needed in ccsd:                154850
 Max. memory used in ccsd:                  184802
 Max. memory used in cckext:                238416 (25 integral passes)



 **********************************************************************************************************************************
 DATASETS  * FILE   NREC   LENGTH (MB)   RECORD NAMES
              1      20       40.28       500      610      700      900      950      970     1000      129      960     1100   
                                          VAR    BASINP    GEOM    SYMINP    ZMAT    AOBASIS   BASIS     P2S    ABASIS      S 
                                         1400     1410     1200     1210     1080     1600     1650     1300     1700     1380   
                                           T        V       H0       H01     AOSYM     SMH    MOLCAS    ERIS     OPER     JKOP   

              2       4        2.85       700     1000      520     2100   
                                         GEOM     BASIS   MCVARS     RHF  

 PROGRAMS   *        TOTAL   CCSD(T)        HF       INT
 CPU TIMES  *         2.47      1.61      0.22      0.56
 REAL TIME  *         3.50 SEC
 DISK USED  *        75.59 MB      
 **********************************************************************************************************************************

 CCSD(T)/cc-pVTZ-DK energy=   -130.291587532581

        CCSD(T)         HF-SCF  
   -130.29158753   -129.83094212
 **********************************************************************************************************************************
 Molpro calculation terminated
 Variable memory released
