
 Primary working directories    : /tmp/r2666/235044.maple
 Secondary working directories  : /tmp/r2666/235044.maple
 Wavefunction directory         : /ddn/home4/r2666/wfu/
 Main file repository           : /tmp/r2666/235044.maple/

 SHA1      : d5ffa45e93fdbca01ffc919aa182cfdae0147319
 NAME      : 2015.1.35
 ARCHNAME  : linux/x86_64
 FC        : /opt/intel/composer_xe_2015.1.133/bin/intel64/ifort
 BLASLIB   : -Wl,-_start-group /opt/intel/mkl/lib/intel64/libmkl_intel_ilp64.a /opt/intel/mkl/lib/intel64/libmkl_intel_thread.a /opt/intel/mkl/lib/intel64/libmkl_core.a -Wl,-_end-group
 id        : olemiss

 Nodes     nprocs
 cn095        1

 Using customized tuning parameters: mindgm=1; mindgv=20; mindgc=4; mindgr=1; noblas=0; minvec=7
 default implementation of scratch files=df  

 ***,hno CCSD(T)/TZ-F12 QFF
 memory, 995, m;
 gthresh,energy=1.d-12,zero=1.d-22,oneint=1.d-22,twoint=1.d-22;
 gthresh,optgrad=1.d-8,optstep=1.d-8;
 nocompress;
 geomtyp=xyz
 bohr
 geometry={
 3
         29        29
 N        0.0000000000       -0.1628082587       -1.1584607516
 H        0.0000000000        1.6629802129       -1.9209467746
 O        0.0000000000        0.0415958358        1.1288179351
 }
 
 basis=vtz-dk
 dkroll=0
   {hf,maxit=500;accu,20;}
 {ccsd(t),nocheck,maxit=250;orbital,IGNORE_ERROR;}

 Variables initialized (889), CPU time= 0.01 sec
 Commands  initialized (702), CPU time= 0.01 sec, 572 directives.
 Default parameters read. Elapsed time= 0.05 sec

 Checking input...
 Passed
1


                                         ***  PROGRAM SYSTEM MOLPRO  ***
                                       Copyright, TTI GmbH Stuttgart, 2015
                                    Version 2015.1 linked Jul  9 2018 13:16:40


 **********************************************************************************************************************************
 LABEL *   hno CCSD(T)/TZ-F12 QFF                                                        
  64 bit serial version                                                                  DATE: 08-Feb-20          TIME: 17:57:01  
 **********************************************************************************************************************************

 SHA1:             d5ffa45e93fdbca01ffc919aa182cfdae0147319
 **********************************************************************************************************************************

 THRESHOLDS:

 ZERO    =  1.00D-22  ONEINT  =  1.00D-22  TWOINT  =  1.00D-22  PREFAC  =  1.00D-14  LOCALI  =  1.00D-09  EORDER  =  1.00D-04
 ENERGY  =  1.00D-12  ETEST   =  0.00D+00  EDENS   =  0.00D+00  THRDEDEF=  1.00D-06  GRADIENT=  1.00D-02  STEP    =  1.00D-03
 ORBITAL =  1.00D-05  CIVEC   =  1.00D-05  COEFF   =  1.00D-04  PRINTCI =  5.00D-02  PUNCHCI =  9.90D+01  OPTGRAD =  3.00D-04
 OPTENERG=  1.00D-06  OPTSTEP =  3.00D-04  THRGRAD =  1.00D-10  COMPRESS=  1.00D-11  VARMIN  =  1.00D-07  VARMAX  =  1.00D-03
 THRDOUB =  0.00D+00  THRDIV  =  1.00D-05  THRRED  =  1.00D-07  THRPSP  =  1.00D+00  THRDC   =  1.00D-10  THRCS   =  1.00D-10
 THRNRM  =  1.00D-08  THREQ   =  0.00D+00  THRDE   =  1.00D+00  THRREF  =  1.00D-05  SPARFAC =  1.00D+00  THRDLP  =  1.00D-07
 THRDIA  =  1.00D-10  THRDLS  =  1.00D-07  THRGPS  =  0.00D+00  THRKEX  =  0.00D+00  THRDIS  =  2.00D-01  THRVAR  =  1.00D-10
 THRLOC  =  1.00D-06  THRGAP  =  1.00D-06  THRLOCT = -1.00D+00  THRGAPT = -1.00D+00  THRORB  =  1.00D-06  THRMLTP =  0.00D+00
 THRCPQCI=  1.00D-10  KEXTA   =  0.00D+00  THRCOARS=  0.00D+00  SYMTOL  =  1.00D-06  GRADTOL =  1.00D-06  THROVL  =  1.00D-08
 THRORTH =  1.00D-08  GRID    =  1.00D-06  GRIDMAX =  1.00D-03  DTMAX   =  0.00D+00  THROCCDE=  1.00D-01  THROCCDE=  1.00D-01



 THRESHOLDS:

 ZERO    =  1.00D-22  ONEINT  =  1.00D-22  TWOINT  =  1.00D-22  PREFAC  =  1.00D-14  LOCALI  =  1.00D-09  EORDER  =  1.00D-04
 ENERGY  =  1.00D-12  ETEST   =  0.00D+00  EDENS   =  0.00D+00  THRDEDEF=  1.00D-06  GRADIENT=  1.00D-02  STEP    =  1.00D-03
 ORBITAL =  1.00D-05  CIVEC   =  1.00D-05  COEFF   =  1.00D-04  PRINTCI =  5.00D-02  PUNCHCI =  9.90D+01  OPTGRAD =  1.00D-08
 OPTENERG=  1.00D-06  OPTSTEP =  1.00D-08  THRGRAD =  1.00D-10  COMPRESS=  1.00D-11  VARMIN  =  1.00D-07  VARMAX  =  1.00D-03
 THRDOUB =  0.00D+00  THRDIV  =  1.00D-05  THRRED  =  1.00D-07  THRPSP  =  1.00D+00  THRDC   =  1.00D-10  THRCS   =  1.00D-10
 THRNRM  =  1.00D-08  THREQ   =  0.00D+00  THRDE   =  1.00D+00  THRREF  =  1.00D-05  SPARFAC =  1.00D+00  THRDLP  =  1.00D-07
 THRDIA  =  1.00D-10  THRDLS  =  1.00D-07  THRGPS  =  0.00D+00  THRKEX  =  0.00D+00  THRDIS  =  2.00D-01  THRVAR  =  1.00D-10
 THRLOC  =  1.00D-06  THRGAP  =  1.00D-06  THRLOCT = -1.00D+00  THRGAPT = -1.00D+00  THRORB  =  1.00D-06  THRMLTP =  0.00D+00
 THRCPQCI=  1.00D-10  KEXTA   =  0.00D+00  THRCOARS=  0.00D+00  SYMTOL  =  1.00D-06  GRADTOL =  1.00D-06  THROVL  =  1.00D-08
 THRORTH =  1.00D-08  GRID    =  1.00D-06  GRIDMAX =  1.00D-03  DTMAX   =  0.00D+00  THROCCDE=  1.00D-01  THROCCDE=  1.00D-01



 Input parameters for SORTINT:

 COMPRESS =    0.000000
 C_FINAL  =    1.000000
 DEBUG    =   -1.000000
 C_SORT1  =    0.000000
 C_SEWARD =    0.000000
 THRESH   =    0.000000
 IO       =  molpro                                                          
 SPRI     =    0.000000
 SETTING GEOMTYP        =    XYZ
 ZUNIT=BOHR
 

 Variable memory set to  995000000 words,  buffer space   230000 words

 SETTING BASIS          =    VTZ-DK
 SETTING DKROLL         =     0.00000000D+00                                  


 Recomputing integrals since basis changed


 Using spherical harmonics

 Library entry N      S cc-pVTZ-DK           selected for orbital group  1
 Library entry N      P cc-pVTZ-DK           selected for orbital group  1
 Library entry N      D cc-pVTZ-DK           selected for orbital group  1
 Library entry N      F cc-pVTZ-DK           selected for orbital group  1
 Library entry H      S cc-pVTZ-DK           selected for orbital group  2
 Library entry H      P cc-pVTZ-DK           selected for orbital group  2
 Library entry H      D cc-pVTZ-DK           selected for orbital group  2
 Library entry O      S cc-pVTZ-DK           selected for orbital group  3
 Library entry O      P cc-pVTZ-DK           selected for orbital group  3
 Library entry O      D cc-pVTZ-DK           selected for orbital group  3
 Library entry O      F cc-pVTZ-DK           selected for orbital group  3


 PROGRAM * SEWARD (Integral evaluation for generally contracted gaussian basis sets)     Author: Roland Lindh, 1990

 Geometry written to block  1 of record 700


 Point group  Cs  



 ATOMIC COORDINATES

 NR  ATOM    CHARGE       X              Y              Z

   1  N       7.00    0.000000000   -0.162808259   -1.158460752
   2  H       1.00    0.000000000    1.662980213   -1.920946775
   3  O       8.00    0.000000000    0.041595836    1.128817935

 Bond lengths in Bohr (Angstrom)

 1-2  1.978607712  1-3  2.296393874
     ( 1.047034111)     ( 1.215199305)

 Bond angles

  2-1-3  107.55968976

 NUCLEAR CHARGE:                   16
 NUMBER OF PRIMITIVE AOS:         111
 NUMBER OF SYMMETRY AOS:          100
 NUMBER OF CONTRACTIONS:           74   (  50A'  +  24A"  )
 NUMBER OF CORE ORBITALS:           2   (   2A'  +   0A"  )
 NUMBER OF VALENCE ORBITALS:        9   (   7A'  +   2A"  )


 NUCLEAR REPULSION ENERGY   30.24007288

 Eigenvalues of metric

         1 0.246E-02 0.397E-02 0.427E-02 0.829E-02 0.129E-01 0.331E-01 0.429E-01 0.465E-01
         2 0.345E-01 0.466E-01 0.102E+00 0.112E+00 0.236E+00 0.340E+00 0.397E+00 0.451E+00


 Contracted 2-electron integrals neglected if value below      1.0D-22

        1874283. INTEGRALS WRITTEN OUT IN     458 BLOCKS ON RECORD 1290 OF FILE 1


 NUMBER OF SORTED TWO-ELECTRON INTEGRALS:    2006100.     BUFFER LENGTH:  32768
 NUMBER OF SEGMENTS:   1  SEGMENT LENGTH:    2006100      RECORD LENGTH: 524288

 Memory used in sort:       2.56 MW

 SORT1 READ     1874283. AND WROTE     1914195. INTEGRALS IN      6 RECORDS. CPU TIME:     0.03 SEC, REAL TIME:     0.05 SEC
 SORT2 READ     1914195. AND WROTE     2006100. INTEGRALS IN      1 RECORDS. CPU TIME:     0.05 SEC, REAL TIME:     0.06 SEC

 FILE SIZES:   FILE 1:    50.1 MBYTE,  FILE 4:    25.2 MBYTE,   TOTAL:     75.3 MBYTE

 OPERATOR DM      FOR CENTER  0  COORDINATES:    0.000000    0.000000    0.000000


 **********************************************************************************************************************************
 DATASETS  * FILE   NREC   LENGTH (MB)   RECORD NAMES
              1      19       35.89       500      610      700      900      950      970     1000      129      960     1100   
                                          VAR    BASINP    GEOM    SYMINP    ZMAT    AOBASIS   BASIS     P2S    ABASIS      S 
                                         1400     1410     1200     1210     1080     1600     1650     1300     1700   
                                           T        V       H0       H01     AOSYM     SMH    MOLCAS    ERIS     OPER   

 PROGRAMS   *        TOTAL       INT
 CPU TIMES  *         0.70      0.59
 REAL TIME  *         1.33 SEC
 DISK USED  *        75.59 MB      
 **********************************************************************************************************************************


 PROGRAM * RHF-SCF (CLOSED SHELL)       Authors: W. Meyer, H.-J. Werner


 NUMBER OF ELECTRONS:       8+    8-
 CONVERGENCE THRESHOLDS:    1.00E-10 (Density)    1.00E-13 (Energy)
 MAX. NUMBER OF ITERATIONS:      500
 INTERPOLATION TYPE:            DIIS
 INTERPOLATION STEPS:              2 (START)      1 (STEP)
 LEVEL SHIFTS:                  0.00 (CLOSED)  0.00 (OPEN) 



 Orbital guess generated from atomic densities. Full valence occupancy:    9   2

 Molecular orbital dump at record        2100.2

 Initial occupancy:   7   1

 ITERATION    DDIFF          GRAD             ENERGY        2-EL.EN.            DIPOLE MOMENTS         DIIS   ORB.
    1      0.000D+00      0.000D+00      -129.77848848    153.908081    0.00000    0.59121   -1.05889    0    start
    2      0.000D+00      0.136D-01      -129.80518774    155.038809    0.00000    0.62118   -0.21967    1    diag
    3      0.188D-01      0.106D-01      -129.82834847    155.174574    0.00000    0.56663   -0.61008    2    diag
    4      0.916D-02      0.157D-02      -129.82909986    154.903376    0.00000    0.57531   -0.54935    3    diag
    5      0.168D-02      0.521D-03      -129.82921676    154.989187    0.00000    0.58061   -0.55031    4    diag
    6      0.726D-03      0.155D-03      -129.82923603    154.974371    0.00000    0.58111   -0.54601    5    diag
    7      0.281D-03      0.781D-04      -129.82924182    154.976538    0.00000    0.58230   -0.54339    6    diag
    8      0.195D-03      0.256D-04      -129.82924241    154.975814    0.00000    0.58230   -0.54253    7    diag
    9      0.688D-04      0.466D-05      -129.82924243    154.975692    0.00000    0.58225   -0.54236    8    diag
   10      0.134D-04      0.100D-05      -129.82924243    154.975675    0.00000    0.58222   -0.54234    9    orth
   11      0.285D-05      0.197D-06      -129.82924243    154.975671    0.00000    0.58221   -0.54234    9    diag
   12      0.513D-06      0.419D-07      -129.82924243    154.975670    0.00000    0.58221   -0.54233    9    diag
   13      0.113D-06      0.106D-07      -129.82924243    154.975670    0.00000    0.58221   -0.54233    9    diag
   14      0.284D-07      0.190D-08      -129.82924243    154.975670    0.00000    0.58221   -0.54233    9    diag
   15      0.428D-08      0.481D-09      -129.82924243    154.975670    0.00000    0.58221   -0.54233    9    diag
   16      0.105D-08      0.115D-09      -129.82924243    154.975670    0.00000    0.58221   -0.54233    9    diag
   17      0.166D-09      0.315D-10      -129.82924243    154.975670    0.00000    0.58221   -0.54233    9    diag
   18      0.480D-10      0.104D-10      -129.82924243    154.975670    0.00000    0.58221   -0.54233    0    orth

 Final occupancy:   7   1

 !RHF STATE 1.1 Energy               -129.829242434887
 Nuclear energy                        30.24007288
 One-electron energy                 -237.55715022
 Two-electron energy                   77.48783491
 Virial quotient                       -0.99980147
 !RHF STATE 1.1 Dipole moment           0.00000000     0.58221136    -0.54233424
 Dipole moment /Debye                   0.00000000     1.47973675    -1.37838585

 Orbital energies:

         1.1          2.1          3.1          4.1          5.1          6.1          7.1          8.1          9.1
    -20.648346   -15.708503    -1.520435    -0.993562    -0.741567    -0.659784    -0.429788     0.144116     0.368905

         1.2          2.2          3.2
     -0.588756     0.083684     0.613740

 HOMO      7.1    -0.429788 =     -11.6951eV
 LUMO      2.2     0.083684 =       2.2772eV
 LUMO-HOMO         0.513472 =      13.9723eV


 **********************************************************************************************************************************
 DATASETS  * FILE   NREC   LENGTH (MB)   RECORD NAMES
              1      19       35.89       500      610      700      900      950      970     1000      129      960     1100   
                                          VAR    BASINP    GEOM    SYMINP    ZMAT    AOBASIS   BASIS     P2S    ABASIS      S 
                                         1400     1410     1200     1210     1080     1600     1650     1300     1700   
                                           T        V       H0       H01     AOSYM     SMH    MOLCAS    ERIS     OPER   

              2       4        2.85       700     1000      520     2100   
                                         GEOM     BASIS   MCVARS     RHF  

 PROGRAMS   *        TOTAL        HF       INT
 CPU TIMES  *         0.94      0.24      0.59
 REAL TIME  *         1.63 SEC
 DISK USED  *        75.59 MB      
 **********************************************************************************************************************************


 PROGRAM * CCSD (Closed-shell coupled cluster)     Authors: C. Hampel, H.-J. Werner, 1991, M. Deegan, P.J. Knowles, 1992


 Convergence thresholds:  THRVAR = 1.00D-08  THRDEN = 1.00D-12

 CCSD(T)     terms to be evaluated (factor= 1.000)


 Number of core orbitals:           2 (   2   0 )
 Number of closed-shell orbitals:   6 (   5   1 )
 Number of external orbitals:      66 (  43  23 )

 Molecular orbitals read from record     2100.2  Type=RHF/CANONICAL (state 1.1)

 Number of N-1 electron functions:               6
 Number of N-2 electron functions:              21
 Number of singly external CSFs:               238
 Number of doubly external CSFs:             41002
 Total number of CSFs:                       41241

 Length of J-op  integral file:               0.00 MB
 Length of K-op  integral file:               0.25 MB
 Length of 3-ext integral record:             0.00 MB

 Memory could be reduced to 1.65 Mwords without degradation in triples

 Integral transformation finished. Total CPU:   0.03 sec, npass=  1  Memory used:   0.55 MW

 Reference energy:                   -129.82924243

 MP2 singlet pair energy:              -0.27421860
 MP2 triplet pair energy:              -0.16285755
 MP2 correlation energy:               -0.43707615
 MP2 total energy:                   -130.26631859

 SCS-MP2 correlation energy:           -0.43039591   (PS=  1.200000  PT=  0.333333)
 SCS-MP2 total energy:               -130.25963834

 ITER.      SQ.NORM     CORR.ENERGY   TOTAL ENERGY   ENERGY CHANGE        DEN1      VAR(S)    VAR(P)  DIIS     TIME  TIME/IT
   1      1.11901820    -0.44194864  -130.27119108    -0.00487249     0.01113266  0.30D-02  0.31D-02  1  1     0.09     0.05
   2      1.12999146    -0.44215838  -130.27140082    -0.00020974    -0.01240794  0.91D-04  0.51D-03  2  2     0.13     0.05
   3      1.13637572    -0.44254974  -130.27179217    -0.00039135    -0.00301310  0.47D-04  0.52D-04  3  3     0.19     0.05
   4      1.13924612    -0.44257779  -130.27182022    -0.00002805    -0.00097580  0.40D-05  0.90D-05  4  4     0.24     0.05
   5      1.14026527    -0.44260794  -130.27185037    -0.00003015    -0.00021118  0.13D-05  0.17D-05  5  5     0.28     0.05
   6      1.14062665    -0.44259070  -130.27183314     0.00001724    -0.00004151  0.91D-07  0.41D-06  6  6     0.33     0.05
   7      1.14070936    -0.44259298  -130.27183541    -0.00000228    -0.00000162  0.10D-07  0.90D-07  6  1     0.37     0.05
   8      1.14073934    -0.44259287  -130.27183531     0.00000011     0.00000205  0.46D-08  0.11D-07  6  2     0.42     0.05
   9      1.14074703    -0.44259270  -130.27183514     0.00000017    -0.00000234  0.25D-08  0.12D-08  6  3     0.46     0.05
  10      1.14074573    -0.44259321  -130.27183564    -0.00000050     0.00000068  0.48D-09  0.21D-09  6  4     0.51     0.05
  11      1.14074407    -0.44259326  -130.27183570    -0.00000006     0.00000014  0.14D-09  0.22D-10  6  5     0.55     0.05
  12      1.14074271    -0.44259344  -130.27183588    -0.00000018     0.00000043  0.14D-10  0.71D-11  6  6     0.59     0.05
  13      1.14074212    -0.44259345  -130.27183588    -0.00000001     0.00000012  0.61D-11  0.12D-11  6  1     0.64     0.05
  14      1.14074175    -0.44259347  -130.27183590    -0.00000002     0.00000007  0.87D-12  0.42D-12  6  2     0.69     0.05
  15      1.14074161    -0.44259347  -130.27183591    -0.00000000     0.00000001  0.23D-12  0.13D-12  6  3     0.73     0.05
  16      1.14074150    -0.44259347  -130.27183591    -0.00000000     0.00000002  0.72D-14  0.34D-13  6  1     0.78     0.05
  17      1.14074148    -0.44259347  -130.27183591     0.00000000    -0.00000000  0.26D-14  0.23D-14  6  4     0.81     0.05
  18      1.14074147    -0.44259347  -130.27183591    -0.00000000     0.00000000  0.68D-15  0.40D-15  6  5     0.85     0.05
  19      1.14074147    -0.44259347  -130.27183591     0.00000000    -0.00000000  0.13D-15  0.73D-16  6  6     0.90     0.05
  20      1.14074147    -0.44259347  -130.27183591    -0.00000000     0.00000000  0.18D-16  0.18D-16  6  2     0.94     0.05
  21      1.14074147    -0.44259347  -130.27183591    -0.00000000     0.00000000  0.54D-18  0.13D-17  6  4     0.99     0.05
  22      1.14074147    -0.44259347  -130.27183591    -0.00000000     0.00000000  0.76D-19  0.13D-18  6  3     1.03     0.05
  23      1.14074147    -0.44259347  -130.27183591    -0.00000000     0.00000000  0.73D-20  0.14D-19  6  1     1.07     0.05
  24      1.14074147    -0.44259347  -130.27183591     0.00000000     0.00000000  0.36D-20  0.19D-20  6  6     1.11     0.05
  25      1.14074147    -0.44259347  -130.27183591     0.00000000     0.00000000  0.39D-21  0.38D-21  6  5     1.15     0.05

 Norm of t1 vector:      0.07567793      S-energy:     0.00000000      T1 diagnostic:  0.01544769
                                                                       D1 diagnostic:  0.04331170

 Doubles amplitudes (print threshold =  0.500E-01):

         I         J         SYM. A    SYM. B    A         B      T(IJ, AB)

         6         6         2         2         1         1     -0.14583933


 Total CPU time for triples:      0.29 sec


 RESULTS
 =======

  Reference energy                   -129.829242434887
  CCSD singlet pair energy             -0.303622049565
  CCSD triplet pair energy             -0.138971424630
  CCSD correlation energy              -0.442593474194

  Triples (T) contribution             -0.019947283983
  Total correlation energy             -0.462540758177

  CCSD total energy                  -130.271835909081
  CCSD[T] energy                     -130.292821812439
  CCSD-T energy                      -130.291381212773
 !CCSD(T) total energy               -130.291783193064

 Timing summary (sec):

 STEP                 CPU(USER)    SYS     CPU(TOT)    WALL
 Transformation          0.03      0.01      0.04      0.05
 CCSD iterations         1.12      0.21      1.33      1.32
 Triples                 0.29      0.00      0.29      0.30

 Program statistics:

 Available memory in ccsd:               994999756
 Min. memory needed in ccsd:                154850
 Max. memory used in ccsd:                  184802
 Max. memory used in cckext:                238416 (25 integral passes)



 **********************************************************************************************************************************
 DATASETS  * FILE   NREC   LENGTH (MB)   RECORD NAMES
              1      20       40.28       500      610      700      900      950      970     1000      129      960     1100   
                                          VAR    BASINP    GEOM    SYMINP    ZMAT    AOBASIS   BASIS     P2S    ABASIS      S 
                                         1400     1410     1200     1210     1080     1600     1650     1300     1700     1380   
                                           T        V       H0       H01     AOSYM     SMH    MOLCAS    ERIS     OPER     JKOP   

              2       4        2.85       700     1000      520     2100   
                                         GEOM     BASIS   MCVARS     RHF  

 PROGRAMS   *        TOTAL   CCSD(T)        HF       INT
 CPU TIMES  *         2.41      1.47      0.24      0.59
 REAL TIME  *         3.34 SEC
 DISK USED  *        75.59 MB      
 **********************************************************************************************************************************

 CCSD(T)/cc-pVTZ-DK energy=   -130.291783193064

        CCSD(T)         HF-SCF  
   -130.29178319   -129.82924243
 **********************************************************************************************************************************
 Molpro calculation terminated
 Variable memory released
