
 Primary working directories    : /tmp/r2666/235030.maple
 Secondary working directories  : /tmp/r2666/235030.maple
 Wavefunction directory         : /ddn/home4/r2666/wfu/
 Main file repository           : /tmp/r2666/235030.maple/

 SHA1      : d5ffa45e93fdbca01ffc919aa182cfdae0147319
 NAME      : 2015.1.35
 ARCHNAME  : linux/x86_64
 FC        : /opt/intel/composer_xe_2015.1.133/bin/intel64/ifort
 BLASLIB   : -Wl,-_start-group /opt/intel/mkl/lib/intel64/libmkl_intel_ilp64.a /opt/intel/mkl/lib/intel64/libmkl_intel_thread.a /opt/intel/mkl/lib/intel64/libmkl_core.a -Wl,-_end-group
 id        : olemiss

 Nodes     nprocs
 cn037        1

 Using customized tuning parameters: mindgm=1; mindgv=20; mindgc=4; mindgr=1; noblas=0; minvec=7
 default implementation of scratch files=df  

 ***,hno CCSD(T)/TZ-F12 QFF
 memory, 995, m;
 gthresh,energy=1.d-12,zero=1.d-22,oneint=1.d-22,twoint=1.d-22;
 gthresh,optgrad=1.d-8,optstep=1.d-8;
 nocompress;
 geomtyp=xyz
 bohr
 geometry={
 3
         15        15
 N        0.0000000000       -0.1534371825       -1.1570074303
 H        0.0000000000        1.6591112312       -1.9265889652
 O        0.0000000000        0.0360937414        1.1330068045
 }
 
 basis=vtz-dk
 dkroll=0
   {hf,maxit=500;accu,20;}
 {ccsd(t),nocheck,maxit=250;orbital,IGNORE_ERROR;}

 Variables initialized (889), CPU time= 0.00 sec
 Commands  initialized (702), CPU time= 0.00 sec, 572 directives.
 Default parameters read. Elapsed time= 0.04 sec

 Checking input...
 Passed
1


                                         ***  PROGRAM SYSTEM MOLPRO  ***
                                       Copyright, TTI GmbH Stuttgart, 2015
                                    Version 2015.1 linked Jul  9 2018 13:16:40


 **********************************************************************************************************************************
 LABEL *   hno CCSD(T)/TZ-F12 QFF                                                        
  64 bit serial version                                                                  DATE: 08-Feb-20          TIME: 17:56:57  
 **********************************************************************************************************************************

 SHA1:             d5ffa45e93fdbca01ffc919aa182cfdae0147319
 **********************************************************************************************************************************

 THRESHOLDS:

 ZERO    =  1.00D-22  ONEINT  =  1.00D-22  TWOINT  =  1.00D-22  PREFAC  =  1.00D-14  LOCALI  =  1.00D-09  EORDER  =  1.00D-04
 ENERGY  =  1.00D-12  ETEST   =  0.00D+00  EDENS   =  0.00D+00  THRDEDEF=  1.00D-06  GRADIENT=  1.00D-02  STEP    =  1.00D-03
 ORBITAL =  1.00D-05  CIVEC   =  1.00D-05  COEFF   =  1.00D-04  PRINTCI =  5.00D-02  PUNCHCI =  9.90D+01  OPTGRAD =  3.00D-04
 OPTENERG=  1.00D-06  OPTSTEP =  3.00D-04  THRGRAD =  1.00D-10  COMPRESS=  1.00D-11  VARMIN  =  1.00D-07  VARMAX  =  1.00D-03
 THRDOUB =  0.00D+00  THRDIV  =  1.00D-05  THRRED  =  1.00D-07  THRPSP  =  1.00D+00  THRDC   =  1.00D-10  THRCS   =  1.00D-10
 THRNRM  =  1.00D-08  THREQ   =  0.00D+00  THRDE   =  1.00D+00  THRREF  =  1.00D-05  SPARFAC =  1.00D+00  THRDLP  =  1.00D-07
 THRDIA  =  1.00D-10  THRDLS  =  1.00D-07  THRGPS  =  0.00D+00  THRKEX  =  0.00D+00  THRDIS  =  2.00D-01  THRVAR  =  1.00D-10
 THRLOC  =  1.00D-06  THRGAP  =  1.00D-06  THRLOCT = -1.00D+00  THRGAPT = -1.00D+00  THRORB  =  1.00D-06  THRMLTP =  0.00D+00
 THRCPQCI=  1.00D-10  KEXTA   =  0.00D+00  THRCOARS=  0.00D+00  SYMTOL  =  1.00D-06  GRADTOL =  1.00D-06  THROVL  =  1.00D-08
 THRORTH =  1.00D-08  GRID    =  1.00D-06  GRIDMAX =  1.00D-03  DTMAX   =  0.00D+00  THROCCDE=  1.00D-01  THROCCDE=  1.00D-01



 THRESHOLDS:

 ZERO    =  1.00D-22  ONEINT  =  1.00D-22  TWOINT  =  1.00D-22  PREFAC  =  1.00D-14  LOCALI  =  1.00D-09  EORDER  =  1.00D-04
 ENERGY  =  1.00D-12  ETEST   =  0.00D+00  EDENS   =  0.00D+00  THRDEDEF=  1.00D-06  GRADIENT=  1.00D-02  STEP    =  1.00D-03
 ORBITAL =  1.00D-05  CIVEC   =  1.00D-05  COEFF   =  1.00D-04  PRINTCI =  5.00D-02  PUNCHCI =  9.90D+01  OPTGRAD =  1.00D-08
 OPTENERG=  1.00D-06  OPTSTEP =  1.00D-08  THRGRAD =  1.00D-10  COMPRESS=  1.00D-11  VARMIN  =  1.00D-07  VARMAX  =  1.00D-03
 THRDOUB =  0.00D+00  THRDIV  =  1.00D-05  THRRED  =  1.00D-07  THRPSP  =  1.00D+00  THRDC   =  1.00D-10  THRCS   =  1.00D-10
 THRNRM  =  1.00D-08  THREQ   =  0.00D+00  THRDE   =  1.00D+00  THRREF  =  1.00D-05  SPARFAC =  1.00D+00  THRDLP  =  1.00D-07
 THRDIA  =  1.00D-10  THRDLS  =  1.00D-07  THRGPS  =  0.00D+00  THRKEX  =  0.00D+00  THRDIS  =  2.00D-01  THRVAR  =  1.00D-10
 THRLOC  =  1.00D-06  THRGAP  =  1.00D-06  THRLOCT = -1.00D+00  THRGAPT = -1.00D+00  THRORB  =  1.00D-06  THRMLTP =  0.00D+00
 THRCPQCI=  1.00D-10  KEXTA   =  0.00D+00  THRCOARS=  0.00D+00  SYMTOL  =  1.00D-06  GRADTOL =  1.00D-06  THROVL  =  1.00D-08
 THRORTH =  1.00D-08  GRID    =  1.00D-06  GRIDMAX =  1.00D-03  DTMAX   =  0.00D+00  THROCCDE=  1.00D-01  THROCCDE=  1.00D-01



 Input parameters for SORTINT:

 COMPRESS =    0.000000
 C_FINAL  =    1.000000
 DEBUG    =   -1.000000
 C_SORT1  =    0.000000
 C_SEWARD =    0.000000
 THRESH   =    0.000000
 IO       =  molpro                                                          
 SPRI     =    0.000000
 SETTING GEOMTYP        =    XYZ
 ZUNIT=BOHR
 

 Variable memory set to  995000000 words,  buffer space   230000 words

 SETTING BASIS          =    VTZ-DK
 SETTING DKROLL         =     0.00000000D+00                                  


 Recomputing integrals since basis changed


 Using spherical harmonics

 Library entry N      S cc-pVTZ-DK           selected for orbital group  1
 Library entry N      P cc-pVTZ-DK           selected for orbital group  1
 Library entry N      D cc-pVTZ-DK           selected for orbital group  1
 Library entry N      F cc-pVTZ-DK           selected for orbital group  1
 Library entry H      S cc-pVTZ-DK           selected for orbital group  2
 Library entry H      P cc-pVTZ-DK           selected for orbital group  2
 Library entry H      D cc-pVTZ-DK           selected for orbital group  2
 Library entry O      S cc-pVTZ-DK           selected for orbital group  3
 Library entry O      P cc-pVTZ-DK           selected for orbital group  3
 Library entry O      D cc-pVTZ-DK           selected for orbital group  3
 Library entry O      F cc-pVTZ-DK           selected for orbital group  3


 PROGRAM * SEWARD (Integral evaluation for generally contracted gaussian basis sets)     Author: Roland Lindh, 1990

 Geometry written to block  1 of record 700


 Point group  Cs  



 ATOMIC COORDINATES

 NR  ATOM    CHARGE       X              Y              Z

   1  N       7.00    0.000000000   -0.153437182   -1.157007430
   2  H       1.00    0.000000000    1.659111231   -1.926588965
   3  O       8.00    0.000000000    0.036093741    1.133006804

 Bond lengths in Bohr (Angstrom)

 1-2  1.969159082  1-3  2.297844026
     ( 1.042034111)     ( 1.215966693)

 Bond angles

  2-1-3  108.27411753

 NUCLEAR CHARGE:                   16
 NUMBER OF PRIMITIVE AOS:         111
 NUMBER OF SYMMETRY AOS:          100
 NUMBER OF CONTRACTIONS:           74   (  50A'  +  24A"  )
 NUMBER OF CORE ORBITALS:           2   (   2A'  +   0A"  )
 NUMBER OF VALENCE ORBITALS:        9   (   7A'  +   2A"  )


 NUCLEAR REPULSION ENERGY   30.23533988

 Eigenvalues of metric

         1 0.244E-02 0.395E-02 0.427E-02 0.821E-02 0.128E-01 0.330E-01 0.429E-01 0.463E-01
         2 0.345E-01 0.465E-01 0.102E+00 0.110E+00 0.235E+00 0.338E+00 0.396E+00 0.451E+00


 Contracted 2-electron integrals neglected if value below      1.0D-22

        1874283. INTEGRALS WRITTEN OUT IN     458 BLOCKS ON RECORD 1290 OF FILE 1


 NUMBER OF SORTED TWO-ELECTRON INTEGRALS:    2006100.     BUFFER LENGTH:  32768
 NUMBER OF SEGMENTS:   1  SEGMENT LENGTH:    2006100      RECORD LENGTH: 524288

 Memory used in sort:       2.56 MW

 SORT1 READ     1874283. AND WROTE     1914195. INTEGRALS IN      6 RECORDS. CPU TIME:     0.05 SEC, REAL TIME:     0.06 SEC
 SORT2 READ     1914195. AND WROTE     2006100. INTEGRALS IN      1 RECORDS. CPU TIME:     0.05 SEC, REAL TIME:     0.06 SEC

 FILE SIZES:   FILE 1:    50.1 MBYTE,  FILE 4:    25.2 MBYTE,   TOTAL:     75.3 MBYTE

 OPERATOR DM      FOR CENTER  0  COORDINATES:    0.000000    0.000000    0.000000


 **********************************************************************************************************************************
 DATASETS  * FILE   NREC   LENGTH (MB)   RECORD NAMES
              1      19       35.89       500      610      700      900      950      970     1000      129      960     1100   
                                          VAR    BASINP    GEOM    SYMINP    ZMAT    AOBASIS   BASIS     P2S    ABASIS      S 
                                         1400     1410     1200     1210     1080     1600     1650     1300     1700   
                                           T        V       H0       H01     AOSYM     SMH    MOLCAS    ERIS     OPER   

 PROGRAMS   *        TOTAL       INT
 CPU TIMES  *         0.58      0.49
 REAL TIME  *         1.21 SEC
 DISK USED  *        75.59 MB      
 **********************************************************************************************************************************


 PROGRAM * RHF-SCF (CLOSED SHELL)       Authors: W. Meyer, H.-J. Werner


 NUMBER OF ELECTRONS:       8+    8-
 CONVERGENCE THRESHOLDS:    1.00E-10 (Density)    1.00E-13 (Energy)
 MAX. NUMBER OF ITERATIONS:      500
 INTERPOLATION TYPE:            DIIS
 INTERPOLATION STEPS:              2 (START)      1 (STEP)
 LEVEL SHIFTS:                  0.00 (CLOSED)  0.00 (OPEN) 



 Orbital guess generated from atomic densities. Full valence occupancy:    9   2

 Molecular orbital dump at record        2100.2

 Initial occupancy:   7   1

 ITERATION    DDIFF          GRAD             ENERGY        2-EL.EN.            DIPOLE MOMENTS         DIIS   ORB.
    1      0.000D+00      0.000D+00      -129.77870110    153.899786    0.00000    0.60098   -1.06192    0    start
    2      0.000D+00      0.136D-01      -129.80536689    155.026787    0.00000    0.62168   -0.22420    1    diag
    3      0.188D-01      0.105D-01      -129.82835103    155.164972    0.00000    0.57151   -0.61436    2    diag
    4      0.914D-02      0.158D-02      -129.82910470    154.893579    0.00000    0.57987   -0.55332    3    diag
    5      0.168D-02      0.520D-03      -129.82922063    154.979298    0.00000    0.58517   -0.55432    4    diag
    6      0.724D-03      0.153D-03      -129.82923965    154.964580    0.00000    0.58568   -0.55003    5    diag
    7      0.279D-03      0.777D-04      -129.82924538    154.966725    0.00000    0.58686   -0.54742    6    diag
    8      0.194D-03      0.255D-04      -129.82924597    154.966008    0.00000    0.58687   -0.54655    7    diag
    9      0.688D-04      0.465D-05      -129.82924599    154.965886    0.00000    0.58682   -0.54639    8    diag
   10      0.134D-04      0.101D-05      -129.82924599    154.965870    0.00000    0.58678   -0.54636    9    orth
   11      0.287D-05      0.196D-06      -129.82924599    154.965866    0.00000    0.58677   -0.54636    9    diag
   12      0.513D-06      0.418D-07      -129.82924599    154.965864    0.00000    0.58677   -0.54636    9    diag
   13      0.111D-06      0.106D-07      -129.82924599    154.965864    0.00000    0.58677   -0.54636    9    diag
   14      0.282D-07      0.192D-08      -129.82924599    154.965864    0.00000    0.58677   -0.54636    9    diag
   15      0.424D-08      0.490D-09      -129.82924599    154.965864    0.00000    0.58677   -0.54636    9    diag
   16      0.106D-08      0.121D-09      -129.82924599    154.965864    0.00000    0.58677   -0.54636    9    diag
   17      0.173D-09      0.339D-10      -129.82924599    154.965864    0.00000    0.58677   -0.54636    9    diag
   18      0.526D-10      0.116D-10      -129.82924599    154.965864    0.00000    0.58677   -0.54636    0    orth

 Final occupancy:   7   1

 !RHF STATE 1.1 Energy               -129.829245993349
 Nuclear energy                        30.23533988
 One-electron energy                 -237.54751793
 Two-electron energy                   77.48293206
 Virial quotient                       -0.99978472
 !RHF STATE 1.1 Dipole moment           0.00000000     0.58677267    -0.54635935
 Dipole moment /Debye                   0.00000000     1.49132967    -1.38861599

 Orbital energies:

         1.1          2.1          3.1          4.1          5.1          6.1          7.1          8.1          9.1
    -20.648492   -15.707802    -1.519499    -0.995465    -0.741841    -0.659683    -0.429820     0.144231     0.368834

         1.2          2.2          3.2
     -0.588224     0.083332     0.613886

 HOMO      7.1    -0.429820 =     -11.6960eV
 LUMO      2.2     0.083332 =       2.2676eV
 LUMO-HOMO         0.513152 =      13.9636eV


 **********************************************************************************************************************************
 DATASETS  * FILE   NREC   LENGTH (MB)   RECORD NAMES
              1      19       35.89       500      610      700      900      950      970     1000      129      960     1100   
                                          VAR    BASINP    GEOM    SYMINP    ZMAT    AOBASIS   BASIS     P2S    ABASIS      S 
                                         1400     1410     1200     1210     1080     1600     1650     1300     1700   
                                           T        V       H0       H01     AOSYM     SMH    MOLCAS    ERIS     OPER   

              2       4        2.85       700     1000      520     2100   
                                         GEOM     BASIS   MCVARS     RHF  

 PROGRAMS   *        TOTAL        HF       INT
 CPU TIMES  *         0.76      0.19      0.49
 REAL TIME  *         1.65 SEC
 DISK USED  *        75.59 MB      
 **********************************************************************************************************************************


 PROGRAM * CCSD (Closed-shell coupled cluster)     Authors: C. Hampel, H.-J. Werner, 1991, M. Deegan, P.J. Knowles, 1992


 Convergence thresholds:  THRVAR = 1.00D-08  THRDEN = 1.00D-12

 CCSD(T)     terms to be evaluated (factor= 1.000)


 Number of core orbitals:           2 (   2   0 )
 Number of closed-shell orbitals:   6 (   5   1 )
 Number of external orbitals:      66 (  43  23 )

 Molecular orbitals read from record     2100.2  Type=RHF/CANONICAL (state 1.1)

 Number of N-1 electron functions:               6
 Number of N-2 electron functions:              21
 Number of singly external CSFs:               238
 Number of doubly external CSFs:             41002
 Total number of CSFs:                       41241

 Length of J-op  integral file:               0.00 MB
 Length of K-op  integral file:               0.25 MB
 Length of 3-ext integral record:             0.00 MB

 Memory could be reduced to 1.65 Mwords without degradation in triples

 Integral transformation finished. Total CPU:   0.05 sec, npass=  1  Memory used:   0.55 MW

 Reference energy:                   -129.82924599

 MP2 singlet pair energy:              -0.27418230
 MP2 triplet pair energy:              -0.16284295
 MP2 correlation energy:               -0.43702526
 MP2 total energy:                   -130.26627125

 SCS-MP2 correlation energy:           -0.43034327   (PS=  1.200000  PT=  0.333333)
 SCS-MP2 total energy:               -130.25958926

 ITER.      SQ.NORM     CORR.ENERGY   TOTAL ENERGY   ENERGY CHANGE        DEN1      VAR(S)    VAR(P)  DIIS     TIME  TIME/IT
   1      1.11895449    -0.44188309  -130.27112908    -0.00485784     0.01115154  0.30D-02  0.31D-02  1  1     0.10     0.05
   2      1.12992658    -0.44208687  -130.27133286    -0.00020378    -0.01240755  0.91D-04  0.51D-03  2  2     0.15     0.05
   3      1.13631102    -0.44247785  -130.27172384    -0.00039098    -0.00300902  0.47D-04  0.52D-04  3  3     0.20     0.05
   4      1.13919079    -0.44250608  -130.27175207    -0.00002823    -0.00097717  0.40D-05  0.91D-05  4  4     0.24     0.05
   5      1.14021634    -0.44253620  -130.27178219    -0.00003012    -0.00021223  0.13D-05  0.17D-05  5  5     0.30     0.05
   6      1.14058053    -0.44251891  -130.27176490     0.00001730    -0.00004175  0.88D-07  0.42D-06  6  6     0.35     0.05
   7      1.14066400    -0.44252129  -130.27176728    -0.00000238    -0.00000162  0.10D-07  0.92D-07  6  1     0.40     0.05
   8      1.14069408    -0.44252122  -130.27176721     0.00000007     0.00000212  0.49D-08  0.11D-07  6  2     0.44     0.05
   9      1.14070186    -0.44252105  -130.27176704     0.00000017    -0.00000238  0.26D-08  0.12D-08  6  3     0.49     0.05
  10      1.14070052    -0.44252156  -130.27176756    -0.00000051     0.00000069  0.49D-09  0.21D-09  6  4     0.54     0.05
  11      1.14069884    -0.44252162  -130.27176761    -0.00000006     0.00000014  0.15D-09  0.23D-10  6  5     0.59     0.05
  12      1.14069747    -0.44252180  -130.27176779    -0.00000018     0.00000043  0.14D-10  0.72D-11  6  6     0.64     0.05
  13      1.14069688    -0.44252181  -130.27176780    -0.00000001     0.00000012  0.62D-11  0.12D-11  6  1     0.69     0.05
  14      1.14069650    -0.44252183  -130.27176782    -0.00000002     0.00000008  0.87D-12  0.43D-12  6  2     0.74     0.05
  15      1.14069635    -0.44252183  -130.27176782    -0.00000000     0.00000001  0.22D-12  0.14D-12  6  3     0.78     0.05
  16      1.14069627    -0.44252183  -130.27176783    -0.00000000     0.00000001  0.14D-13  0.53D-13  6  4     0.83     0.05
  17      1.14069623    -0.44252183  -130.27176783    -0.00000000     0.00000001  0.24D-14  0.12D-13  6  5     0.88     0.05
  18      1.14069622    -0.44252183  -130.27176783     0.00000000     0.00000000  0.17D-14  0.32D-14  6  6     0.93     0.05
  19      1.14069622    -0.44252183  -130.27176783     0.00000000    -0.00000000  0.77D-15  0.36D-15  6  1     0.98     0.05
  20      1.14069622    -0.44252183  -130.27176783     0.00000000    -0.00000000  0.63D-16  0.64D-16  6  2     1.03     0.05
  21      1.14069622    -0.44252183  -130.27176783    -0.00000000     0.00000000  0.35D-16  0.11D-16  6  3     1.07     0.05
  22      1.14069622    -0.44252183  -130.27176783    -0.00000000     0.00000000  0.61D-17  0.22D-17  6  4     1.12     0.05
  23      1.14069622    -0.44252183  -130.27176783    -0.00000000     0.00000000  0.22D-17  0.37D-18  6  5     1.17     0.05
  24      1.14069622    -0.44252183  -130.27176783    -0.00000000    -0.00000000  0.23D-18  0.10D-18  6  6     1.21     0.05
  25      1.14069622    -0.44252183  -130.27176783     0.00000000    -0.00000000  0.68D-19  0.25D-19  6  2     1.26     0.05
  26      1.14069622    -0.44252183  -130.27176783     0.00000000    -0.00000000  0.18D-20  0.21D-20  6  1     1.31     0.05
  27      1.14069622    -0.44252183  -130.27176783     0.00000000    -0.00000000  0.36D-21  0.66D-21  6  3     1.36     0.05

 Norm of t1 vector:      0.07576407      S-energy:     0.00000000      T1 diagnostic:  0.01546528
                                                                       D1 diagnostic:  0.04346644

 Doubles amplitudes (print threshold =  0.500E-01):

         I         J         SYM. A    SYM. B    A         B      T(IJ, AB)

         6         6         2         2         1         1     -0.14613885


 Total CPU time for triples:      0.35 sec


 RESULTS
 =======

  Reference energy                   -129.829245993349
  CCSD singlet pair energy             -0.303563518669
  CCSD triplet pair energy             -0.138958315109
  CCSD correlation energy              -0.442521833776

  Triples (T) contribution             -0.019946101839
  Total correlation energy             -0.462467935615

  CCSD total energy                  -130.271767827125
  CCSD[T] energy                     -130.292754721881
  CCSD-T energy                      -130.291312113626
 !CCSD(T) total energy               -130.291713928964

 Timing summary (sec):

 STEP                 CPU(USER)    SYS     CPU(TOT)    WALL
 Transformation          0.05      0.00      0.05      0.07
 CCSD iterations         1.32      0.11      1.43      1.41
 Triples                 0.35      0.00      0.35      0.36

 Program statistics:

 Available memory in ccsd:               994999756
 Min. memory needed in ccsd:                154850
 Max. memory used in ccsd:                  184802
 Max. memory used in cckext:                238416 (27 integral passes)



 **********************************************************************************************************************************
 DATASETS  * FILE   NREC   LENGTH (MB)   RECORD NAMES
              1      20       40.28       500      610      700      900      950      970     1000      129      960     1100   
                                          VAR    BASINP    GEOM    SYMINP    ZMAT    AOBASIS   BASIS     P2S    ABASIS      S 
                                         1400     1410     1200     1210     1080     1600     1650     1300     1700     1380   
                                           T        V       H0       H01     AOSYM     SMH    MOLCAS    ERIS     OPER     JKOP   

              2       4        2.85       700     1000      520     2100   
                                         GEOM     BASIS   MCVARS     RHF  

 PROGRAMS   *        TOTAL   CCSD(T)        HF       INT
 CPU TIMES  *         2.50      1.74      0.19      0.49
 REAL TIME  *         3.54 SEC
 DISK USED  *        75.59 MB      
 **********************************************************************************************************************************

 CCSD(T)/cc-pVTZ-DK energy=   -130.291713928964

        CCSD(T)         HF-SCF  
   -130.29171393   -129.82924599
 **********************************************************************************************************************************
 Molpro calculation terminated
 Variable memory released
