
 Primary working directories    : /tmp/r2666/235048.maple
 Secondary working directories  : /tmp/r2666/235048.maple
 Wavefunction directory         : /ddn/home4/r2666/wfu/
 Main file repository           : /tmp/r2666/235048.maple/

 SHA1      : d5ffa45e93fdbca01ffc919aa182cfdae0147319
 NAME      : 2015.1.35
 ARCHNAME  : linux/x86_64
 FC        : /opt/intel/composer_xe_2015.1.133/bin/intel64/ifort
 BLASLIB   : -Wl,-_start-group /opt/intel/mkl/lib/intel64/libmkl_intel_ilp64.a /opt/intel/mkl/lib/intel64/libmkl_intel_thread.a /opt/intel/mkl/lib/intel64/libmkl_core.a -Wl,-_end-group
 id        : olemiss

 Nodes     nprocs
 cn092        1

 Using customized tuning parameters: mindgm=1; mindgv=20; mindgc=4; mindgr=1; noblas=0; minvec=7
 default implementation of scratch files=df  

 ***,hno CCSD(T)/TZ-F12 QFF
 memory, 995, m;
 gthresh,energy=1.d-12,zero=1.d-22,oneint=1.d-22,twoint=1.d-22;
 gthresh,optgrad=1.d-8,optstep=1.d-8;
 nocompress;
 geomtyp=xyz
 bohr
 geometry={
 3
         33        33
 N        0.0000000000       -0.1558622251       -1.1495296874
 H        0.0000000000        1.6627159214       -1.9290564691
 O        0.0000000000        0.0349140938        1.1279965655
 }
 
 basis=vtz-dk
 dkroll=0
   {hf,maxit=500;accu,20;}
 {ccsd(t),nocheck,maxit=250;orbital,IGNORE_ERROR;}

 Variables initialized (889), CPU time= 0.00 sec
 Commands  initialized (702), CPU time= 0.01 sec, 572 directives.
 Default parameters read. Elapsed time= 0.04 sec

 Checking input...
 Passed
1


                                         ***  PROGRAM SYSTEM MOLPRO  ***
                                       Copyright, TTI GmbH Stuttgart, 2015
                                    Version 2015.1 linked Jul  9 2018 13:16:40


 **********************************************************************************************************************************
 LABEL *   hno CCSD(T)/TZ-F12 QFF                                                        
  64 bit serial version                                                                  DATE: 08-Feb-20          TIME: 17:57:02  
 **********************************************************************************************************************************

 SHA1:             d5ffa45e93fdbca01ffc919aa182cfdae0147319
 **********************************************************************************************************************************

 THRESHOLDS:

 ZERO    =  1.00D-22  ONEINT  =  1.00D-22  TWOINT  =  1.00D-22  PREFAC  =  1.00D-14  LOCALI  =  1.00D-09  EORDER  =  1.00D-04
 ENERGY  =  1.00D-12  ETEST   =  0.00D+00  EDENS   =  0.00D+00  THRDEDEF=  1.00D-06  GRADIENT=  1.00D-02  STEP    =  1.00D-03
 ORBITAL =  1.00D-05  CIVEC   =  1.00D-05  COEFF   =  1.00D-04  PRINTCI =  5.00D-02  PUNCHCI =  9.90D+01  OPTGRAD =  3.00D-04
 OPTENERG=  1.00D-06  OPTSTEP =  3.00D-04  THRGRAD =  1.00D-10  COMPRESS=  1.00D-11  VARMIN  =  1.00D-07  VARMAX  =  1.00D-03
 THRDOUB =  0.00D+00  THRDIV  =  1.00D-05  THRRED  =  1.00D-07  THRPSP  =  1.00D+00  THRDC   =  1.00D-10  THRCS   =  1.00D-10
 THRNRM  =  1.00D-08  THREQ   =  0.00D+00  THRDE   =  1.00D+00  THRREF  =  1.00D-05  SPARFAC =  1.00D+00  THRDLP  =  1.00D-07
 THRDIA  =  1.00D-10  THRDLS  =  1.00D-07  THRGPS  =  0.00D+00  THRKEX  =  0.00D+00  THRDIS  =  2.00D-01  THRVAR  =  1.00D-10
 THRLOC  =  1.00D-06  THRGAP  =  1.00D-06  THRLOCT = -1.00D+00  THRGAPT = -1.00D+00  THRORB  =  1.00D-06  THRMLTP =  0.00D+00
 THRCPQCI=  1.00D-10  KEXTA   =  0.00D+00  THRCOARS=  0.00D+00  SYMTOL  =  1.00D-06  GRADTOL =  1.00D-06  THROVL  =  1.00D-08
 THRORTH =  1.00D-08  GRID    =  1.00D-06  GRIDMAX =  1.00D-03  DTMAX   =  0.00D+00  THROCCDE=  1.00D-01  THROCCDE=  1.00D-01



 THRESHOLDS:

 ZERO    =  1.00D-22  ONEINT  =  1.00D-22  TWOINT  =  1.00D-22  PREFAC  =  1.00D-14  LOCALI  =  1.00D-09  EORDER  =  1.00D-04
 ENERGY  =  1.00D-12  ETEST   =  0.00D+00  EDENS   =  0.00D+00  THRDEDEF=  1.00D-06  GRADIENT=  1.00D-02  STEP    =  1.00D-03
 ORBITAL =  1.00D-05  CIVEC   =  1.00D-05  COEFF   =  1.00D-04  PRINTCI =  5.00D-02  PUNCHCI =  9.90D+01  OPTGRAD =  1.00D-08
 OPTENERG=  1.00D-06  OPTSTEP =  1.00D-08  THRGRAD =  1.00D-10  COMPRESS=  1.00D-11  VARMIN  =  1.00D-07  VARMAX  =  1.00D-03
 THRDOUB =  0.00D+00  THRDIV  =  1.00D-05  THRRED  =  1.00D-07  THRPSP  =  1.00D+00  THRDC   =  1.00D-10  THRCS   =  1.00D-10
 THRNRM  =  1.00D-08  THREQ   =  0.00D+00  THRDE   =  1.00D+00  THRREF  =  1.00D-05  SPARFAC =  1.00D+00  THRDLP  =  1.00D-07
 THRDIA  =  1.00D-10  THRDLS  =  1.00D-07  THRGPS  =  0.00D+00  THRKEX  =  0.00D+00  THRDIS  =  2.00D-01  THRVAR  =  1.00D-10
 THRLOC  =  1.00D-06  THRGAP  =  1.00D-06  THRLOCT = -1.00D+00  THRGAPT = -1.00D+00  THRORB  =  1.00D-06  THRMLTP =  0.00D+00
 THRCPQCI=  1.00D-10  KEXTA   =  0.00D+00  THRCOARS=  0.00D+00  SYMTOL  =  1.00D-06  GRADTOL =  1.00D-06  THROVL  =  1.00D-08
 THRORTH =  1.00D-08  GRID    =  1.00D-06  GRIDMAX =  1.00D-03  DTMAX   =  0.00D+00  THROCCDE=  1.00D-01  THROCCDE=  1.00D-01



 Input parameters for SORTINT:

 COMPRESS =    0.000000
 C_FINAL  =    1.000000
 DEBUG    =   -1.000000
 C_SORT1  =    0.000000
 C_SEWARD =    0.000000
 THRESH   =    0.000000
 IO       =  molpro                                                          
 SPRI     =    0.000000
 SETTING GEOMTYP        =    XYZ
 ZUNIT=BOHR
 

 Variable memory set to  995000000 words,  buffer space   230000 words

 SETTING BASIS          =    VTZ-DK
 SETTING DKROLL         =     0.00000000D+00                                  


 Recomputing integrals since basis changed


 Using spherical harmonics

 Library entry N      S cc-pVTZ-DK           selected for orbital group  1
 Library entry N      P cc-pVTZ-DK           selected for orbital group  1
 Library entry N      D cc-pVTZ-DK           selected for orbital group  1
 Library entry N      F cc-pVTZ-DK           selected for orbital group  1
 Library entry H      S cc-pVTZ-DK           selected for orbital group  2
 Library entry H      P cc-pVTZ-DK           selected for orbital group  2
 Library entry H      D cc-pVTZ-DK           selected for orbital group  2
 Library entry O      S cc-pVTZ-DK           selected for orbital group  3
 Library entry O      P cc-pVTZ-DK           selected for orbital group  3
 Library entry O      D cc-pVTZ-DK           selected for orbital group  3
 Library entry O      F cc-pVTZ-DK           selected for orbital group  3


 PROGRAM * SEWARD (Integral evaluation for generally contracted gaussian basis sets)     Author: Roland Lindh, 1990

 Geometry written to block  1 of record 700


 Point group  Cs  



 ATOMIC COORDINATES

 NR  ATOM    CHARGE       X              Y              Z

   1  N       7.00    0.000000000   -0.155862225   -1.149529687
   2  H       1.00    0.000000000    1.662715921   -1.929056469
   3  O       8.00    0.000000000    0.034914094    1.127996565

 Bond lengths in Bohr (Angstrom)

 1-2  1.978607712  1-3  2.285502447
     ( 1.047034111)     ( 1.209435811)

 Bond angles

  2-1-3  108.41402801

 NUCLEAR CHARGE:                   16
 NUMBER OF PRIMITIVE AOS:         111
 NUMBER OF SYMMETRY AOS:          100
 NUMBER OF CONTRACTIONS:           74   (  50A'  +  24A"  )
 NUMBER OF CORE ORBITALS:           2   (   2A'  +   0A"  )
 NUMBER OF VALENCE ORBITALS:        9   (   7A'  +   2A"  )


 NUCLEAR REPULSION ENERGY   30.34996442

 Eigenvalues of metric

         1 0.243E-02 0.395E-02 0.417E-02 0.828E-02 0.129E-01 0.327E-01 0.426E-01 0.463E-01
         2 0.343E-01 0.465E-01 0.102E+00 0.111E+00 0.234E+00 0.340E+00 0.395E+00 0.450E+00


 Contracted 2-electron integrals neglected if value below      1.0D-22

        1874283. INTEGRALS WRITTEN OUT IN     458 BLOCKS ON RECORD 1290 OF FILE 1


 NUMBER OF SORTED TWO-ELECTRON INTEGRALS:    2006100.     BUFFER LENGTH:  32768
 NUMBER OF SEGMENTS:   1  SEGMENT LENGTH:    2006100      RECORD LENGTH: 524288

 Memory used in sort:       2.56 MW

 SORT1 READ     1874283. AND WROTE     1914195. INTEGRALS IN      6 RECORDS. CPU TIME:     0.03 SEC, REAL TIME:     0.05 SEC
 SORT2 READ     1914195. AND WROTE     2006100. INTEGRALS IN      1 RECORDS. CPU TIME:     0.05 SEC, REAL TIME:     0.06 SEC

 FILE SIZES:   FILE 1:    50.1 MBYTE,  FILE 4:    25.2 MBYTE,   TOTAL:     75.3 MBYTE

 OPERATOR DM      FOR CENTER  0  COORDINATES:    0.000000    0.000000    0.000000


 **********************************************************************************************************************************
 DATASETS  * FILE   NREC   LENGTH (MB)   RECORD NAMES
              1      19       35.89       500      610      700      900      950      970     1000      129      960     1100   
                                          VAR    BASINP    GEOM    SYMINP    ZMAT    AOBASIS   BASIS     P2S    ABASIS      S 
                                         1400     1410     1200     1210     1080     1600     1650     1300     1700   
                                           T        V       H0       H01     AOSYM     SMH    MOLCAS    ERIS     OPER   

 PROGRAMS   *        TOTAL       INT
 CPU TIMES  *         0.63      0.55
 REAL TIME  *         1.23 SEC
 DISK USED  *        75.59 MB      
 **********************************************************************************************************************************


 PROGRAM * RHF-SCF (CLOSED SHELL)       Authors: W. Meyer, H.-J. Werner


 NUMBER OF ELECTRONS:       8+    8-
 CONVERGENCE THRESHOLDS:    1.00E-10 (Density)    1.00E-13 (Energy)
 MAX. NUMBER OF ITERATIONS:      500
 INTERPOLATION TYPE:            DIIS
 INTERPOLATION STEPS:              2 (START)      1 (STEP)
 LEVEL SHIFTS:                  0.00 (CLOSED)  0.00 (OPEN) 



 Orbital guess generated from atomic densities. Full valence occupancy:    9   2

 Molecular orbital dump at record        2100.2

 Initial occupancy:   7   1

 ITERATION    DDIFF          GRAD             ENERGY        2-EL.EN.            DIPOLE MOMENTS         DIIS   ORB.
    1      0.000D+00      0.000D+00      -129.78026445    154.102257    0.00000    0.59632   -1.04265    0    start
    2      0.000D+00      0.135D-01      -129.80713314    155.247202    0.00000    0.61700   -0.22672    1    diag
    3      0.186D-01      0.103D-01      -129.82924711    155.370386    0.00000    0.56723   -0.60547    2    diag
    4      0.900D-02      0.157D-02      -129.82998989    155.102751    0.00000    0.57560   -0.54545    3    diag
    5      0.167D-02      0.516D-03      -129.83010444    155.188328    0.00000    0.58096   -0.54659    4    diag
    6      0.720D-03      0.153D-03      -129.83012324    155.173633    0.00000    0.58151   -0.54240    5    diag
    7      0.278D-03      0.767D-04      -129.83012878    155.175866    0.00000    0.58272   -0.53988    6    diag
    8      0.192D-03      0.247D-04      -129.83012931    155.175176    0.00000    0.58273   -0.53906    7    diag
    9      0.656D-04      0.450D-05      -129.83012934    155.175059    0.00000    0.58268   -0.53890    8    diag
   10      0.128D-04      0.990D-06      -129.83012934    155.175042    0.00000    0.58264   -0.53888    9    orth
   11      0.282D-05      0.193D-06      -129.83012934    155.175038    0.00000    0.58264   -0.53887    9    diag
   12      0.510D-06      0.403D-07      -129.83012934    155.175036    0.00000    0.58263   -0.53887    9    diag
   13      0.110D-06      0.101D-07      -129.83012934    155.175036    0.00000    0.58263   -0.53887    9    diag
   14      0.275D-07      0.181D-08      -129.83012934    155.175036    0.00000    0.58263   -0.53887    9    diag
   15      0.428D-08      0.461D-09      -129.83012934    155.175036    0.00000    0.58263   -0.53887    9    diag
   16      0.103D-08      0.109D-09      -129.83012934    155.175036    0.00000    0.58263   -0.53887    9    diag
   17      0.168D-09      0.291D-10      -129.83012934    155.175036    0.00000    0.58263   -0.53887    9    diag
   18      0.473D-10      0.928D-11      -129.83012934    155.175036    0.00000    0.58263   -0.53887    0    orth

 Final occupancy:   7   1

 !RHF STATE 1.1 Energy               -129.830129337724
 Nuclear energy                        30.34996442
 One-electron energy                 -237.76761178
 Two-electron energy                   77.58751802
 Virial quotient                       -0.99966353
 !RHF STATE 1.1 Dipole moment           0.00000000     0.58263418    -0.53887113
 Dipole moment /Debye                   0.00000000     1.48081139    -1.36958409

 Orbital energies:

         1.1          2.1          3.1          4.1          5.1          6.1          7.1          8.1          9.1
    -20.647991   -15.707322    -1.524636    -0.992729    -0.743257    -0.661569    -0.427461     0.144256     0.369819

         1.2          2.2          3.2
     -0.591323     0.085737     0.613184

 HOMO      7.1    -0.427461 =     -11.6318eV
 LUMO      2.2     0.085737 =       2.3330eV
 LUMO-HOMO         0.513199 =      13.9648eV


 **********************************************************************************************************************************
 DATASETS  * FILE   NREC   LENGTH (MB)   RECORD NAMES
              1      19       35.89       500      610      700      900      950      970     1000      129      960     1100   
                                          VAR    BASINP    GEOM    SYMINP    ZMAT    AOBASIS   BASIS     P2S    ABASIS      S 
                                         1400     1410     1200     1210     1080     1600     1650     1300     1700   
                                           T        V       H0       H01     AOSYM     SMH    MOLCAS    ERIS     OPER   

              2       4        2.85       700     1000      520     2100   
                                         GEOM     BASIS   MCVARS     RHF  

 PROGRAMS   *        TOTAL        HF       INT
 CPU TIMES  *         0.85      0.22      0.55
 REAL TIME  *         1.72 SEC
 DISK USED  *        75.59 MB      
 **********************************************************************************************************************************


 PROGRAM * CCSD (Closed-shell coupled cluster)     Authors: C. Hampel, H.-J. Werner, 1991, M. Deegan, P.J. Knowles, 1992


 Convergence thresholds:  THRVAR = 1.00D-08  THRDEN = 1.00D-12

 CCSD(T)     terms to be evaluated (factor= 1.000)


 Number of core orbitals:           2 (   2   0 )
 Number of closed-shell orbitals:   6 (   5   1 )
 Number of external orbitals:      66 (  43  23 )

 Molecular orbitals read from record     2100.2  Type=RHF/CANONICAL (state 1.1)

 Number of N-1 electron functions:               6
 Number of N-2 electron functions:              21
 Number of singly external CSFs:               238
 Number of doubly external CSFs:             41002
 Total number of CSFs:                       41241

 Length of J-op  integral file:               0.00 MB
 Length of K-op  integral file:               0.25 MB
 Length of 3-ext integral record:             0.00 MB

 Memory could be reduced to 1.65 Mwords without degradation in triples

 Integral transformation finished. Total CPU:   0.04 sec, npass=  1  Memory used:   0.55 MW

 Reference energy:                   -129.83012934

 MP2 singlet pair energy:              -0.27360230
 MP2 triplet pair energy:              -0.16245348
 MP2 correlation energy:               -0.43605578
 MP2 total energy:                   -130.26618512

 SCS-MP2 correlation energy:           -0.42940493   (PS=  1.200000  PT=  0.333333)
 SCS-MP2 total energy:               -130.25953427

 ITER.      SQ.NORM     CORR.ENERGY   TOTAL ENERGY   ENERGY CHANGE        DEN1      VAR(S)    VAR(P)  DIIS     TIME  TIME/IT
   1      1.11840906    -0.44115312  -130.27128245    -0.00509733     0.01068265  0.29D-02  0.30D-02  1  1     0.08     0.04
   2      1.12925158    -0.44140467  -130.27153401    -0.00025155    -0.01227593  0.88D-04  0.50D-03  2  2     0.11     0.04
   3      1.13552981    -0.44178928  -130.27191862    -0.00038461    -0.00297531  0.47D-04  0.51D-04  3  3     0.14     0.04
   4      1.13834160    -0.44181619  -130.27194552    -0.00002691    -0.00095940  0.39D-05  0.89D-05  4  4     0.18     0.04
   5      1.13933823    -0.44184549  -130.27197483    -0.00002931    -0.00020629  0.13D-05  0.17D-05  5  5     0.21     0.04
   6      1.13969660    -0.44182889  -130.27195823     0.00001660    -0.00004078  0.91D-07  0.42D-06  6  6     0.26     0.04
   7      1.13978139    -0.44183105  -130.27196039    -0.00000216    -0.00000197  0.11D-07  0.89D-07  6  1     0.28     0.04
   8      1.13981165    -0.44183105  -130.27196039    -0.00000000     0.00000202  0.47D-08  0.11D-07  6  2     0.31     0.04
   9      1.13981937    -0.44183087  -130.27196021     0.00000018    -0.00000232  0.26D-08  0.12D-08  6  3     0.35     0.04
  10      1.13981808    -0.44183138  -130.27196071    -0.00000051     0.00000064  0.49D-09  0.21D-09  6  4     0.38     0.04
  11      1.13981637    -0.44183143  -130.27196077    -0.00000006     0.00000017  0.15D-09  0.23D-10  6  5     0.41     0.04
  12      1.13981500    -0.44183161  -130.27196095    -0.00000018     0.00000043  0.15D-10  0.73D-11  6  6     0.45     0.04
  13      1.13981440    -0.44183162  -130.27196096    -0.00000001     0.00000012  0.64D-11  0.12D-11  6  1     0.48     0.04
  14      1.13981402    -0.44183164  -130.27196098    -0.00000002     0.00000008  0.90D-12  0.43D-12  6  2     0.51     0.04
  15      1.13981388    -0.44183164  -130.27196098    -0.00000000     0.00000001  0.23D-12  0.14D-12  6  3     0.54     0.04
  16      1.13981378    -0.44183164  -130.27196098    -0.00000000     0.00000001  0.25D-13  0.16D-13  6  5     0.58     0.04
  17      1.13981375    -0.44183164  -130.27196098    -0.00000000     0.00000000  0.70D-15  0.20D-14  6  4     0.61     0.04
  18      1.13981375    -0.44183164  -130.27196098     0.00000000    -0.00000000  0.47D-15  0.29D-15  6  1     0.64     0.04
  19      1.13981374    -0.44183164  -130.27196098    -0.00000000     0.00000000  0.48D-16  0.52D-16  6  6     0.68     0.04
  20      1.13981374    -0.44183164  -130.27196098    -0.00000000     0.00000000  0.11D-16  0.13D-16  6  2     0.72     0.04
  21      1.13981374    -0.44183164  -130.27196098    -0.00000000     0.00000000  0.18D-17  0.11D-17  6  5     0.76     0.04
  22      1.13981374    -0.44183164  -130.27196098    -0.00000000     0.00000000  0.10D-18  0.80D-19  6  3     0.79     0.04
  23      1.13981374    -0.44183164  -130.27196098     0.00000000    -0.00000000  0.28D-19  0.17D-19  6  4     0.83     0.04
  24      1.13981374    -0.44183164  -130.27196098     0.00000000    -0.00000000  0.42D-20  0.46D-20  6  1     0.87     0.04
  25      1.13981374    -0.44183164  -130.27196098     0.00000000    -0.00000000  0.55D-21  0.79D-21  6  6     0.90     0.04

 Norm of t1 vector:      0.07502067      S-energy:     0.00000000      T1 diagnostic:  0.01531353
                                                                       D1 diagnostic:  0.04263746

 Doubles amplitudes (print threshold =  0.500E-01):

         I         J         SYM. A    SYM. B    A         B      T(IJ, AB)

         6         6         2         2         1         1     -0.14425027


 Total CPU time for triples:      0.23 sec


 RESULTS
 =======

  Reference energy                   -129.830129337724
  CCSD singlet pair energy             -0.302960005840
  CCSD triplet pair energy             -0.138871636918
  CCSD correlation energy              -0.441831642756

  Triples (T) contribution             -0.019779604250
  Total correlation energy             -0.461611247006

  CCSD total energy                  -130.271960980480
  CCSD[T] energy                     -130.292759305647
  CCSD-T energy                      -130.291343446343
 !CCSD(T) total energy               -130.291740584730

 Timing summary (sec):

 STEP                 CPU(USER)    SYS     CPU(TOT)    WALL
 Transformation          0.04      0.01      0.05      0.06
 CCSD iterations         0.87      0.13      1.00      1.00
 Triples                 0.23      0.01      0.24      0.24

 Program statistics:

 Available memory in ccsd:               994999756
 Min. memory needed in ccsd:                154850
 Max. memory used in ccsd:                  184802
 Max. memory used in cckext:                238416 (25 integral passes)



 **********************************************************************************************************************************
 DATASETS  * FILE   NREC   LENGTH (MB)   RECORD NAMES
              1      20       40.28       500      610      700      900      950      970     1000      129      960     1100   
                                          VAR    BASINP    GEOM    SYMINP    ZMAT    AOBASIS   BASIS     P2S    ABASIS      S 
                                         1400     1410     1200     1210     1080     1600     1650     1300     1700     1380   
                                           T        V       H0       H01     AOSYM     SMH    MOLCAS    ERIS     OPER     JKOP   

              2       4        2.85       700     1000      520     2100   
                                         GEOM     BASIS   MCVARS     RHF  

 PROGRAMS   *        TOTAL   CCSD(T)        HF       INT
 CPU TIMES  *         2.02      1.15      0.22      0.55
 REAL TIME  *         3.20 SEC
 DISK USED  *        75.59 MB      
 **********************************************************************************************************************************

 CCSD(T)/cc-pVTZ-DK energy=   -130.291740584730

        CCSD(T)         HF-SCF  
   -130.29174058   -129.83012934
 **********************************************************************************************************************************
 Molpro calculation terminated
 Variable memory released
