
 Primary working directories    : /tmp/r2666/235035.maple
 Secondary working directories  : /tmp/r2666/235035.maple
 Wavefunction directory         : /ddn/home4/r2666/wfu/
 Main file repository           : /tmp/r2666/235035.maple/

 SHA1      : d5ffa45e93fdbca01ffc919aa182cfdae0147319
 NAME      : 2015.1.35
 ARCHNAME  : linux/x86_64
 FC        : /opt/intel/composer_xe_2015.1.133/bin/intel64/ifort
 BLASLIB   : -Wl,-_start-group /opt/intel/mkl/lib/intel64/libmkl_intel_ilp64.a /opt/intel/mkl/lib/intel64/libmkl_intel_thread.a /opt/intel/mkl/lib/intel64/libmkl_core.a -Wl,-_end-group
 id        : olemiss

 Nodes     nprocs
 cn076        1

 Using customized tuning parameters: mindgm=1; mindgv=20; mindgc=4; mindgr=1; noblas=0; minvec=7
 default implementation of scratch files=df  

 ***,hno CCSD(T)/TZ-F12 QFF
 memory, 995, m;
 gthresh,energy=1.d-12,zero=1.d-22,oneint=1.d-22,twoint=1.d-22;
 gthresh,optgrad=1.d-8,optstep=1.d-8;
 nocompress;
 geomtyp=xyz
 bohr
 geometry={
 3
         20        20
 N        0.0000000000       -0.1481600244       -1.1562031038
 H        0.0000000000        1.6601252549       -1.9357490228
 O        0.0000000000        0.0298025595        1.1413625356
 }
 
 basis=vtz-dk
 dkroll=0
   {hf,maxit=500;accu,20;}
 {ccsd(t),nocheck,maxit=250;orbital,IGNORE_ERROR;}

 Variables initialized (889), CPU time= 0.00 sec
 Commands  initialized (702), CPU time= 0.02 sec, 572 directives.
 Default parameters read. Elapsed time= 0.06 sec

 Checking input...
 Passed
1


                                         ***  PROGRAM SYSTEM MOLPRO  ***
                                       Copyright, TTI GmbH Stuttgart, 2015
                                    Version 2015.1 linked Jul  9 2018 13:16:40


 **********************************************************************************************************************************
 LABEL *   hno CCSD(T)/TZ-F12 QFF                                                        
  64 bit serial version                                                                  DATE: 08-Feb-20          TIME: 17:57:00  
 **********************************************************************************************************************************

 SHA1:             d5ffa45e93fdbca01ffc919aa182cfdae0147319
 **********************************************************************************************************************************

 THRESHOLDS:

 ZERO    =  1.00D-22  ONEINT  =  1.00D-22  TWOINT  =  1.00D-22  PREFAC  =  1.00D-14  LOCALI  =  1.00D-09  EORDER  =  1.00D-04
 ENERGY  =  1.00D-12  ETEST   =  0.00D+00  EDENS   =  0.00D+00  THRDEDEF=  1.00D-06  GRADIENT=  1.00D-02  STEP    =  1.00D-03
 ORBITAL =  1.00D-05  CIVEC   =  1.00D-05  COEFF   =  1.00D-04  PRINTCI =  5.00D-02  PUNCHCI =  9.90D+01  OPTGRAD =  3.00D-04
 OPTENERG=  1.00D-06  OPTSTEP =  3.00D-04  THRGRAD =  1.00D-10  COMPRESS=  1.00D-11  VARMIN  =  1.00D-07  VARMAX  =  1.00D-03
 THRDOUB =  0.00D+00  THRDIV  =  1.00D-05  THRRED  =  1.00D-07  THRPSP  =  1.00D+00  THRDC   =  1.00D-10  THRCS   =  1.00D-10
 THRNRM  =  1.00D-08  THREQ   =  0.00D+00  THRDE   =  1.00D+00  THRREF  =  1.00D-05  SPARFAC =  1.00D+00  THRDLP  =  1.00D-07
 THRDIA  =  1.00D-10  THRDLS  =  1.00D-07  THRGPS  =  0.00D+00  THRKEX  =  0.00D+00  THRDIS  =  2.00D-01  THRVAR  =  1.00D-10
 THRLOC  =  1.00D-06  THRGAP  =  1.00D-06  THRLOCT = -1.00D+00  THRGAPT = -1.00D+00  THRORB  =  1.00D-06  THRMLTP =  0.00D+00
 THRCPQCI=  1.00D-10  KEXTA   =  0.00D+00  THRCOARS=  0.00D+00  SYMTOL  =  1.00D-06  GRADTOL =  1.00D-06  THROVL  =  1.00D-08
 THRORTH =  1.00D-08  GRID    =  1.00D-06  GRIDMAX =  1.00D-03  DTMAX   =  0.00D+00  THROCCDE=  1.00D-01  THROCCDE=  1.00D-01



 THRESHOLDS:

 ZERO    =  1.00D-22  ONEINT  =  1.00D-22  TWOINT  =  1.00D-22  PREFAC  =  1.00D-14  LOCALI  =  1.00D-09  EORDER  =  1.00D-04
 ENERGY  =  1.00D-12  ETEST   =  0.00D+00  EDENS   =  0.00D+00  THRDEDEF=  1.00D-06  GRADIENT=  1.00D-02  STEP    =  1.00D-03
 ORBITAL =  1.00D-05  CIVEC   =  1.00D-05  COEFF   =  1.00D-04  PRINTCI =  5.00D-02  PUNCHCI =  9.90D+01  OPTGRAD =  1.00D-08
 OPTENERG=  1.00D-06  OPTSTEP =  1.00D-08  THRGRAD =  1.00D-10  COMPRESS=  1.00D-11  VARMIN  =  1.00D-07  VARMAX  =  1.00D-03
 THRDOUB =  0.00D+00  THRDIV  =  1.00D-05  THRRED  =  1.00D-07  THRPSP  =  1.00D+00  THRDC   =  1.00D-10  THRCS   =  1.00D-10
 THRNRM  =  1.00D-08  THREQ   =  0.00D+00  THRDE   =  1.00D+00  THRREF  =  1.00D-05  SPARFAC =  1.00D+00  THRDLP  =  1.00D-07
 THRDIA  =  1.00D-10  THRDLS  =  1.00D-07  THRGPS  =  0.00D+00  THRKEX  =  0.00D+00  THRDIS  =  2.00D-01  THRVAR  =  1.00D-10
 THRLOC  =  1.00D-06  THRGAP  =  1.00D-06  THRLOCT = -1.00D+00  THRGAPT = -1.00D+00  THRORB  =  1.00D-06  THRMLTP =  0.00D+00
 THRCPQCI=  1.00D-10  KEXTA   =  0.00D+00  THRCOARS=  0.00D+00  SYMTOL  =  1.00D-06  GRADTOL =  1.00D-06  THROVL  =  1.00D-08
 THRORTH =  1.00D-08  GRID    =  1.00D-06  GRIDMAX =  1.00D-03  DTMAX   =  0.00D+00  THROCCDE=  1.00D-01  THROCCDE=  1.00D-01



 Input parameters for SORTINT:

 COMPRESS =    0.000000
 C_FINAL  =    1.000000
 DEBUG    =   -1.000000
 C_SORT1  =    0.000000
 C_SEWARD =    0.000000
 THRESH   =    0.000000
 IO       =  molpro                                                          
 SPRI     =    0.000000
 SETTING GEOMTYP        =    XYZ
 ZUNIT=BOHR
 

 Variable memory set to  995000000 words,  buffer space   230000 words

 SETTING BASIS          =    VTZ-DK
 SETTING DKROLL         =     0.00000000D+00                                  


 Recomputing integrals since basis changed


 Using spherical harmonics

 Library entry N      S cc-pVTZ-DK           selected for orbital group  1
 Library entry N      P cc-pVTZ-DK           selected for orbital group  1
 Library entry N      D cc-pVTZ-DK           selected for orbital group  1
 Library entry N      F cc-pVTZ-DK           selected for orbital group  1
 Library entry H      S cc-pVTZ-DK           selected for orbital group  2
 Library entry H      P cc-pVTZ-DK           selected for orbital group  2
 Library entry H      D cc-pVTZ-DK           selected for orbital group  2
 Library entry O      S cc-pVTZ-DK           selected for orbital group  3
 Library entry O      P cc-pVTZ-DK           selected for orbital group  3
 Library entry O      D cc-pVTZ-DK           selected for orbital group  3
 Library entry O      F cc-pVTZ-DK           selected for orbital group  3


 PROGRAM * SEWARD (Integral evaluation for generally contracted gaussian basis sets)     Author: Roland Lindh, 1990

 Geometry written to block  1 of record 700


 Point group  Cs  



 ATOMIC COORDINATES

 NR  ATOM    CHARGE       X              Y              Z

   1  N       7.00    0.000000000   -0.148160024   -1.156203104
   2  H       1.00    0.000000000    1.660125255   -1.935749023
   3  O       8.00    0.000000000    0.029802559    1.141362536

 Bond lengths in Bohr (Angstrom)

 1-2  1.969159082  1-3  2.304447558
     ( 1.042034111)     ( 1.219461132)

 Bond angles

  2-1-3  108.89160056

 NUCLEAR CHARGE:                   16
 NUMBER OF PRIMITIVE AOS:         111
 NUMBER OF SYMMETRY AOS:          100
 NUMBER OF CONTRACTIONS:           74   (  50A'  +  24A"  )
 NUMBER OF CORE ORBITALS:           2   (   2A'  +   0A"  )
 NUMBER OF VALENCE ORBITALS:        9   (   7A'  +   2A"  )


 NUCLEAR REPULSION ENERGY   30.15296956

 Eigenvalues of metric

         1 0.245E-02 0.396E-02 0.433E-02 0.825E-02 0.128E-01 0.332E-01 0.432E-01 0.463E-01
         2 0.347E-01 0.465E-01 0.103E+00 0.110E+00 0.236E+00 0.339E+00 0.396E+00 0.452E+00


 Contracted 2-electron integrals neglected if value below      1.0D-22

        1874283. INTEGRALS WRITTEN OUT IN     458 BLOCKS ON RECORD 1290 OF FILE 1


 NUMBER OF SORTED TWO-ELECTRON INTEGRALS:    2006100.     BUFFER LENGTH:  32768
 NUMBER OF SEGMENTS:   1  SEGMENT LENGTH:    2006100      RECORD LENGTH: 524288

 Memory used in sort:       2.56 MW

 SORT1 READ     1874283. AND WROTE     1914195. INTEGRALS IN      6 RECORDS. CPU TIME:     0.03 SEC, REAL TIME:     0.04 SEC
 SORT2 READ     1914195. AND WROTE     2006100. INTEGRALS IN      1 RECORDS. CPU TIME:     0.06 SEC, REAL TIME:     0.06 SEC

 FILE SIZES:   FILE 1:    50.1 MBYTE,  FILE 4:    25.2 MBYTE,   TOTAL:     75.3 MBYTE

 OPERATOR DM      FOR CENTER  0  COORDINATES:    0.000000    0.000000    0.000000


 **********************************************************************************************************************************
 DATASETS  * FILE   NREC   LENGTH (MB)   RECORD NAMES
              1      19       35.89       500      610      700      900      950      970     1000      129      960     1100   
                                          VAR    BASINP    GEOM    SYMINP    ZMAT    AOBASIS   BASIS     P2S    ABASIS      S 
                                         1400     1410     1200     1210     1080     1600     1650     1300     1700   
                                           T        V       H0       H01     AOSYM     SMH    MOLCAS    ERIS     OPER   

 PROGRAMS   *        TOTAL       INT
 CPU TIMES  *         0.66      0.57
 REAL TIME  *         1.25 SEC
 DISK USED  *        75.59 MB      
 **********************************************************************************************************************************


 PROGRAM * RHF-SCF (CLOSED SHELL)       Authors: W. Meyer, H.-J. Werner


 NUMBER OF ELECTRONS:       8+    8-
 CONVERGENCE THRESHOLDS:    1.00E-10 (Density)    1.00E-13 (Energy)
 MAX. NUMBER OF ITERATIONS:      500
 INTERPOLATION TYPE:            DIIS
 INTERPOLATION STEPS:              2 (START)      1 (STEP)
 LEVEL SHIFTS:                  0.00 (CLOSED)  0.00 (OPEN) 



 Orbital guess generated from atomic densities. Full valence occupancy:    9   2

 Molecular orbital dump at record        2100.2

 Initial occupancy:   7   1

 ITERATION    DDIFF          GRAD             ENERGY        2-EL.EN.            DIPOLE MOMENTS         DIIS   ORB.
    1      0.000D+00      0.000D+00      -129.77763056    153.749782    0.00000    0.60805   -1.07435    0    start
    2      0.000D+00      0.136D-01      -129.80415837    154.872129    0.00000    0.62352   -0.22455    1    diag
    3      0.189D-01      0.106D-01      -129.82768376    155.017412    0.00000    0.57558   -0.62160    2    diag
    4      0.922D-02      0.159D-02      -129.82844518    154.743397    0.00000    0.58358   -0.55984    3    diag
    5      0.169D-02      0.522D-03      -129.82856206    154.829585    0.00000    0.58892   -0.56084    4    diag
    6      0.728D-03      0.154D-03      -129.82858120    154.814846    0.00000    0.58943   -0.55650    5    diag
    7      0.280D-03      0.781D-04      -129.82858703    154.816957    0.00000    0.59061   -0.55385    6    diag
    8      0.195D-03      0.260D-04      -129.82858765    154.816231    0.00000    0.59061   -0.55296    7    diag
    9      0.706D-04      0.477D-05      -129.82858767    154.816104    0.00000    0.59056   -0.55279    8    diag
   10      0.139D-04      0.103D-05      -129.82858767    154.816087    0.00000    0.59053   -0.55277    9    orth
   11      0.293D-05      0.200D-06      -129.82858767    154.816083    0.00000    0.59052   -0.55276    9    diag
   12      0.522D-06      0.430D-07      -129.82858767    154.816082    0.00000    0.59052   -0.55276    9    diag
   13      0.113D-06      0.111D-07      -129.82858767    154.816082    0.00000    0.59052   -0.55276    9    diag
   14      0.291D-07      0.204D-08      -129.82858767    154.816082    0.00000    0.59052   -0.55276    9    diag
   15      0.433D-08      0.527D-09      -129.82858767    154.816082    0.00000    0.59052   -0.55276    9    diag
   16      0.113D-08      0.137D-09      -129.82858767    154.816082    0.00000    0.59052   -0.55276    9    diag
   17      0.198D-09      0.401D-10      -129.82858767    154.816082    0.00000    0.59052   -0.55276    9    diag
   18      0.663D-10      0.141D-10      -129.82858767    154.816082    0.00000    0.59052   -0.55276    0    orth

 Final occupancy:   7   1

 !RHF STATE 1.1 Energy               -129.828587671720
 Nuclear energy                        30.15296956
 One-electron energy                 -237.38959803
 Two-electron energy                   77.40804079
 Virial quotient                       -0.99989738
 !RHF STATE 1.1 Dipole moment           0.00000000     0.59051805    -0.55276137
 Dipole moment /Debye                   0.00000000     1.50084885    -1.40488724

 Orbital energies:

         1.1          2.1          3.1          4.1          5.1          6.1          7.1          8.1          9.1
    -20.648963   -15.708268    -1.516372    -0.996659    -0.740774    -0.658783    -0.430420     0.143890     0.368330

         1.2          2.2          3.2
     -0.586520     0.081992     0.614307

 HOMO      7.1    -0.430420 =     -11.7123eV
 LUMO      2.2     0.081992 =       2.2311eV
 LUMO-HOMO         0.512411 =      13.9434eV


 **********************************************************************************************************************************
 DATASETS  * FILE   NREC   LENGTH (MB)   RECORD NAMES
              1      19       35.89       500      610      700      900      950      970     1000      129      960     1100   
                                          VAR    BASINP    GEOM    SYMINP    ZMAT    AOBASIS   BASIS     P2S    ABASIS      S 
                                         1400     1410     1200     1210     1080     1600     1650     1300     1700   
                                           T        V       H0       H01     AOSYM     SMH    MOLCAS    ERIS     OPER   

              2       4        2.85       700     1000      520     2100   
                                         GEOM     BASIS   MCVARS     RHF  

 PROGRAMS   *        TOTAL        HF       INT
 CPU TIMES  *         0.85      0.19      0.57
 REAL TIME  *         1.50 SEC
 DISK USED  *        75.59 MB      
 **********************************************************************************************************************************


 PROGRAM * CCSD (Closed-shell coupled cluster)     Authors: C. Hampel, H.-J. Werner, 1991, M. Deegan, P.J. Knowles, 1992


 Convergence thresholds:  THRVAR = 1.00D-08  THRDEN = 1.00D-12

 CCSD(T)     terms to be evaluated (factor= 1.000)


 Number of core orbitals:           2 (   2   0 )
 Number of closed-shell orbitals:   6 (   5   1 )
 Number of external orbitals:      66 (  43  23 )

 Molecular orbitals read from record     2100.2  Type=RHF/CANONICAL (state 1.1)

 Number of N-1 electron functions:               6
 Number of N-2 electron functions:              21
 Number of singly external CSFs:               238
 Number of doubly external CSFs:             41002
 Total number of CSFs:                       41241

 Length of J-op  integral file:               0.00 MB
 Length of K-op  integral file:               0.25 MB
 Length of 3-ext integral record:             0.00 MB

 Memory could be reduced to 1.65 Mwords without degradation in triples

 Integral transformation finished. Total CPU:   0.03 sec, npass=  1  Memory used:   0.55 MW

 Reference energy:                   -129.82858767

 MP2 singlet pair energy:              -0.27455525
 MP2 triplet pair energy:              -0.16308787
 MP2 correlation energy:               -0.43764312
 MP2 total energy:                   -130.26623080

 SCS-MP2 correlation energy:           -0.43094320   (PS=  1.200000  PT=  0.333333)
 SCS-MP2 total energy:               -130.25953087

 ITER.      SQ.NORM     CORR.ENERGY   TOTAL ENERGY   ENERGY CHANGE        DEN1      VAR(S)    VAR(P)  DIIS     TIME  TIME/IT
   1      1.11935559    -0.44236867  -130.27095635    -0.00472555     0.01144669  0.31D-02  0.31D-02  1  1     0.07     0.04
   2      1.13042762    -0.44254254  -130.27113022    -0.00017387    -0.01250066  0.93D-04  0.52D-03  2  2     0.10     0.04
   3      1.13690241    -0.44294103  -130.27152870    -0.00039849    -0.00303551  0.49D-04  0.53D-04  3  3     0.14     0.04
   4      1.13983565    -0.44296919  -130.27155686    -0.00002816    -0.00099101  0.42D-05  0.94D-05  4  4     0.17     0.04
   5      1.14089274    -0.44300021  -130.27158788    -0.00003102    -0.00021854  0.13D-05  0.17D-05  5  5     0.21     0.04
   6      1.14126658    -0.44298239  -130.27157006     0.00001782    -0.00004286  0.89D-07  0.43D-06  6  6     0.25     0.04
   7      1.14135153    -0.44298483  -130.27157251    -0.00000245    -0.00000159  0.10D-07  0.95D-07  6  1     0.28     0.04
   8      1.14138209    -0.44298476  -130.27157243     0.00000008     0.00000212  0.50D-08  0.12D-07  6  2     0.32     0.04
   9      1.14139021    -0.44298457  -130.27157224     0.00000019    -0.00000241  0.28D-08  0.13D-08  6  3     0.35     0.04
  10      1.14138884    -0.44298510  -130.27157277    -0.00000053     0.00000069  0.52D-09  0.23D-09  6  4     0.39     0.04
  11      1.14138711    -0.44298516  -130.27157283    -0.00000006     0.00000015  0.15D-09  0.24D-10  6  5     0.43     0.04
  12      1.14138570    -0.44298535  -130.27157302    -0.00000019     0.00000045  0.15D-10  0.77D-11  6  6     0.46     0.04
  13      1.14138508    -0.44298535  -130.27157302    -0.00000001     0.00000013  0.64D-11  0.13D-11  6  1     0.49     0.04
  14      1.14138468    -0.44298537  -130.27157305    -0.00000002     0.00000008  0.91D-12  0.46D-12  6  2     0.53     0.04
  15      1.14138453    -0.44298538  -130.27157305    -0.00000000     0.00000002  0.24D-12  0.15D-12  6  3     0.56     0.04
  16      1.14138444    -0.44298538  -130.27157305    -0.00000000     0.00000001  0.15D-13  0.57D-13  6  4     0.59     0.04
  17      1.14138440    -0.44298538  -130.27157305    -0.00000000     0.00000001  0.26D-14  0.13D-13  6  5     0.62     0.04
  18      1.14138439    -0.44298538  -130.27157305     0.00000000     0.00000000  0.18D-14  0.34D-14  6  6     0.65     0.04
  19      1.14138438    -0.44298538  -130.27157305     0.00000000    -0.00000000  0.85D-15  0.39D-15  6  1     0.69     0.04
  20      1.14138438    -0.44298538  -130.27157305     0.00000000    -0.00000000  0.70D-16  0.70D-16  6  2     0.72     0.04
  21      1.14138438    -0.44298538  -130.27157305    -0.00000000     0.00000000  0.39D-16  0.12D-16  6  3     0.76     0.04
  22      1.14138438    -0.44298538  -130.27157305     0.00000000     0.00000000  0.67D-17  0.24D-17  6  4     0.79     0.04
  23      1.14138438    -0.44298538  -130.27157305    -0.00000000     0.00000000  0.24D-17  0.40D-18  6  5     0.83     0.04
  24      1.14138438    -0.44298538  -130.27157305    -0.00000000    -0.00000000  0.26D-18  0.11D-18  6  6     0.86     0.04
  25      1.14138438    -0.44298538  -130.27157305     0.00000000    -0.00000000  0.71D-19  0.27D-19  6  2     0.90     0.04
  26      1.14138438    -0.44298538  -130.27157305     0.00000000    -0.00000000  0.17D-20  0.23D-20  6  1     0.93     0.04
  27      1.14138438    -0.44298538  -130.27157305     0.00000000    -0.00000000  0.35D-21  0.73D-21  6  3     0.96     0.04

 Norm of t1 vector:      0.07653614      S-energy:     0.00000000      T1 diagnostic:  0.01562287
                                                                       D1 diagnostic:  0.04399743

 Doubles amplitudes (print threshold =  0.500E-01):

         I         J         SYM. A    SYM. B    A         B      T(IJ, AB)

         6         6         2         2         1         1     -0.14714473


 Total CPU time for triples:      0.22 sec


 RESULTS
 =======

  Reference energy                   -129.828587671720
  CCSD singlet pair energy             -0.303969498216
  CCSD triplet pair energy             -0.139015882217
  CCSD correlation energy              -0.442985380431

  Triples (T) contribution             -0.020059722815
  Total correlation energy             -0.463045103245

  CCSD total energy                  -130.271573052150
  CCSD[T] energy                     -130.292692774320
  CCSD-T energy                      -130.291226372005
 !CCSD(T) total energy               -130.291632774965

 Timing summary (sec):

 STEP                 CPU(USER)    SYS     CPU(TOT)    WALL
 Transformation          0.03      0.01      0.04      0.04
 CCSD iterations         0.93      0.13      1.06      1.07
 Triples                 0.22      0.02      0.24      0.23

 Program statistics:

 Available memory in ccsd:               994999756
 Min. memory needed in ccsd:                154850
 Max. memory used in ccsd:                  184802
 Max. memory used in cckext:                238416 (27 integral passes)



 **********************************************************************************************************************************
 DATASETS  * FILE   NREC   LENGTH (MB)   RECORD NAMES
              1      20       40.28       500      610      700      900      950      970     1000      129      960     1100   
                                          VAR    BASINP    GEOM    SYMINP    ZMAT    AOBASIS   BASIS     P2S    ABASIS      S 
                                         1400     1410     1200     1210     1080     1600     1650     1300     1700     1380   
                                           T        V       H0       H01     AOSYM     SMH    MOLCAS    ERIS     OPER     JKOP   

              2       4        2.85       700     1000      520     2100   
                                         GEOM     BASIS   MCVARS     RHF  

 PROGRAMS   *        TOTAL   CCSD(T)        HF       INT
 CPU TIMES  *         2.08      1.22      0.19      0.57
 REAL TIME  *         3.00 SEC
 DISK USED  *        75.59 MB      
 **********************************************************************************************************************************

 CCSD(T)/cc-pVTZ-DK energy=   -130.291632774965

        CCSD(T)         HF-SCF  
   -130.29163277   -129.82858767
 **********************************************************************************************************************************
 Molpro calculation terminated
 Variable memory released
