
 Primary working directories    : /tmp/r2666/235033.maple
 Secondary working directories  : /tmp/r2666/235033.maple
 Wavefunction directory         : /ddn/home4/r2666/wfu/
 Main file repository           : /tmp/r2666/235033.maple/

 SHA1      : d5ffa45e93fdbca01ffc919aa182cfdae0147319
 NAME      : 2015.1.35
 ARCHNAME  : linux/x86_64
 FC        : /opt/intel/composer_xe_2015.1.133/bin/intel64/ifort
 BLASLIB   : -Wl,-_start-group /opt/intel/mkl/lib/intel64/libmkl_intel_ilp64.a /opt/intel/mkl/lib/intel64/libmkl_intel_thread.a /opt/intel/mkl/lib/intel64/libmkl_core.a -Wl,-_end-group
 id        : olemiss

 Nodes     nprocs
 cn036        1

 Using customized tuning parameters: mindgm=1; mindgv=20; mindgc=4; mindgr=1; noblas=0; minvec=7
 default implementation of scratch files=df  

 ***,hno CCSD(T)/TZ-F12 QFF
 memory, 995, m;
 gthresh,energy=1.d-12,zero=1.d-22,oneint=1.d-22,twoint=1.d-22;
 gthresh,optgrad=1.d-8,optstep=1.d-8;
 nocompress;
 geomtyp=xyz
 bohr
 geometry={
 3
         18        18
 N        0.0000000000       -0.1493587874       -1.1537834650
 H        0.0000000000        1.6593532507       -1.9323387001
 O        0.0000000000        0.0317733267        1.1355325741
 }
 
 basis=vtz-dk
 dkroll=0
   {hf,maxit=500;accu,20;}
 {ccsd(t),nocheck,maxit=250;orbital,IGNORE_ERROR;}

 Variables initialized (889), CPU time= 0.00 sec
 Commands  initialized (702), CPU time= 0.01 sec, 572 directives.
 Default parameters read. Elapsed time= 0.05 sec

 Checking input...
 Passed
1


                                         ***  PROGRAM SYSTEM MOLPRO  ***
                                       Copyright, TTI GmbH Stuttgart, 2015
                                    Version 2015.1 linked Jul  9 2018 13:16:40


 **********************************************************************************************************************************
 LABEL *   hno CCSD(T)/TZ-F12 QFF                                                        
  64 bit serial version                                                                  DATE: 08-Feb-20          TIME: 17:56:58  
 **********************************************************************************************************************************

 SHA1:             d5ffa45e93fdbca01ffc919aa182cfdae0147319
 **********************************************************************************************************************************

 THRESHOLDS:

 ZERO    =  1.00D-22  ONEINT  =  1.00D-22  TWOINT  =  1.00D-22  PREFAC  =  1.00D-14  LOCALI  =  1.00D-09  EORDER  =  1.00D-04
 ENERGY  =  1.00D-12  ETEST   =  0.00D+00  EDENS   =  0.00D+00  THRDEDEF=  1.00D-06  GRADIENT=  1.00D-02  STEP    =  1.00D-03
 ORBITAL =  1.00D-05  CIVEC   =  1.00D-05  COEFF   =  1.00D-04  PRINTCI =  5.00D-02  PUNCHCI =  9.90D+01  OPTGRAD =  3.00D-04
 OPTENERG=  1.00D-06  OPTSTEP =  3.00D-04  THRGRAD =  1.00D-10  COMPRESS=  1.00D-11  VARMIN  =  1.00D-07  VARMAX  =  1.00D-03
 THRDOUB =  0.00D+00  THRDIV  =  1.00D-05  THRRED  =  1.00D-07  THRPSP  =  1.00D+00  THRDC   =  1.00D-10  THRCS   =  1.00D-10
 THRNRM  =  1.00D-08  THREQ   =  0.00D+00  THRDE   =  1.00D+00  THRREF  =  1.00D-05  SPARFAC =  1.00D+00  THRDLP  =  1.00D-07
 THRDIA  =  1.00D-10  THRDLS  =  1.00D-07  THRGPS  =  0.00D+00  THRKEX  =  0.00D+00  THRDIS  =  2.00D-01  THRVAR  =  1.00D-10
 THRLOC  =  1.00D-06  THRGAP  =  1.00D-06  THRLOCT = -1.00D+00  THRGAPT = -1.00D+00  THRORB  =  1.00D-06  THRMLTP =  0.00D+00
 THRCPQCI=  1.00D-10  KEXTA   =  0.00D+00  THRCOARS=  0.00D+00  SYMTOL  =  1.00D-06  GRADTOL =  1.00D-06  THROVL  =  1.00D-08
 THRORTH =  1.00D-08  GRID    =  1.00D-06  GRIDMAX =  1.00D-03  DTMAX   =  0.00D+00  THROCCDE=  1.00D-01  THROCCDE=  1.00D-01



 THRESHOLDS:

 ZERO    =  1.00D-22  ONEINT  =  1.00D-22  TWOINT  =  1.00D-22  PREFAC  =  1.00D-14  LOCALI  =  1.00D-09  EORDER  =  1.00D-04
 ENERGY  =  1.00D-12  ETEST   =  0.00D+00  EDENS   =  0.00D+00  THRDEDEF=  1.00D-06  GRADIENT=  1.00D-02  STEP    =  1.00D-03
 ORBITAL =  1.00D-05  CIVEC   =  1.00D-05  COEFF   =  1.00D-04  PRINTCI =  5.00D-02  PUNCHCI =  9.90D+01  OPTGRAD =  1.00D-08
 OPTENERG=  1.00D-06  OPTSTEP =  1.00D-08  THRGRAD =  1.00D-10  COMPRESS=  1.00D-11  VARMIN  =  1.00D-07  VARMAX  =  1.00D-03
 THRDOUB =  0.00D+00  THRDIV  =  1.00D-05  THRRED  =  1.00D-07  THRPSP  =  1.00D+00  THRDC   =  1.00D-10  THRCS   =  1.00D-10
 THRNRM  =  1.00D-08  THREQ   =  0.00D+00  THRDE   =  1.00D+00  THRREF  =  1.00D-05  SPARFAC =  1.00D+00  THRDLP  =  1.00D-07
 THRDIA  =  1.00D-10  THRDLS  =  1.00D-07  THRGPS  =  0.00D+00  THRKEX  =  0.00D+00  THRDIS  =  2.00D-01  THRVAR  =  1.00D-10
 THRLOC  =  1.00D-06  THRGAP  =  1.00D-06  THRLOCT = -1.00D+00  THRGAPT = -1.00D+00  THRORB  =  1.00D-06  THRMLTP =  0.00D+00
 THRCPQCI=  1.00D-10  KEXTA   =  0.00D+00  THRCOARS=  0.00D+00  SYMTOL  =  1.00D-06  GRADTOL =  1.00D-06  THROVL  =  1.00D-08
 THRORTH =  1.00D-08  GRID    =  1.00D-06  GRIDMAX =  1.00D-03  DTMAX   =  0.00D+00  THROCCDE=  1.00D-01  THROCCDE=  1.00D-01



 Input parameters for SORTINT:

 COMPRESS =    0.000000
 C_FINAL  =    1.000000
 DEBUG    =   -1.000000
 C_SORT1  =    0.000000
 C_SEWARD =    0.000000
 THRESH   =    0.000000
 IO       =  molpro                                                          
 SPRI     =    0.000000
 SETTING GEOMTYP        =    XYZ
 ZUNIT=BOHR
 

 Variable memory set to  995000000 words,  buffer space   230000 words

 SETTING BASIS          =    VTZ-DK
 SETTING DKROLL         =     0.00000000D+00                                  


 Recomputing integrals since basis changed


 Using spherical harmonics

 Library entry N      S cc-pVTZ-DK           selected for orbital group  1
 Library entry N      P cc-pVTZ-DK           selected for orbital group  1
 Library entry N      D cc-pVTZ-DK           selected for orbital group  1
 Library entry N      F cc-pVTZ-DK           selected for orbital group  1
 Library entry H      S cc-pVTZ-DK           selected for orbital group  2
 Library entry H      P cc-pVTZ-DK           selected for orbital group  2
 Library entry H      D cc-pVTZ-DK           selected for orbital group  2
 Library entry O      S cc-pVTZ-DK           selected for orbital group  3
 Library entry O      P cc-pVTZ-DK           selected for orbital group  3
 Library entry O      D cc-pVTZ-DK           selected for orbital group  3
 Library entry O      F cc-pVTZ-DK           selected for orbital group  3


 PROGRAM * SEWARD (Integral evaluation for generally contracted gaussian basis sets)     Author: Roland Lindh, 1990

 Geometry written to block  1 of record 700


 Point group  Cs  



 ATOMIC COORDINATES

 NR  ATOM    CHARGE       X              Y              Z

   1  N       7.00    0.000000000   -0.149358787   -1.153783465
   2  H       1.00    0.000000000    1.659353251   -1.932338700
   3  O       8.00    0.000000000    0.031773327    1.135532574

 Bond lengths in Bohr (Angstrom)

 1-2  1.969159082  1-3  2.296470503
     ( 1.042034111)     ( 1.215239856)

 Bond angles

  2-1-3  108.76547739

 NUCLEAR CHARGE:                   16
 NUMBER OF PRIMITIVE AOS:         111
 NUMBER OF SYMMETRY AOS:          100
 NUMBER OF CONTRACTIONS:           74   (  50A'  +  24A"  )
 NUMBER OF CORE ORBITALS:           2   (   2A'  +   0A"  )
 NUMBER OF VALENCE ORBITALS:        9   (   7A'  +   2A"  )


 NUCLEAR REPULSION ENERGY   30.24363162

 Eigenvalues of metric

         1 0.244E-02 0.395E-02 0.426E-02 0.822E-02 0.128E-01 0.329E-01 0.429E-01 0.463E-01
         2 0.345E-01 0.465E-01 0.102E+00 0.110E+00 0.235E+00 0.339E+00 0.395E+00 0.451E+00


 Contracted 2-electron integrals neglected if value below      1.0D-22

        1874283. INTEGRALS WRITTEN OUT IN     458 BLOCKS ON RECORD 1290 OF FILE 1


 NUMBER OF SORTED TWO-ELECTRON INTEGRALS:    2006100.     BUFFER LENGTH:  32768
 NUMBER OF SEGMENTS:   1  SEGMENT LENGTH:    2006100      RECORD LENGTH: 524288

 Memory used in sort:       2.56 MW

 SORT1 READ     1874283. AND WROTE     1914195. INTEGRALS IN      6 RECORDS. CPU TIME:     0.05 SEC, REAL TIME:     0.06 SEC
 SORT2 READ     1914195. AND WROTE     2006100. INTEGRALS IN      1 RECORDS. CPU TIME:     0.05 SEC, REAL TIME:     0.06 SEC

 FILE SIZES:   FILE 1:    50.1 MBYTE,  FILE 4:    25.2 MBYTE,   TOTAL:     75.3 MBYTE

 OPERATOR DM      FOR CENTER  0  COORDINATES:    0.000000    0.000000    0.000000


 **********************************************************************************************************************************
 DATASETS  * FILE   NREC   LENGTH (MB)   RECORD NAMES
              1      19       35.89       500      610      700      900      950      970     1000      129      960     1100   
                                          VAR    BASINP    GEOM    SYMINP    ZMAT    AOBASIS   BASIS     P2S    ABASIS      S 
                                         1400     1410     1200     1210     1080     1600     1650     1300     1700   
                                           T        V       H0       H01     AOSYM     SMH    MOLCAS    ERIS     OPER   

 PROGRAMS   *        TOTAL       INT
 CPU TIMES  *         0.62      0.53
 REAL TIME  *         1.32 SEC
 DISK USED  *        75.59 MB      
 **********************************************************************************************************************************


 PROGRAM * RHF-SCF (CLOSED SHELL)       Authors: W. Meyer, H.-J. Werner


 NUMBER OF ELECTRONS:       8+    8-
 CONVERGENCE THRESHOLDS:    1.00E-10 (Density)    1.00E-13 (Energy)
 MAX. NUMBER OF ITERATIONS:      500
 INTERPOLATION TYPE:            DIIS
 INTERPOLATION STEPS:              2 (START)      1 (STEP)
 LEVEL SHIFTS:                  0.00 (CLOSED)  0.00 (OPEN) 



 Orbital guess generated from atomic densities. Full valence occupancy:    9   2

 Molecular orbital dump at record        2100.2

 Initial occupancy:   7   1

 ITERATION    DDIFF          GRAD             ENERGY        2-EL.EN.            DIPOLE MOMENTS         DIIS   ORB.
    1      0.000D+00      0.000D+00      -129.77893909    153.913059    0.00000    0.60507   -1.06075    0    start
    2      0.000D+00      0.136D-01      -129.80562074    155.043300    0.00000    0.62099   -0.22677    1    diag
    3      0.187D-01      0.105D-01      -129.82843396    155.179659    0.00000    0.57312   -0.61533    2    diag
    4      0.911D-02      0.158D-02      -129.82918743    154.908552    0.00000    0.58126   -0.55427    3    diag
    5      0.168D-02      0.519D-03      -129.82930292    154.994348    0.00000    0.58659   -0.55533    4    diag
    6      0.723D-03      0.153D-03      -129.82932182    154.979661    0.00000    0.58712   -0.55106    5    diag
    7      0.278D-03      0.774D-04      -129.82932750    154.981816    0.00000    0.58830   -0.54847    6    diag
    8      0.194D-03      0.254D-04      -129.82932808    154.981108    0.00000    0.58831   -0.54761    7    diag
    9      0.683D-04      0.464D-05      -129.82932810    154.980986    0.00000    0.58826   -0.54744    8    diag
   10      0.134D-04      0.101D-05      -129.82932810    154.980969    0.00000    0.58822   -0.54742    9    orth
   11      0.288D-05      0.196D-06      -129.82932810    154.980965    0.00000    0.58822   -0.54742    9    diag
   12      0.515D-06      0.416D-07      -129.82932810    154.980963    0.00000    0.58821   -0.54741    9    diag
   13      0.111D-06      0.106D-07      -129.82932810    154.980963    0.00000    0.58821   -0.54741    9    diag
   14      0.281D-07      0.192D-08      -129.82932810    154.980963    0.00000    0.58821   -0.54741    9    diag
   15      0.424D-08      0.489D-09      -129.82932810    154.980963    0.00000    0.58821   -0.54741    9    diag
   16      0.107D-08      0.120D-09      -129.82932810    154.980963    0.00000    0.58821   -0.54741    9    diag
   17      0.173D-09      0.337D-10      -129.82932810    154.980963    0.00000    0.58821   -0.54741    9    diag
   18      0.521D-10      0.115D-10      -129.82932810    154.980963    0.00000    0.58821   -0.54741    0    orth

 Final occupancy:   7   1

 !RHF STATE 1.1 Energy               -129.829328104375
 Nuclear energy                        30.24363162
 One-electron energy                 -237.56344130
 Two-electron energy                   77.49048157
 Virial quotient                       -0.99977820
 !RHF STATE 1.1 Dipole moment           0.00000000     0.58821426    -0.54741344
 Dipole moment /Debye                   0.00000000     1.49499361    -1.39129505

 Orbital energies:

         1.1          2.1          3.1          4.1          5.1          6.1          7.1          8.1          9.1
    -20.648531   -15.707565    -1.519815    -0.995593    -0.742033    -0.659965    -0.429250     0.144158     0.368977

         1.2          2.2          3.2
     -0.588486     0.083556     0.613849

 HOMO      7.1    -0.429250 =     -11.6805eV
 LUMO      2.2     0.083556 =       2.2737eV
 LUMO-HOMO         0.512806 =      13.9542eV


 **********************************************************************************************************************************
 DATASETS  * FILE   NREC   LENGTH (MB)   RECORD NAMES
              1      19       35.89       500      610      700      900      950      970     1000      129      960     1100   
                                          VAR    BASINP    GEOM    SYMINP    ZMAT    AOBASIS   BASIS     P2S    ABASIS      S 
                                         1400     1410     1200     1210     1080     1600     1650     1300     1700   
                                           T        V       H0       H01     AOSYM     SMH    MOLCAS    ERIS     OPER   

              2       4        2.85       700     1000      520     2100   
                                         GEOM     BASIS   MCVARS     RHF  

 PROGRAMS   *        TOTAL        HF       INT
 CPU TIMES  *         0.82      0.20      0.53
 REAL TIME  *         1.58 SEC
 DISK USED  *        75.59 MB      
 **********************************************************************************************************************************


 PROGRAM * CCSD (Closed-shell coupled cluster)     Authors: C. Hampel, H.-J. Werner, 1991, M. Deegan, P.J. Knowles, 1992


 Convergence thresholds:  THRVAR = 1.00D-08  THRDEN = 1.00D-12

 CCSD(T)     terms to be evaluated (factor= 1.000)


 Number of core orbitals:           2 (   2   0 )
 Number of closed-shell orbitals:   6 (   5   1 )
 Number of external orbitals:      66 (  43  23 )

 Molecular orbitals read from record     2100.2  Type=RHF/CANONICAL (state 1.1)

 Number of N-1 electron functions:               6
 Number of N-2 electron functions:              21
 Number of singly external CSFs:               238
 Number of doubly external CSFs:             41002
 Total number of CSFs:                       41241

 Length of J-op  integral file:               0.00 MB
 Length of K-op  integral file:               0.25 MB
 Length of 3-ext integral record:             0.00 MB

 Memory could be reduced to 1.65 Mwords without degradation in triples

 Integral transformation finished. Total CPU:   0.05 sec, npass=  1  Memory used:   0.55 MW

 Reference energy:                   -129.82932810

 MP2 singlet pair energy:              -0.27410317
 MP2 triplet pair energy:              -0.16279109
 MP2 correlation energy:               -0.43689426
 MP2 total energy:                   -130.26622237

 SCS-MP2 correlation energy:           -0.43021604   (PS=  1.200000  PT=  0.333333)
 SCS-MP2 total energy:               -130.25954414

 ITER.      SQ.NORM     CORR.ENERGY   TOTAL ENERGY   ENERGY CHANGE        DEN1      VAR(S)    VAR(P)  DIIS     TIME  TIME/IT
   1      1.11888703    -0.44178266  -130.27111076    -0.00488840     0.01109995  0.30D-02  0.31D-02  1  1     0.10     0.05
   2      1.12984873    -0.44199063  -130.27131874    -0.00020797    -0.01239452  0.91D-04  0.51D-03  2  2     0.15     0.05
   3      1.13622782    -0.44238186  -130.27170996    -0.00039123    -0.00300536  0.48D-04  0.52D-04  3  3     0.19     0.05
   4      1.13910566    -0.44240969  -130.27173780    -0.00002783    -0.00097632  0.40D-05  0.92D-05  4  4     0.24     0.05
   5      1.14013387    -0.44243983  -130.27176793    -0.00003013    -0.00021264  0.13D-05  0.17D-05  5  5     0.28     0.05
   6      1.14050016    -0.44242257  -130.27175068     0.00001725    -0.00004187  0.88D-07  0.43D-06  6  6     0.33     0.05
   7      1.14058481    -0.44242494  -130.27175304    -0.00000236    -0.00000173  0.10D-07  0.93D-07  6  1     0.38     0.05
   8      1.14061515    -0.44242490  -130.27175301     0.00000003     0.00000211  0.49D-08  0.11D-07  6  2     0.42     0.05
   9      1.14062306    -0.44242472  -130.27175283     0.00000018    -0.00000239  0.27D-08  0.12D-08  6  3     0.47     0.05
  10      1.14062171    -0.44242524  -130.27175335    -0.00000052     0.00000068  0.51D-09  0.22D-09  6  4     0.52     0.05
  11      1.14062000    -0.44242530  -130.27175341    -0.00000006     0.00000015  0.15D-09  0.23D-10  6  5     0.57     0.05
  12      1.14061861    -0.44242548  -130.27175359    -0.00000018     0.00000044  0.15D-10  0.75D-11  6  6     0.62     0.05
  13      1.14061800    -0.44242549  -130.27175360    -0.00000001     0.00000012  0.63D-11  0.12D-11  6  1     0.66     0.05
  14      1.14061761    -0.44242551  -130.27175362    -0.00000002     0.00000008  0.89D-12  0.44D-12  6  2     0.71     0.05
  15      1.14061746    -0.44242551  -130.27175362    -0.00000000     0.00000002  0.23D-12  0.14D-12  6  3     0.76     0.05
  16      1.14061738    -0.44242552  -130.27175362    -0.00000000     0.00000001  0.14D-13  0.55D-13  6  4     0.81     0.05
  17      1.14061734    -0.44242552  -130.27175362    -0.00000000     0.00000001  0.25D-14  0.13D-13  6  5     0.86     0.05
  18      1.14061733    -0.44242552  -130.27175362     0.00000000     0.00000000  0.17D-14  0.33D-14  6  6     0.91     0.05
  19      1.14061733    -0.44242552  -130.27175362    -0.00000000    -0.00000000  0.81D-15  0.37D-15  6  1     0.96     0.05
  20      1.14061733    -0.44242552  -130.27175362     0.00000000    -0.00000000  0.66D-16  0.67D-16  6  2     1.01     0.05
  21      1.14061733    -0.44242552  -130.27175362    -0.00000000     0.00000000  0.37D-16  0.12D-16  6  3     1.06     0.05
  22      1.14061733    -0.44242552  -130.27175362    -0.00000000     0.00000000  0.64D-17  0.23D-17  6  4     1.10     0.05
  23      1.14061733    -0.44242552  -130.27175362    -0.00000000     0.00000000  0.23D-17  0.38D-18  6  5     1.14     0.05
  24      1.14061733    -0.44242552  -130.27175362    -0.00000000    -0.00000000  0.25D-18  0.11D-18  6  6     1.19     0.05
  25      1.14061733    -0.44242552  -130.27175362     0.00000000    -0.00000000  0.70D-19  0.26D-19  6  2     1.24     0.05
  26      1.14061733    -0.44242552  -130.27175362     0.00000000    -0.00000000  0.18D-20  0.22D-20  6  1     1.30     0.05
  27      1.14061733    -0.44242552  -130.27175362     0.00000000    -0.00000000  0.36D-21  0.70D-21  6  3     1.34     0.05

 Norm of t1 vector:      0.07579859      S-energy:     0.00000000      T1 diagnostic:  0.01547232
                                                                       D1 diagnostic:  0.04341959

 Doubles amplitudes (print threshold =  0.500E-01):

         I         J         SYM. A    SYM. B    A         B      T(IJ, AB)

         6         6         2         2         1         1     -0.14595095


 Total CPU time for triples:      0.39 sec


 RESULTS
 =======

  Reference energy                   -129.829328104375
  CCSD singlet pair energy             -0.303480634693
  CCSD triplet pair energy             -0.138944883249
  CCSD correlation energy              -0.442425517939

  Triples (T) contribution             -0.019928367527
  Total correlation energy             -0.462353885467

  CCSD total energy                  -130.271753622314
  CCSD[T] energy                     -130.292722451629
  CCSD-T energy                      -130.291280251330
 !CCSD(T) total energy               -130.291681989841

 Timing summary (sec):

 STEP                 CPU(USER)    SYS     CPU(TOT)    WALL
 Transformation          0.05      0.00      0.05      0.09
 CCSD iterations         1.29      0.12      1.41      1.41
 Triples                 0.39      0.00      0.39      0.39

 Program statistics:

 Available memory in ccsd:               994999756
 Min. memory needed in ccsd:                154850
 Max. memory used in ccsd:                  184802
 Max. memory used in cckext:                238416 (27 integral passes)



 **********************************************************************************************************************************
 DATASETS  * FILE   NREC   LENGTH (MB)   RECORD NAMES
              1      20       40.28       500      610      700      900      950      970     1000      129      960     1100   
                                          VAR    BASINP    GEOM    SYMINP    ZMAT    AOBASIS   BASIS     P2S    ABASIS      S 
                                         1400     1410     1200     1210     1080     1600     1650     1300     1700     1380   
                                           T        V       H0       H01     AOSYM     SMH    MOLCAS    ERIS     OPER     JKOP   

              2       4        2.85       700     1000      520     2100   
                                         GEOM     BASIS   MCVARS     RHF  

 PROGRAMS   *        TOTAL   CCSD(T)        HF       INT
 CPU TIMES  *         2.58      1.76      0.20      0.53
 REAL TIME  *         3.53 SEC
 DISK USED  *        75.59 MB      
 **********************************************************************************************************************************

 CCSD(T)/cc-pVTZ-DK energy=   -130.291681989841

        CCSD(T)         HF-SCF  
   -130.29168199   -129.82932810
 **********************************************************************************************************************************
 Molpro calculation terminated
 Variable memory released
