
 Primary working directories    : /tmp/r2666/235046.maple
 Secondary working directories  : /tmp/r2666/235046.maple
 Wavefunction directory         : /ddn/home4/r2666/wfu/
 Main file repository           : /tmp/r2666/235046.maple/

 SHA1      : d5ffa45e93fdbca01ffc919aa182cfdae0147319
 NAME      : 2015.1.35
 ARCHNAME  : linux/x86_64
 FC        : /opt/intel/composer_xe_2015.1.133/bin/intel64/ifort
 BLASLIB   : -Wl,-_start-group /opt/intel/mkl/lib/intel64/libmkl_intel_ilp64.a /opt/intel/mkl/lib/intel64/libmkl_intel_thread.a /opt/intel/mkl/lib/intel64/libmkl_core.a -Wl,-_end-group
 id        : olemiss

 Nodes     nprocs
 cn076        1

 Using customized tuning parameters: mindgm=1; mindgv=20; mindgc=4; mindgr=1; noblas=0; minvec=7
 default implementation of scratch files=df  

 ***,hno CCSD(T)/TZ-F12 QFF
 memory, 995, m;
 gthresh,energy=1.d-12,zero=1.d-22,oneint=1.d-22,twoint=1.d-22;
 gthresh,optgrad=1.d-8,optstep=1.d-8;
 nocompress;
 geomtyp=xyz
 bohr
 geometry={
 3
         31        31
 N        0.0000000000       -0.1500274780       -1.1382185015
 H        0.0000000000        1.6616078065       -1.9337473033
 O        0.0000000000        0.0301874615        1.1213762138
 }
 
 basis=vtz-dk
 dkroll=0
   {hf,maxit=500;accu,20;}
 {ccsd(t),nocheck,maxit=250;orbital,IGNORE_ERROR;}

 Variables initialized (889), CPU time= 0.01 sec
 Commands  initialized (702), CPU time= 0.01 sec, 572 directives.
 Default parameters read. Elapsed time= 0.09 sec

 Checking input...
 Passed
1


                                         ***  PROGRAM SYSTEM MOLPRO  ***
                                       Copyright, TTI GmbH Stuttgart, 2015
                                    Version 2015.1 linked Jul  9 2018 13:16:40


 **********************************************************************************************************************************
 LABEL *   hno CCSD(T)/TZ-F12 QFF                                                        
  64 bit serial version                                                                  DATE: 08-Feb-20          TIME: 17:57:01  
 **********************************************************************************************************************************

 SHA1:             d5ffa45e93fdbca01ffc919aa182cfdae0147319
 **********************************************************************************************************************************

 THRESHOLDS:

 ZERO    =  1.00D-22  ONEINT  =  1.00D-22  TWOINT  =  1.00D-22  PREFAC  =  1.00D-14  LOCALI  =  1.00D-09  EORDER  =  1.00D-04
 ENERGY  =  1.00D-12  ETEST   =  0.00D+00  EDENS   =  0.00D+00  THRDEDEF=  1.00D-06  GRADIENT=  1.00D-02  STEP    =  1.00D-03
 ORBITAL =  1.00D-05  CIVEC   =  1.00D-05  COEFF   =  1.00D-04  PRINTCI =  5.00D-02  PUNCHCI =  9.90D+01  OPTGRAD =  3.00D-04
 OPTENERG=  1.00D-06  OPTSTEP =  3.00D-04  THRGRAD =  1.00D-10  COMPRESS=  1.00D-11  VARMIN  =  1.00D-07  VARMAX  =  1.00D-03
 THRDOUB =  0.00D+00  THRDIV  =  1.00D-05  THRRED  =  1.00D-07  THRPSP  =  1.00D+00  THRDC   =  1.00D-10  THRCS   =  1.00D-10
 THRNRM  =  1.00D-08  THREQ   =  0.00D+00  THRDE   =  1.00D+00  THRREF  =  1.00D-05  SPARFAC =  1.00D+00  THRDLP  =  1.00D-07
 THRDIA  =  1.00D-10  THRDLS  =  1.00D-07  THRGPS  =  0.00D+00  THRKEX  =  0.00D+00  THRDIS  =  2.00D-01  THRVAR  =  1.00D-10
 THRLOC  =  1.00D-06  THRGAP  =  1.00D-06  THRLOCT = -1.00D+00  THRGAPT = -1.00D+00  THRORB  =  1.00D-06  THRMLTP =  0.00D+00
 THRCPQCI=  1.00D-10  KEXTA   =  0.00D+00  THRCOARS=  0.00D+00  SYMTOL  =  1.00D-06  GRADTOL =  1.00D-06  THROVL  =  1.00D-08
 THRORTH =  1.00D-08  GRID    =  1.00D-06  GRIDMAX =  1.00D-03  DTMAX   =  0.00D+00  THROCCDE=  1.00D-01  THROCCDE=  1.00D-01



 THRESHOLDS:

 ZERO    =  1.00D-22  ONEINT  =  1.00D-22  TWOINT  =  1.00D-22  PREFAC  =  1.00D-14  LOCALI  =  1.00D-09  EORDER  =  1.00D-04
 ENERGY  =  1.00D-12  ETEST   =  0.00D+00  EDENS   =  0.00D+00  THRDEDEF=  1.00D-06  GRADIENT=  1.00D-02  STEP    =  1.00D-03
 ORBITAL =  1.00D-05  CIVEC   =  1.00D-05  COEFF   =  1.00D-04  PRINTCI =  5.00D-02  PUNCHCI =  9.90D+01  OPTGRAD =  1.00D-08
 OPTENERG=  1.00D-06  OPTSTEP =  1.00D-08  THRGRAD =  1.00D-10  COMPRESS=  1.00D-11  VARMIN  =  1.00D-07  VARMAX  =  1.00D-03
 THRDOUB =  0.00D+00  THRDIV  =  1.00D-05  THRRED  =  1.00D-07  THRPSP  =  1.00D+00  THRDC   =  1.00D-10  THRCS   =  1.00D-10
 THRNRM  =  1.00D-08  THREQ   =  0.00D+00  THRDE   =  1.00D+00  THRREF  =  1.00D-05  SPARFAC =  1.00D+00  THRDLP  =  1.00D-07
 THRDIA  =  1.00D-10  THRDLS  =  1.00D-07  THRGPS  =  0.00D+00  THRKEX  =  0.00D+00  THRDIS  =  2.00D-01  THRVAR  =  1.00D-10
 THRLOC  =  1.00D-06  THRGAP  =  1.00D-06  THRLOCT = -1.00D+00  THRGAPT = -1.00D+00  THRORB  =  1.00D-06  THRMLTP =  0.00D+00
 THRCPQCI=  1.00D-10  KEXTA   =  0.00D+00  THRCOARS=  0.00D+00  SYMTOL  =  1.00D-06  GRADTOL =  1.00D-06  THROVL  =  1.00D-08
 THRORTH =  1.00D-08  GRID    =  1.00D-06  GRIDMAX =  1.00D-03  DTMAX   =  0.00D+00  THROCCDE=  1.00D-01  THROCCDE=  1.00D-01



 Input parameters for SORTINT:

 COMPRESS =    0.000000
 C_FINAL  =    1.000000
 DEBUG    =   -1.000000
 C_SORT1  =    0.000000
 C_SEWARD =    0.000000
 THRESH   =    0.000000
 IO       =  molpro                                                          
 SPRI     =    0.000000
 SETTING GEOMTYP        =    XYZ
 ZUNIT=BOHR
 

 Variable memory set to  995000000 words,  buffer space   230000 words

 SETTING BASIS          =    VTZ-DK
 SETTING DKROLL         =     0.00000000D+00                                  


 Recomputing integrals since basis changed


 Using spherical harmonics

 Library entry N      S cc-pVTZ-DK           selected for orbital group  1
 Library entry N      P cc-pVTZ-DK           selected for orbital group  1
 Library entry N      D cc-pVTZ-DK           selected for orbital group  1
 Library entry N      F cc-pVTZ-DK           selected for orbital group  1
 Library entry H      S cc-pVTZ-DK           selected for orbital group  2
 Library entry H      P cc-pVTZ-DK           selected for orbital group  2
 Library entry H      D cc-pVTZ-DK           selected for orbital group  2
 Library entry O      S cc-pVTZ-DK           selected for orbital group  3
 Library entry O      P cc-pVTZ-DK           selected for orbital group  3
 Library entry O      D cc-pVTZ-DK           selected for orbital group  3
 Library entry O      F cc-pVTZ-DK           selected for orbital group  3


 PROGRAM * SEWARD (Integral evaluation for generally contracted gaussian basis sets)     Author: Roland Lindh, 1990

 Geometry written to block  1 of record 700


 Point group  Cs  



 ATOMIC COORDINATES

 NR  ATOM    CHARGE       X              Y              Z

   1  N       7.00    0.000000000   -0.150027478   -1.138218501
   2  H       1.00    0.000000000    1.661607806   -1.933747303
   3  O       8.00    0.000000000    0.030187461    1.121376214

 Bond lengths in Bohr (Angstrom)

 1-2  1.978607712  1-3  2.266769883
     ( 1.047034111)     ( 1.199522964)

 Bond angles

  2-1-3  109.14733476

 NUCLEAR CHARGE:                   16
 NUMBER OF PRIMITIVE AOS:         111
 NUMBER OF SYMMETRY AOS:          100
 NUMBER OF CONTRACTIONS:           74   (  50A'  +  24A"  )
 NUMBER OF CORE ORBITALS:           2   (   2A'  +   0A"  )
 NUMBER OF VALENCE ORBITALS:        9   (   7A'  +   2A"  )


 NUCLEAR REPULSION ENERGY   30.55245095

 Eigenvalues of metric

         1 0.240E-02 0.391E-02 0.403E-02 0.824E-02 0.129E-01 0.320E-01 0.421E-01 0.461E-01
         2 0.339E-01 0.463E-01 0.101E+00 0.109E+00 0.231E+00 0.340E+00 0.391E+00 0.447E+00


 Contracted 2-electron integrals neglected if value below      1.0D-22

        1874283. INTEGRALS WRITTEN OUT IN     458 BLOCKS ON RECORD 1290 OF FILE 1


 NUMBER OF SORTED TWO-ELECTRON INTEGRALS:    2006100.     BUFFER LENGTH:  32768
 NUMBER OF SEGMENTS:   1  SEGMENT LENGTH:    2006100      RECORD LENGTH: 524288

 Memory used in sort:       2.56 MW

 SORT1 READ     1874283. AND WROTE     1914195. INTEGRALS IN      6 RECORDS. CPU TIME:     0.03 SEC, REAL TIME:     0.04 SEC
 SORT2 READ     1914195. AND WROTE     2006100. INTEGRALS IN      1 RECORDS. CPU TIME:     0.04 SEC, REAL TIME:     0.05 SEC

 FILE SIZES:   FILE 1:    50.1 MBYTE,  FILE 4:    25.2 MBYTE,   TOTAL:     75.3 MBYTE

 OPERATOR DM      FOR CENTER  0  COORDINATES:    0.000000    0.000000    0.000000


 **********************************************************************************************************************************
 DATASETS  * FILE   NREC   LENGTH (MB)   RECORD NAMES
              1      19       35.89       500      610      700      900      950      970     1000      129      960     1100   
                                          VAR    BASINP    GEOM    SYMINP    ZMAT    AOBASIS   BASIS     P2S    ABASIS      S 
                                         1400     1410     1200     1210     1080     1600     1650     1300     1700   
                                           T        V       H0       H01     AOSYM     SMH    MOLCAS    ERIS     OPER   

 PROGRAMS   *        TOTAL       INT
 CPU TIMES  *         0.62      0.52
 REAL TIME  *         1.25 SEC
 DISK USED  *        75.59 MB      
 **********************************************************************************************************************************


 PROGRAM * RHF-SCF (CLOSED SHELL)       Authors: W. Meyer, H.-J. Werner


 NUMBER OF ELECTRONS:       8+    8-
 CONVERGENCE THRESHOLDS:    1.00E-10 (Density)    1.00E-13 (Energy)
 MAX. NUMBER OF ITERATIONS:      500
 INTERPOLATION TYPE:            DIIS
 INTERPOLATION STEPS:              2 (START)      1 (STEP)
 LEVEL SHIFTS:                  0.00 (CLOSED)  0.00 (OPEN) 



 Orbital guess generated from atomic densities. Full valence occupancy:    9   2

 Molecular orbital dump at record        2100.2

 Initial occupancy:   7   1

 ITERATION    DDIFF          GRAD             ENERGY        2-EL.EN.            DIPOLE MOMENTS         DIIS   ORB.
    1      0.000D+00      0.000D+00      -129.78296262    154.463387    0.00000    0.59813   -1.01317    0    start
    2      0.000D+00      0.134D-01      -129.81006567    155.628116    0.00000    0.61019   -0.23461    1    diag
    3      0.182D-01      0.996D-02      -129.83055517    155.730555    0.00000    0.56513   -0.59429    2    diag
    4      0.873D-02      0.155D-02      -129.83128071    155.469569    0.00000    0.57333   -0.53570    3    diag
    5      0.166D-02      0.507D-03      -129.83139148    155.554530    0.00000    0.57874   -0.53711    4    diag
    6      0.708D-03      0.150D-03      -129.83140954    155.540008    0.00000    0.57934   -0.53311    5    diag
    7      0.273D-03      0.745D-04      -129.83141470    155.542349    0.00000    0.58058   -0.53074    6    diag
    8      0.187D-03      0.233D-04      -129.83141516    155.541707    0.00000    0.58060   -0.52998    7    diag
    9      0.605D-04      0.422D-05      -129.83141518    155.541598    0.00000    0.58056   -0.52984    8    diag
   10      0.117D-04      0.957D-06      -129.83141518    155.541581    0.00000    0.58052   -0.52981    9    orth
   11      0.275D-05      0.187D-06      -129.83141518    155.541577    0.00000    0.58051   -0.52981    9    diag
   12      0.502D-06      0.380D-07      -129.83141518    155.541575    0.00000    0.58051   -0.52981    9    diag
   13      0.107D-06      0.926D-08      -129.83141518    155.541575    0.00000    0.58051   -0.52981    9    diag
   14      0.262D-07      0.171D-08      -129.83141518    155.541575    0.00000    0.58051   -0.52981    9    diag
   15      0.435D-08      0.448D-09      -129.83141518    155.541575    0.00000    0.58051   -0.52981    9    diag
   16      0.104D-08      0.115D-09      -129.83141518    155.541575    0.00000    0.58051   -0.52981    9    diag
   17      0.200D-09      0.328D-10      -129.83141518    155.541575    0.00000    0.58051   -0.52981    9    diag
   18      0.635D-10      0.110D-10      -129.83141518    155.541575    0.00000    0.58051   -0.52981    9    diag
   19      0.264D-10      0.245D-11      -129.83141518    155.541575    0.00000    0.58051   -0.52981    9    fixocc
   20      0.634D-11      0.448D-12      -129.83141518    155.541575    0.00000    0.58051   -0.52981    9    orth
   21      0.840D-12      0.134D-12      -129.83141518    155.541575    0.00000    0.58051   -0.52981    9    diag
   22      0.321D-12      0.348D-13      -129.83141518    155.541575    0.00000    0.58051   -0.52981    9    diag
   23      0.117D-12      0.233D-13      -129.83141518    155.541575    0.00000    0.58051   -0.52981    0    orth

 Final occupancy:   7   1

 !RHF STATE 1.1 Energy               -129.831415183658
 Nuclear energy                        30.55245095
 One-electron energy                 -238.15465357
 Two-electron energy                   77.77078744
 Virial quotient                       -0.99939360
 !RHF STATE 1.1 Dipole moment           0.00000000     0.58051223    -0.52980921
 Dipole moment /Debye                   0.00000000     1.47541827    -1.34655250

 Orbital energies:

         1.1          2.1          3.1          4.1          5.1          6.1          7.1          8.1          9.1
    -20.647211   -15.705445    -1.532399    -0.990855    -0.746239    -0.664566    -0.423889     0.144675     0.371136

         1.2          2.2          3.2
     -0.595935     0.089369     0.612137

 HOMO      7.1    -0.423889 =     -11.5346eV
 LUMO      2.2     0.089369 =       2.4318eV
 LUMO-HOMO         0.513258 =      13.9665eV


 **********************************************************************************************************************************
 DATASETS  * FILE   NREC   LENGTH (MB)   RECORD NAMES
              1      19       35.89       500      610      700      900      950      970     1000      129      960     1100   
                                          VAR    BASINP    GEOM    SYMINP    ZMAT    AOBASIS   BASIS     P2S    ABASIS      S 
                                         1400     1410     1200     1210     1080     1600     1650     1300     1700   
                                           T        V       H0       H01     AOSYM     SMH    MOLCAS    ERIS     OPER   

              2       4        2.85       700     1000      520     2100   
                                         GEOM     BASIS   MCVARS     RHF  

 PROGRAMS   *        TOTAL        HF       INT
 CPU TIMES  *         0.85      0.23      0.52
 REAL TIME  *         1.60 SEC
 DISK USED  *        75.59 MB      
 **********************************************************************************************************************************


 PROGRAM * CCSD (Closed-shell coupled cluster)     Authors: C. Hampel, H.-J. Werner, 1991, M. Deegan, P.J. Knowles, 1992


 Convergence thresholds:  THRVAR = 1.00D-08  THRDEN = 1.00D-12

 CCSD(T)     terms to be evaluated (factor= 1.000)


 Number of core orbitals:           2 (   2   0 )
 Number of closed-shell orbitals:   6 (   5   1 )
 Number of external orbitals:      66 (  43  23 )

 Molecular orbitals read from record     2100.2  Type=RHF/CANONICAL (state 1.1)

 Number of N-1 electron functions:               6
 Number of N-2 electron functions:              21
 Number of singly external CSFs:               238
 Number of doubly external CSFs:             41002
 Total number of CSFs:                       41241

 Length of J-op  integral file:               0.00 MB
 Length of K-op  integral file:               0.25 MB
 Length of 3-ext integral record:             0.00 MB

 Memory could be reduced to 1.65 Mwords without degradation in triples

 Integral transformation finished. Total CPU:   0.03 sec, npass=  1  Memory used:   0.55 MW

 Reference energy:                   -129.83141518

 MP2 singlet pair energy:              -0.27255965
 MP2 triplet pair energy:              -0.16177630
 MP2 correlation energy:               -0.43433595
 MP2 total energy:                   -130.26575114

 SCS-MP2 correlation energy:           -0.42773239   (PS=  1.200000  PT=  0.333333)
 SCS-MP2 total energy:               -130.25914757

 ITER.      SQ.NORM     CORR.ENERGY   TOTAL ENERGY   ENERGY CHANGE        DEN1      VAR(S)    VAR(P)  DIIS     TIME  TIME/IT
   1      1.11735602    -0.43980485  -130.27122004    -0.00546890     0.00992210  0.28D-02  0.29D-02  1  1     0.07     0.04
   2      1.12796856    -0.44012647  -130.27154166    -0.00032162    -0.01204844  0.83D-04  0.49D-03  2  2     0.11     0.04
   3      1.13405474    -0.44049791  -130.27191309    -0.00037144    -0.00290904  0.45D-04  0.49D-04  3  3     0.14     0.04
   4      1.13675991    -0.44052346  -130.27193864    -0.00002554    -0.00092978  0.37D-05  0.87D-05  4  4     0.18     0.04
   5      1.13771149    -0.44055126  -130.27196645    -0.00002781    -0.00019672  0.13D-05  0.17D-05  5  5     0.22     0.04
   6      1.13806150    -0.44053578  -130.27195096     0.00001549    -0.00003929  0.92D-07  0.42D-06  6  6     0.26     0.04
   7      1.13814840    -0.44053774  -130.27195292    -0.00000196    -0.00000247  0.11D-07  0.86D-07  6  1     0.28     0.04
   8      1.13817871    -0.44053788  -130.27195307    -0.00000014     0.00000197  0.46D-08  0.98D-08  6  2     0.32     0.04
   9      1.13818623    -0.44053769  -130.27195288     0.00000019    -0.00000227  0.25D-08  0.11D-08  6  3     0.35     0.04
  10      1.13818496    -0.44053819  -130.27195337    -0.00000050     0.00000061  0.49D-09  0.20D-09  6  4     0.39     0.04
  11      1.13818323    -0.44053825  -130.27195343    -0.00000006     0.00000019  0.15D-09  0.22D-10  6  5     0.43     0.04
  12      1.13818186    -0.44053842  -130.27195360    -0.00000017     0.00000042  0.15D-10  0.74D-11  6  6     0.47     0.04
  13      1.13818126    -0.44053843  -130.27195361    -0.00000001     0.00000012  0.66D-11  0.12D-11  6  1     0.51     0.04
  14      1.13818089    -0.44053845  -130.27195363    -0.00000002     0.00000007  0.90D-12  0.42D-12  6  2     0.55     0.04
  15      1.13818076    -0.44053845  -130.27195363    -0.00000000     0.00000001  0.22D-12  0.14D-12  6  3     0.58     0.04
  16      1.13818066    -0.44053845  -130.27195363    -0.00000000     0.00000001  0.25D-13  0.16D-13  6  5     0.61     0.04
  17      1.13818063    -0.44053845  -130.27195363    -0.00000000     0.00000000  0.89D-15  0.24D-14  6  4     0.65     0.04
  18      1.13818063    -0.44053845  -130.27195363     0.00000000    -0.00000000  0.54D-15  0.34D-15  6  1     0.69     0.04
  19      1.13818063    -0.44053845  -130.27195363    -0.00000000     0.00000000  0.48D-16  0.60D-16  6  6     0.73     0.04
  20      1.13818063    -0.44053845  -130.27195363    -0.00000000     0.00000000  0.10D-16  0.14D-16  6  2     0.76     0.04
  21      1.13818062    -0.44053845  -130.27195363    -0.00000000     0.00000000  0.19D-17  0.11D-17  6  5     0.80     0.04
  22      1.13818062    -0.44053845  -130.27195363     0.00000000     0.00000000  0.12D-18  0.80D-19  6  3     0.83     0.04
  23      1.13818062    -0.44053845  -130.27195363     0.00000000    -0.00000000  0.33D-19  0.17D-19  6  4     0.87     0.04
  24      1.13818062    -0.44053845  -130.27195363     0.00000000    -0.00000000  0.47D-20  0.49D-20  6  1     0.90     0.04
  25      1.13818062    -0.44053845  -130.27195363     0.00000000    -0.00000000  0.50D-21  0.86D-21  6  6     0.94     0.04

 Norm of t1 vector:      0.07371213      S-energy:     0.00000000      T1 diagnostic:  0.01504642
                                                                       D1 diagnostic:  0.04143130

 Doubles amplitudes (print threshold =  0.500E-01):

         I         J         SYM. A    SYM. B    A         B      T(IJ, AB)

         6         6         2         2         1         1     -0.14149890


 Total CPU time for triples:      0.24 sec


 RESULTS
 =======

  Reference energy                   -129.831415183658
  CCSD singlet pair energy             -0.301832600414
  CCSD triplet pair energy             -0.138705850128
  CCSD correlation energy              -0.440538450542

  Triples (T) contribution             -0.019490747880
  Total correlation energy             -0.460029198422

  CCSD total energy                  -130.271953634200
  CCSD[T] energy                     -130.292426159033
  CCSD-T energy                      -130.291056564601
 !CCSD(T) total energy               -130.291444382080

 Timing summary (sec):

 STEP                 CPU(USER)    SYS     CPU(TOT)    WALL
 Transformation          0.03      0.01      0.04      0.04
 CCSD iterations         0.91      0.10      1.01      1.03
 Triples                 0.24      0.00      0.24      0.24

 Program statistics:

 Available memory in ccsd:               994999756
 Min. memory needed in ccsd:                154850
 Max. memory used in ccsd:                  184802
 Max. memory used in cckext:                238416 (25 integral passes)



 **********************************************************************************************************************************
 DATASETS  * FILE   NREC   LENGTH (MB)   RECORD NAMES
              1      20       40.28       500      610      700      900      950      970     1000      129      960     1100   
                                          VAR    BASINP    GEOM    SYMINP    ZMAT    AOBASIS   BASIS     P2S    ABASIS      S 
                                         1400     1410     1200     1210     1080     1600     1650     1300     1700     1380   
                                           T        V       H0       H01     AOSYM     SMH    MOLCAS    ERIS     OPER     JKOP   

              2       4        2.85       700     1000      520     2100   
                                         GEOM     BASIS   MCVARS     RHF  

 PROGRAMS   *        TOTAL   CCSD(T)        HF       INT
 CPU TIMES  *         2.06      1.20      0.23      0.52
 REAL TIME  *         2.95 SEC
 DISK USED  *        75.59 MB      
 **********************************************************************************************************************************

 CCSD(T)/cc-pVTZ-DK energy=   -130.291444382080

        CCSD(T)         HF-SCF  
   -130.29144438   -129.83141518
 **********************************************************************************************************************************
 Molpro calculation terminated
 Variable memory released
