
 Primary working directories    : /tmp/r2666/235119.maple
 Secondary working directories  : /tmp/r2666/235119.maple
 Wavefunction directory         : /ddn/home4/r2666/wfu/
 Main file repository           : /tmp/r2666/235119.maple/

 SHA1      : d5ffa45e93fdbca01ffc919aa182cfdae0147319
 NAME      : 2015.1.35
 ARCHNAME  : linux/x86_64
 FC        : /opt/intel/composer_xe_2015.1.133/bin/intel64/ifort
 BLASLIB   : -Wl,-_start-group /opt/intel/mkl/lib/intel64/libmkl_intel_ilp64.a /opt/intel/mkl/lib/intel64/libmkl_intel_thread.a /opt/intel/mkl/lib/intel64/libmkl_core.a -Wl,-_end-group
 id        : olemiss

 Nodes     nprocs
 cn092        1

 Using customized tuning parameters: mindgm=1; mindgv=20; mindgc=4; mindgr=1; noblas=0; minvec=7
 default implementation of scratch files=df  

 ***,hno CCSD(T)/TZ-F12 QFF
 memory, 995, m;
 gthresh,energy=1.d-12,zero=1.d-22,oneint=1.d-22,twoint=1.d-22;
 gthresh,optgrad=1.d-8,optstep=1.d-8;
 nocompress;
 geomtyp=xyz
 bohr
 geometry={
 3
        104       104
 N        0.0000000000       -0.1652743409       -1.1482842300
 H        0.0000000000        1.6717571295       -1.9327212831
 O        0.0000000000        0.0352850014        1.1304159221
 }
 
 basis=vtz-dk
 dkroll=0
   {hf,maxit=500;accu,20;}
 {ccsd(t),nocheck,maxit=250;orbital,IGNORE_ERROR;}

 Variables initialized (889), CPU time= 0.01 sec
 Commands  initialized (702), CPU time= 0.01 sec, 572 directives.
 Default parameters read. Elapsed time= 0.09 sec

 Checking input...
 Passed
1


                                         ***  PROGRAM SYSTEM MOLPRO  ***
                                       Copyright, TTI GmbH Stuttgart, 2015
                                    Version 2015.1 linked Jul  9 2018 13:16:40


 **********************************************************************************************************************************
 LABEL *   hno CCSD(T)/TZ-F12 QFF                                                        
  64 bit serial version                                                                  DATE: 08-Feb-20          TIME: 17:57:11  
 **********************************************************************************************************************************

 SHA1:             d5ffa45e93fdbca01ffc919aa182cfdae0147319
 **********************************************************************************************************************************

 THRESHOLDS:

 ZERO    =  1.00D-22  ONEINT  =  1.00D-22  TWOINT  =  1.00D-22  PREFAC  =  1.00D-14  LOCALI  =  1.00D-09  EORDER  =  1.00D-04
 ENERGY  =  1.00D-12  ETEST   =  0.00D+00  EDENS   =  0.00D+00  THRDEDEF=  1.00D-06  GRADIENT=  1.00D-02  STEP    =  1.00D-03
 ORBITAL =  1.00D-05  CIVEC   =  1.00D-05  COEFF   =  1.00D-04  PRINTCI =  5.00D-02  PUNCHCI =  9.90D+01  OPTGRAD =  3.00D-04
 OPTENERG=  1.00D-06  OPTSTEP =  3.00D-04  THRGRAD =  1.00D-10  COMPRESS=  1.00D-11  VARMIN  =  1.00D-07  VARMAX  =  1.00D-03
 THRDOUB =  0.00D+00  THRDIV  =  1.00D-05  THRRED  =  1.00D-07  THRPSP  =  1.00D+00  THRDC   =  1.00D-10  THRCS   =  1.00D-10
 THRNRM  =  1.00D-08  THREQ   =  0.00D+00  THRDE   =  1.00D+00  THRREF  =  1.00D-05  SPARFAC =  1.00D+00  THRDLP  =  1.00D-07
 THRDIA  =  1.00D-10  THRDLS  =  1.00D-07  THRGPS  =  0.00D+00  THRKEX  =  0.00D+00  THRDIS  =  2.00D-01  THRVAR  =  1.00D-10
 THRLOC  =  1.00D-06  THRGAP  =  1.00D-06  THRLOCT = -1.00D+00  THRGAPT = -1.00D+00  THRORB  =  1.00D-06  THRMLTP =  0.00D+00
 THRCPQCI=  1.00D-10  KEXTA   =  0.00D+00  THRCOARS=  0.00D+00  SYMTOL  =  1.00D-06  GRADTOL =  1.00D-06  THROVL  =  1.00D-08
 THRORTH =  1.00D-08  GRID    =  1.00D-06  GRIDMAX =  1.00D-03  DTMAX   =  0.00D+00  THROCCDE=  1.00D-01  THROCCDE=  1.00D-01



 THRESHOLDS:

 ZERO    =  1.00D-22  ONEINT  =  1.00D-22  TWOINT  =  1.00D-22  PREFAC  =  1.00D-14  LOCALI  =  1.00D-09  EORDER  =  1.00D-04
 ENERGY  =  1.00D-12  ETEST   =  0.00D+00  EDENS   =  0.00D+00  THRDEDEF=  1.00D-06  GRADIENT=  1.00D-02  STEP    =  1.00D-03
 ORBITAL =  1.00D-05  CIVEC   =  1.00D-05  COEFF   =  1.00D-04  PRINTCI =  5.00D-02  PUNCHCI =  9.90D+01  OPTGRAD =  1.00D-08
 OPTENERG=  1.00D-06  OPTSTEP =  1.00D-08  THRGRAD =  1.00D-10  COMPRESS=  1.00D-11  VARMIN  =  1.00D-07  VARMAX  =  1.00D-03
 THRDOUB =  0.00D+00  THRDIV  =  1.00D-05  THRRED  =  1.00D-07  THRPSP  =  1.00D+00  THRDC   =  1.00D-10  THRCS   =  1.00D-10
 THRNRM  =  1.00D-08  THREQ   =  0.00D+00  THRDE   =  1.00D+00  THRREF  =  1.00D-05  SPARFAC =  1.00D+00  THRDLP  =  1.00D-07
 THRDIA  =  1.00D-10  THRDLS  =  1.00D-07  THRGPS  =  0.00D+00  THRKEX  =  0.00D+00  THRDIS  =  2.00D-01  THRVAR  =  1.00D-10
 THRLOC  =  1.00D-06  THRGAP  =  1.00D-06  THRLOCT = -1.00D+00  THRGAPT = -1.00D+00  THRORB  =  1.00D-06  THRMLTP =  0.00D+00
 THRCPQCI=  1.00D-10  KEXTA   =  0.00D+00  THRCOARS=  0.00D+00  SYMTOL  =  1.00D-06  GRADTOL =  1.00D-06  THROVL  =  1.00D-08
 THRORTH =  1.00D-08  GRID    =  1.00D-06  GRIDMAX =  1.00D-03  DTMAX   =  0.00D+00  THROCCDE=  1.00D-01  THROCCDE=  1.00D-01



 Input parameters for SORTINT:

 COMPRESS =    0.000000
 C_FINAL  =    1.000000
 DEBUG    =   -1.000000
 C_SORT1  =    0.000000
 C_SEWARD =    0.000000
 THRESH   =    0.000000
 IO       =  molpro                                                          
 SPRI     =    0.000000
 SETTING GEOMTYP        =    XYZ
 ZUNIT=BOHR
 

 Variable memory set to  995000000 words,  buffer space   230000 words

 SETTING BASIS          =    VTZ-DK
 SETTING DKROLL         =     0.00000000D+00                                  


 Recomputing integrals since basis changed


 Using spherical harmonics

 Library entry N      S cc-pVTZ-DK           selected for orbital group  1
 Library entry N      P cc-pVTZ-DK           selected for orbital group  1
 Library entry N      D cc-pVTZ-DK           selected for orbital group  1
 Library entry N      F cc-pVTZ-DK           selected for orbital group  1
 Library entry H      S cc-pVTZ-DK           selected for orbital group  2
 Library entry H      P cc-pVTZ-DK           selected for orbital group  2
 Library entry H      D cc-pVTZ-DK           selected for orbital group  2
 Library entry O      S cc-pVTZ-DK           selected for orbital group  3
 Library entry O      P cc-pVTZ-DK           selected for orbital group  3
 Library entry O      D cc-pVTZ-DK           selected for orbital group  3
 Library entry O      F cc-pVTZ-DK           selected for orbital group  3


 PROGRAM * SEWARD (Integral evaluation for generally contracted gaussian basis sets)     Author: Roland Lindh, 1990

 Geometry written to block  1 of record 700


 Point group  Cs  



 ATOMIC COORDINATES

 NR  ATOM    CHARGE       X              Y              Z

   1  N       7.00    0.000000000   -0.165274341   -1.148284230
   2  H       1.00    0.000000000    1.671757129   -1.932721283
   3  O       8.00    0.000000000    0.035285001    1.130415922

 Bond lengths in Bohr (Angstrom)

 1-2  1.997504972  1-3  2.287509220
     ( 1.057034110)     ( 1.210497749)

 Bond angles

  2-1-3  108.09321636

 NUCLEAR CHARGE:                   16
 NUMBER OF PRIMITIVE AOS:         111
 NUMBER OF SYMMETRY AOS:          100
 NUMBER OF CONTRACTIONS:           74   (  50A'  +  24A"  )
 NUMBER OF CORE ORBITALS:           2   (   2A'  +   0A"  )
 NUMBER OF VALENCE ORBITALS:        9   (   7A'  +   2A"  )


 NUCLEAR REPULSION ENERGY   30.28871530

 Eigenvalues of metric

         1 0.247E-02 0.400E-02 0.419E-02 0.846E-02 0.131E-01 0.330E-01 0.427E-01 0.464E-01
         2 0.344E-01 0.466E-01 0.102E+00 0.113E+00 0.236E+00 0.344E+00 0.397E+00 0.451E+00


 Contracted 2-electron integrals neglected if value below      1.0D-22

        1874283. INTEGRALS WRITTEN OUT IN     458 BLOCKS ON RECORD 1290 OF FILE 1


 NUMBER OF SORTED TWO-ELECTRON INTEGRALS:    2006100.     BUFFER LENGTH:  32768
 NUMBER OF SEGMENTS:   1  SEGMENT LENGTH:    2006100      RECORD LENGTH: 524288

 Memory used in sort:       2.56 MW

 SORT1 READ     1874283. AND WROTE     1914195. INTEGRALS IN      6 RECORDS. CPU TIME:     0.02 SEC, REAL TIME:     0.05 SEC
 SORT2 READ     1914195. AND WROTE     2006100. INTEGRALS IN      1 RECORDS. CPU TIME:     0.03 SEC, REAL TIME:     0.06 SEC

 FILE SIZES:   FILE 1:    50.1 MBYTE,  FILE 4:    25.2 MBYTE,   TOTAL:     75.3 MBYTE

 OPERATOR DM      FOR CENTER  0  COORDINATES:    0.000000    0.000000    0.000000


 **********************************************************************************************************************************
 DATASETS  * FILE   NREC   LENGTH (MB)   RECORD NAMES
              1      19       35.89       500      610      700      900      950      970     1000      129      960     1100   
                                          VAR    BASINP    GEOM    SYMINP    ZMAT    AOBASIS   BASIS     P2S    ABASIS      S 
                                         1400     1410     1200     1210     1080     1600     1650     1300     1700   
                                           T        V       H0       H01     AOSYM     SMH    MOLCAS    ERIS     OPER   

 PROGRAMS   *        TOTAL       INT
 CPU TIMES  *         0.66      0.54
 REAL TIME  *         1.32 SEC
 DISK USED  *        75.59 MB      
 **********************************************************************************************************************************


 PROGRAM * RHF-SCF (CLOSED SHELL)       Authors: W. Meyer, H.-J. Werner


 NUMBER OF ELECTRONS:       8+    8-
 CONVERGENCE THRESHOLDS:    1.00E-10 (Density)    1.00E-13 (Energy)
 MAX. NUMBER OF ITERATIONS:      500
 INTERPOLATION TYPE:            DIIS
 INTERPOLATION STEPS:              2 (START)      1 (STEP)
 LEVEL SHIFTS:                  0.00 (CLOSED)  0.00 (OPEN) 



 Orbital guess generated from atomic densities. Full valence occupancy:    9   2

 Molecular orbital dump at record        2100.2

 Initial occupancy:   7   1

 ITERATION    DDIFF          GRAD             ENERGY        2-EL.EN.            DIPOLE MOMENTS         DIIS   ORB.
    1      0.000D+00      0.000D+00      -129.77912088    153.986541    0.00000    0.58759   -1.04684    0    start
    2      0.000D+00      0.136D-01      -129.80595236    155.139120    0.00000    0.61680   -0.22075    1    diag
    3      0.187D-01      0.105D-01      -129.82872355    155.262022    0.00000    0.56288   -0.60470    2    diag
    4      0.910D-02      0.157D-02      -129.82946953    154.992454    0.00000    0.57130   -0.54460    3    diag
    5      0.167D-02      0.520D-03      -129.82958650    155.078766    0.00000    0.57675   -0.54572    4    diag
    6      0.725D-03      0.155D-03      -129.82960583    155.063891    0.00000    0.57728   -0.54146    5    diag
    7      0.281D-03      0.776D-04      -129.82961153    155.066151    0.00000    0.57851   -0.53892    6    diag
    8      0.194D-03      0.251D-04      -129.82961209    155.065445    0.00000    0.57852   -0.53808    7    diag
    9      0.669D-04      0.460D-05      -129.82961211    155.065324    0.00000    0.57847   -0.53792    8    diag
   10      0.130D-04      0.101D-05      -129.82961211    155.065306    0.00000    0.57844   -0.53790    9    orth
   11      0.285D-05      0.197D-06      -129.82961211    155.065302    0.00000    0.57843   -0.53789    9    diag
   12      0.518D-06      0.414D-07      -129.82961211    155.065300    0.00000    0.57843   -0.53789    9    diag
   13      0.114D-06      0.104D-07      -129.82961211    155.065300    0.00000    0.57843   -0.53789    9    diag
   14      0.287D-07      0.187D-08      -129.82961211    155.065300    0.00000    0.57843   -0.53789    9    diag
   15      0.446D-08      0.475D-09      -129.82961211    155.065300    0.00000    0.57843   -0.53789    9    diag
   16      0.107D-08      0.112D-09      -129.82961211    155.065300    0.00000    0.57843   -0.53789    9    diag
   17      0.176D-09      0.307D-10      -129.82961211    155.065300    0.00000    0.57843   -0.53789    9    diag
   18      0.509D-10      0.996D-11      -129.82961211    155.065300    0.00000    0.57843   -0.53789    9    diag
   19      0.215D-10      0.195D-11      -129.82961211    155.065300    0.00000    0.57843   -0.53789    9    fixocc
   20      0.484D-11      0.335D-12      -129.82961211    155.065300    0.00000    0.57843   -0.53789    9    orth
   21      0.776D-12      0.120D-12      -129.82961211    155.065300    0.00000    0.57843   -0.53789    0    orth

 Final occupancy:   7   1

 !RHF STATE 1.1 Energy               -129.829612113085
 Nuclear energy                        30.28871530
 One-electron energy                 -237.65097739
 Two-electron energy                   77.53264998
 Virial quotient                       -0.99979865
 !RHF STATE 1.1 Dipole moment           0.00000000     0.57842828    -0.53789185
 Dipole moment /Debye                   0.00000000     1.47012176    -1.36709518

 Orbital energies:

         1.1          2.1          3.1          4.1          5.1          6.1          7.1          8.1          9.1
    -20.648227   -15.708944    -1.523840    -0.990276    -0.741870    -0.661225    -0.427428     0.143615     0.369684

         1.2          2.2          3.2
     -0.591029     0.085364     0.613236

 HOMO      7.1    -0.427428 =     -11.6309eV
 LUMO      2.2     0.085364 =       2.3229eV
 LUMO-HOMO         0.512792 =      13.9538eV


 **********************************************************************************************************************************
 DATASETS  * FILE   NREC   LENGTH (MB)   RECORD NAMES
              1      19       35.89       500      610      700      900      950      970     1000      129      960     1100   
                                          VAR    BASINP    GEOM    SYMINP    ZMAT    AOBASIS   BASIS     P2S    ABASIS      S 
                                         1400     1410     1200     1210     1080     1600     1650     1300     1700   
                                           T        V       H0       H01     AOSYM     SMH    MOLCAS    ERIS     OPER   

              2       4        2.85       700     1000      520     2100   
                                         GEOM     BASIS   MCVARS     RHF  

 PROGRAMS   *        TOTAL        HF       INT
 CPU TIMES  *         0.88      0.21      0.54
 REAL TIME  *         1.60 SEC
 DISK USED  *        75.59 MB      
 **********************************************************************************************************************************


 PROGRAM * CCSD (Closed-shell coupled cluster)     Authors: C. Hampel, H.-J. Werner, 1991, M. Deegan, P.J. Knowles, 1992


 Convergence thresholds:  THRVAR = 1.00D-08  THRDEN = 1.00D-12

 CCSD(T)     terms to be evaluated (factor= 1.000)


 Number of core orbitals:           2 (   2   0 )
 Number of closed-shell orbitals:   6 (   5   1 )
 Number of external orbitals:      66 (  43  23 )

 Molecular orbitals read from record     2100.2  Type=RHF/CANONICAL (state 1.1)

 Number of N-1 electron functions:               6
 Number of N-2 electron functions:              21
 Number of singly external CSFs:               238
 Number of doubly external CSFs:             41002
 Total number of CSFs:                       41241

 Length of J-op  integral file:               0.00 MB
 Length of K-op  integral file:               0.25 MB
 Length of 3-ext integral record:             0.00 MB

 Memory could be reduced to 1.65 Mwords without degradation in triples

 Integral transformation finished. Total CPU:   0.03 sec, npass=  1  Memory used:   0.55 MW

 Reference energy:                   -129.82961211

 MP2 singlet pair energy:              -0.27395090
 MP2 triplet pair energy:              -0.16266195
 MP2 correlation energy:               -0.43661286
 MP2 total energy:                   -130.26622497

 SCS-MP2 correlation energy:           -0.42995297   (PS=  1.200000  PT=  0.333333)
 SCS-MP2 total energy:               -130.25956508

 ITER.      SQ.NORM     CORR.ENERGY   TOTAL ENERGY   ENERGY CHANGE        DEN1      VAR(S)    VAR(P)  DIIS     TIME  TIME/IT
   1      1.11885531    -0.44164625  -130.27125836    -0.00503339     0.01087227  0.30D-02  0.30D-02  1  1     0.07     0.04
   2      1.12978627    -0.44188617  -130.27149828    -0.00023992    -0.01235259  0.90D-04  0.51D-03  2  2     0.11     0.04
   3      1.13614631    -0.44227902  -130.27189114    -0.00039285    -0.00300544  0.48D-04  0.51D-04  3  3     0.15     0.04
   4      1.13898876    -0.44230503  -130.27191714    -0.00002601    -0.00096914  0.41D-05  0.90D-05  4  4     0.18     0.04
   5      1.14000510    -0.44233520  -130.27194732    -0.00003017    -0.00021058  0.14D-05  0.17D-05  5  5     0.22     0.04
   6      1.14036909    -0.44231827  -130.27193039     0.00001693    -0.00004146  0.10D-06  0.41D-06  6  6     0.27     0.04
   7      1.14045503    -0.44232026  -130.27193237    -0.00000198    -0.00000204  0.12D-07  0.88D-07  6  1     0.31     0.04
   8      1.14048587    -0.44232021  -130.27193233     0.00000004     0.00000186  0.43D-08  0.11D-07  6  2     0.35     0.04
   9      1.14049387    -0.44231999  -130.27193210     0.00000022    -0.00000227  0.25D-08  0.12D-08  6  3     0.39     0.04
  10      1.14049265    -0.44232051  -130.27193262    -0.00000052     0.00000061  0.49D-09  0.21D-09  6  4     0.42     0.04
  11      1.14049090    -0.44232056  -130.27193268    -0.00000006     0.00000019  0.15D-09  0.23D-10  6  5     0.46     0.04
  12      1.14048949    -0.44232075  -130.27193286    -0.00000018     0.00000044  0.15D-10  0.77D-11  6  6     0.50     0.04
  13      1.14048886    -0.44232075  -130.27193287    -0.00000001     0.00000013  0.68D-11  0.13D-11  6  1     0.53     0.04
  14      1.14048846    -0.44232077  -130.27193289    -0.00000002     0.00000008  0.96D-12  0.44D-12  6  2     0.56     0.04
  15      1.14048832    -0.44232078  -130.27193289    -0.00000000     0.00000001  0.25D-12  0.14D-12  6  3     0.59     0.04
  16      1.14048820    -0.44232078  -130.27193289    -0.00000000     0.00000002  0.75D-14  0.36D-13  6  1     0.62     0.04
  17      1.14048819    -0.44232078  -130.27193289     0.00000000    -0.00000000  0.30D-14  0.25D-14  6  4     0.66     0.04
  18      1.14048818    -0.44232078  -130.27193289    -0.00000000     0.00000000  0.73D-15  0.44D-15  6  5     0.69     0.04
  19      1.14048818    -0.44232078  -130.27193289     0.00000000    -0.00000000  0.13D-15  0.83D-16  6  6     0.72     0.04
  20      1.14048818    -0.44232078  -130.27193289    -0.00000000     0.00000000  0.20D-16  0.20D-16  6  2     0.76     0.04
  21      1.14048818    -0.44232078  -130.27193289    -0.00000000     0.00000000  0.29D-17  0.24D-17  6  3     0.80     0.04
  22      1.14048818    -0.44232078  -130.27193289    -0.00000000     0.00000000  0.30D-18  0.38D-18  6  4     0.84     0.04
  23      1.14048818    -0.44232078  -130.27193289    -0.00000000     0.00000000  0.11D-18  0.32D-19  6  1     0.87     0.04
  24      1.14048818    -0.44232078  -130.27193289     0.00000000    -0.00000000  0.17D-19  0.12D-19  6  6     0.90     0.04
  25      1.14048818    -0.44232078  -130.27193289     0.00000000    -0.00000000  0.36D-20  0.73D-21  6  5     0.94     0.04
  26      1.14048818    -0.44232078  -130.27193289     0.00000000    -0.00000000  0.72D-21  0.29D-21  6  2     0.98     0.04
  27      1.14048818    -0.44232078  -130.27193289     0.00000000    -0.00000000  0.18D-22  0.10D-22  6  5     1.01     0.04

 Norm of t1 vector:      0.07563596      S-energy:    -0.00000000      T1 diagnostic:  0.01543913
                                                                       D1 diagnostic:  0.04277683

 Doubles amplitudes (print threshold =  0.500E-01):

         I         J         SYM. A    SYM. B    A         B      T(IJ, AB)

         6         6         2         2         1         1     -0.14442287


 Total CPU time for triples:      0.24 sec


 RESULTS
 =======

  Reference energy                   -129.829612113085
  CCSD singlet pair energy             -0.303382200496
  CCSD triplet pair energy             -0.138938578778
  CCSD correlation energy              -0.442320779274

  Triples (T) contribution             -0.019872824022
  Total correlation energy             -0.462193603296

  CCSD total energy                  -130.271932892359
  CCSD[T] energy                     -130.292838171046
  CCSD-T energy                      -130.291403753933
 !CCSD(T) total energy               -130.291805716381

 Timing summary (sec):

 STEP                 CPU(USER)    SYS     CPU(TOT)    WALL
 Transformation          0.04      0.01      0.05      0.04
 CCSD iterations         0.98      0.16      1.14      1.14
 Triples                 0.24      0.00      0.24      0.24

 Program statistics:

 Available memory in ccsd:               994999756
 Min. memory needed in ccsd:                154850
 Max. memory used in ccsd:                  184802
 Max. memory used in cckext:                238416 (27 integral passes)



 **********************************************************************************************************************************
 DATASETS  * FILE   NREC   LENGTH (MB)   RECORD NAMES
              1      20       40.28       500      610      700      900      950      970     1000      129      960     1100   
                                          VAR    BASINP    GEOM    SYMINP    ZMAT    AOBASIS   BASIS     P2S    ABASIS      S 
                                         1400     1410     1200     1210     1080     1600     1650     1300     1700     1380   
                                           T        V       H0       H01     AOSYM     SMH    MOLCAS    ERIS     OPER     JKOP   

              2       4        2.85       700     1000      520     2100   
                                         GEOM     BASIS   MCVARS     RHF  

 PROGRAMS   *        TOTAL   CCSD(T)        HF       INT
 CPU TIMES  *         2.15      1.27      0.21      0.54
 REAL TIME  *         3.05 SEC
 DISK USED  *        75.59 MB      
 **********************************************************************************************************************************

 CCSD(T)/cc-pVTZ-DK energy=   -130.291805716381

        CCSD(T)         HF-SCF  
   -130.29180572   -129.82961211
 **********************************************************************************************************************************
 Molpro calculation terminated
 Variable memory released
