
 Primary working directories    : /tmp/r2666/235084.maple
 Secondary working directories  : /tmp/r2666/235084.maple
 Wavefunction directory         : /ddn/home4/r2666/wfu/
 Main file repository           : /tmp/r2666/235084.maple/

 SHA1      : d5ffa45e93fdbca01ffc919aa182cfdae0147319
 NAME      : 2015.1.35
 ARCHNAME  : linux/x86_64
 FC        : /opt/intel/composer_xe_2015.1.133/bin/intel64/ifort
 BLASLIB   : -Wl,-_start-group /opt/intel/mkl/lib/intel64/libmkl_intel_ilp64.a /opt/intel/mkl/lib/intel64/libmkl_intel_thread.a /opt/intel/mkl/lib/intel64/libmkl_core.a -Wl,-_end-group
 id        : olemiss

 Nodes     nprocs
 cn031        1

 Using customized tuning parameters: mindgm=1; mindgv=20; mindgc=4; mindgr=1; noblas=0; minvec=7
 default implementation of scratch files=df  

 ***,hno CCSD(T)/TZ-F12 QFF
 memory, 995, m;
 gthresh,energy=1.d-12,zero=1.d-22,oneint=1.d-22,twoint=1.d-22;
 gthresh,optgrad=1.d-8,optstep=1.d-8;
 nocompress;
 geomtyp=xyz
 bohr
 geometry={
 3
         69        69
 N        0.0000000000       -0.1726111757       -1.1705125915
 H        0.0000000000        1.6688580597       -1.9197515882
 O        0.0000000000        0.0455209060        1.1396745887
 }
 
 basis=vtz-dk
 dkroll=0
   {hf,maxit=500;accu,20;}
 {ccsd(t),nocheck,maxit=250;orbital,IGNORE_ERROR;}

 Variables initialized (889), CPU time= 0.01 sec
 Commands  initialized (702), CPU time= 0.00 sec, 572 directives.
 Default parameters read. Elapsed time= 0.07 sec

 Checking input...
 Passed
1


                                         ***  PROGRAM SYSTEM MOLPRO  ***
                                       Copyright, TTI GmbH Stuttgart, 2015
                                    Version 2015.1 linked Jul  9 2018 13:16:40


 **********************************************************************************************************************************
 LABEL *   hno CCSD(T)/TZ-F12 QFF                                                        
  64 bit serial version                                                                  DATE: 08-Feb-20          TIME: 17:57:06  
 **********************************************************************************************************************************

 SHA1:             d5ffa45e93fdbca01ffc919aa182cfdae0147319
 **********************************************************************************************************************************

 THRESHOLDS:

 ZERO    =  1.00D-22  ONEINT  =  1.00D-22  TWOINT  =  1.00D-22  PREFAC  =  1.00D-14  LOCALI  =  1.00D-09  EORDER  =  1.00D-04
 ENERGY  =  1.00D-12  ETEST   =  0.00D+00  EDENS   =  0.00D+00  THRDEDEF=  1.00D-06  GRADIENT=  1.00D-02  STEP    =  1.00D-03
 ORBITAL =  1.00D-05  CIVEC   =  1.00D-05  COEFF   =  1.00D-04  PRINTCI =  5.00D-02  PUNCHCI =  9.90D+01  OPTGRAD =  3.00D-04
 OPTENERG=  1.00D-06  OPTSTEP =  3.00D-04  THRGRAD =  1.00D-10  COMPRESS=  1.00D-11  VARMIN  =  1.00D-07  VARMAX  =  1.00D-03
 THRDOUB =  0.00D+00  THRDIV  =  1.00D-05  THRRED  =  1.00D-07  THRPSP  =  1.00D+00  THRDC   =  1.00D-10  THRCS   =  1.00D-10
 THRNRM  =  1.00D-08  THREQ   =  0.00D+00  THRDE   =  1.00D+00  THRREF  =  1.00D-05  SPARFAC =  1.00D+00  THRDLP  =  1.00D-07
 THRDIA  =  1.00D-10  THRDLS  =  1.00D-07  THRGPS  =  0.00D+00  THRKEX  =  0.00D+00  THRDIS  =  2.00D-01  THRVAR  =  1.00D-10
 THRLOC  =  1.00D-06  THRGAP  =  1.00D-06  THRLOCT = -1.00D+00  THRGAPT = -1.00D+00  THRORB  =  1.00D-06  THRMLTP =  0.00D+00
 THRCPQCI=  1.00D-10  KEXTA   =  0.00D+00  THRCOARS=  0.00D+00  SYMTOL  =  1.00D-06  GRADTOL =  1.00D-06  THROVL  =  1.00D-08
 THRORTH =  1.00D-08  GRID    =  1.00D-06  GRIDMAX =  1.00D-03  DTMAX   =  0.00D+00  THROCCDE=  1.00D-01  THROCCDE=  1.00D-01



 THRESHOLDS:

 ZERO    =  1.00D-22  ONEINT  =  1.00D-22  TWOINT  =  1.00D-22  PREFAC  =  1.00D-14  LOCALI  =  1.00D-09  EORDER  =  1.00D-04
 ENERGY  =  1.00D-12  ETEST   =  0.00D+00  EDENS   =  0.00D+00  THRDEDEF=  1.00D-06  GRADIENT=  1.00D-02  STEP    =  1.00D-03
 ORBITAL =  1.00D-05  CIVEC   =  1.00D-05  COEFF   =  1.00D-04  PRINTCI =  5.00D-02  PUNCHCI =  9.90D+01  OPTGRAD =  1.00D-08
 OPTENERG=  1.00D-06  OPTSTEP =  1.00D-08  THRGRAD =  1.00D-10  COMPRESS=  1.00D-11  VARMIN  =  1.00D-07  VARMAX  =  1.00D-03
 THRDOUB =  0.00D+00  THRDIV  =  1.00D-05  THRRED  =  1.00D-07  THRPSP  =  1.00D+00  THRDC   =  1.00D-10  THRCS   =  1.00D-10
 THRNRM  =  1.00D-08  THREQ   =  0.00D+00  THRDE   =  1.00D+00  THRREF  =  1.00D-05  SPARFAC =  1.00D+00  THRDLP  =  1.00D-07
 THRDIA  =  1.00D-10  THRDLS  =  1.00D-07  THRGPS  =  0.00D+00  THRKEX  =  0.00D+00  THRDIS  =  2.00D-01  THRVAR  =  1.00D-10
 THRLOC  =  1.00D-06  THRGAP  =  1.00D-06  THRLOCT = -1.00D+00  THRGAPT = -1.00D+00  THRORB  =  1.00D-06  THRMLTP =  0.00D+00
 THRCPQCI=  1.00D-10  KEXTA   =  0.00D+00  THRCOARS=  0.00D+00  SYMTOL  =  1.00D-06  GRADTOL =  1.00D-06  THROVL  =  1.00D-08
 THRORTH =  1.00D-08  GRID    =  1.00D-06  GRIDMAX =  1.00D-03  DTMAX   =  0.00D+00  THROCCDE=  1.00D-01  THROCCDE=  1.00D-01



 Input parameters for SORTINT:

 COMPRESS =    0.000000
 C_FINAL  =    1.000000
 DEBUG    =   -1.000000
 C_SORT1  =    0.000000
 C_SEWARD =    0.000000
 THRESH   =    0.000000
 IO       =  molpro                                                          
 SPRI     =    0.000000
 SETTING GEOMTYP        =    XYZ
 ZUNIT=BOHR
 

 Variable memory set to  995000000 words,  buffer space   230000 words

 SETTING BASIS          =    VTZ-DK
 SETTING DKROLL         =     0.00000000D+00                                  


 Recomputing integrals since basis changed


 Using spherical harmonics

 Library entry N      S cc-pVTZ-DK           selected for orbital group  1
 Library entry N      P cc-pVTZ-DK           selected for orbital group  1
 Library entry N      D cc-pVTZ-DK           selected for orbital group  1
 Library entry N      F cc-pVTZ-DK           selected for orbital group  1
 Library entry H      S cc-pVTZ-DK           selected for orbital group  2
 Library entry H      P cc-pVTZ-DK           selected for orbital group  2
 Library entry H      D cc-pVTZ-DK           selected for orbital group  2
 Library entry O      S cc-pVTZ-DK           selected for orbital group  3
 Library entry O      P cc-pVTZ-DK           selected for orbital group  3
 Library entry O      D cc-pVTZ-DK           selected for orbital group  3
 Library entry O      F cc-pVTZ-DK           selected for orbital group  3


 PROGRAM * SEWARD (Integral evaluation for generally contracted gaussian basis sets)     Author: Roland Lindh, 1990

 Geometry written to block  1 of record 700


 Point group  Cs  



 ATOMIC COORDINATES

 NR  ATOM    CHARGE       X              Y              Z

   1  N       7.00    0.000000000   -0.172611176   -1.170512592
   2  H       1.00    0.000000000    1.668858060   -1.919751588
   3  O       8.00    0.000000000    0.045520906    1.139674589

 Bond lengths in Bohr (Angstrom)

 1-2  1.988056342  1-3  2.320462543
     ( 1.052034110)     ( 1.227935896)

 Bond angles

  2-1-3  106.74596399

 NUCLEAR CHARGE:                   16
 NUMBER OF PRIMITIVE AOS:         111
 NUMBER OF SYMMETRY AOS:          100
 NUMBER OF CONTRACTIONS:           74   (  50A'  +  24A"  )
 NUMBER OF CORE ORBITALS:           2   (   2A'  +   0A"  )
 NUMBER OF VALENCE ORBITALS:        9   (   7A'  +   2A"  )


 NUCLEAR REPULSION ENERGY   29.96399885

 Eigenvalues of metric

         1 0.252E-02 0.402E-02 0.449E-02 0.844E-02 0.130E-01 0.340E-01 0.436E-01 0.467E-01
         2 0.351E-01 0.468E-01 0.104E+00 0.114E+00 0.241E+00 0.342E+00 0.401E+00 0.455E+00


 Contracted 2-electron integrals neglected if value below      1.0D-22

        1874283. INTEGRALS WRITTEN OUT IN     458 BLOCKS ON RECORD 1290 OF FILE 1


 NUMBER OF SORTED TWO-ELECTRON INTEGRALS:    2006100.     BUFFER LENGTH:  32768
 NUMBER OF SEGMENTS:   1  SEGMENT LENGTH:    2006100      RECORD LENGTH: 524288

 Memory used in sort:       2.56 MW

 SORT1 READ     1874283. AND WROTE     1914195. INTEGRALS IN      6 RECORDS. CPU TIME:     0.07 SEC, REAL TIME:     0.08 SEC
 SORT2 READ     1914195. AND WROTE     2006100. INTEGRALS IN      1 RECORDS. CPU TIME:     0.08 SEC, REAL TIME:     0.10 SEC

 FILE SIZES:   FILE 1:    50.1 MBYTE,  FILE 4:    25.2 MBYTE,   TOTAL:     75.3 MBYTE

 OPERATOR DM      FOR CENTER  0  COORDINATES:    0.000000    0.000000    0.000000


 **********************************************************************************************************************************
 DATASETS  * FILE   NREC   LENGTH (MB)   RECORD NAMES
              1      19       35.89       500      610      700      900      950      970     1000      129      960     1100   
                                          VAR    BASINP    GEOM    SYMINP    ZMAT    AOBASIS   BASIS     P2S    ABASIS      S 
                                         1400     1410     1200     1210     1080     1600     1650     1300     1700   
                                           T        V       H0       H01     AOSYM     SMH    MOLCAS    ERIS     OPER   

 PROGRAMS   *        TOTAL       INT
 CPU TIMES  *         0.80      0.71
 REAL TIME  *         1.61 SEC
 DISK USED  *        75.59 MB      
 **********************************************************************************************************************************


 PROGRAM * RHF-SCF (CLOSED SHELL)       Authors: W. Meyer, H.-J. Werner


 NUMBER OF ELECTRONS:       8+    8-
 CONVERGENCE THRESHOLDS:    1.00E-10 (Density)    1.00E-13 (Energy)
 MAX. NUMBER OF ITERATIONS:      500
 INTERPOLATION TYPE:            DIIS
 INTERPOLATION STEPS:              2 (START)      1 (STEP)
 LEVEL SHIFTS:                  0.00 (CLOSED)  0.00 (OPEN) 



 Orbital guess generated from atomic densities. Full valence occupancy:    9   2

 Molecular orbital dump at record        2100.2

 Initial occupancy:   7   1

 ITERATION    DDIFF          GRAD             ENERGY        2-EL.EN.            DIPOLE MOMENTS         DIIS   ORB.
    1      0.000D+00      0.000D+00      -129.77384795    153.413715    0.00000    0.58588   -1.09871    0    start
    2      0.000D+00      0.139D-01      -129.80001544    154.519068    0.00000    0.62970   -0.20504    1    diag
    3      0.194D-01      0.111D-01      -129.82581752    154.681541    0.00000    0.56764   -0.62376    2    diag
    4      0.956D-02      0.159D-02      -129.82659006    154.401677    0.00000    0.57642   -0.56132    3    diag
    5      0.169D-02      0.533D-03      -129.82671265    154.488680    0.00000    0.58172   -0.56199    4    diag
    6      0.742D-03      0.159D-03      -129.82673308    154.473557    0.00000    0.58214   -0.55743    5    diag
    7      0.288D-03      0.811D-04      -129.82673946    154.475601    0.00000    0.58331   -0.55462    6    diag
    8      0.203D-03      0.277D-04      -129.82674018    154.474803    0.00000    0.58331   -0.55365    7    diag
    9      0.769D-04      0.507D-05      -129.82674021    154.474667    0.00000    0.58325   -0.55347    8    diag
   10      0.151D-04      0.106D-05      -129.82674021    154.474650    0.00000    0.58322   -0.55345    9    orth
   11      0.295D-05      0.209D-06      -129.82674021    154.474646    0.00000    0.58321   -0.55344    9    diag
   12      0.533D-06      0.467D-07      -129.82674021    154.474645    0.00000    0.58321   -0.55344    9    diag
   13      0.121D-06      0.124D-07      -129.82674021    154.474645    0.00000    0.58321   -0.55344    9    diag
   14      0.317D-07      0.226D-08      -129.82674021    154.474645    0.00000    0.58321   -0.55344    9    diag
   15      0.461D-08      0.590D-09      -129.82674021    154.474645    0.00000    0.58321   -0.55344    9    diag
   16      0.125D-08      0.160D-09      -129.82674021    154.474645    0.00000    0.58321   -0.55344    9    diag
   17      0.247D-09      0.486D-10      -129.82674021    154.474645    0.00000    0.58321   -0.55344    9    diag
   18      0.890D-10      0.171D-10      -129.82674021    154.474645    0.00000    0.58321   -0.55344    0    orth

 Final occupancy:   7   1

 !RHF STATE 1.1 Energy               -129.826740212931
 Nuclear energy                        29.96399885
 One-electron energy                 -237.02806134
 Two-electron energy                   77.23732228
 Virial quotient                       -1.00017764
 !RHF STATE 1.1 Dipole moment           0.00000000     0.58321112    -0.55344109
 Dipole moment /Debye                   0.00000000     1.48227772    -1.40661481

 Orbital energies:

         1.1          2.1          3.1          4.1          5.1          6.1          7.1          8.1          9.1
    -20.649449   -15.711539    -1.510685    -0.994807    -0.737249    -0.656082    -0.433788     0.143251     0.366699

         1.2          2.2          3.2
     -0.583110     0.079103     0.615001

 HOMO      7.1    -0.433788 =     -11.8040eV
 LUMO      2.2     0.079103 =       2.1525eV
 LUMO-HOMO         0.512891 =      13.9565eV


 **********************************************************************************************************************************
 DATASETS  * FILE   NREC   LENGTH (MB)   RECORD NAMES
              1      19       35.89       500      610      700      900      950      970     1000      129      960     1100   
                                          VAR    BASINP    GEOM    SYMINP    ZMAT    AOBASIS   BASIS     P2S    ABASIS      S 
                                         1400     1410     1200     1210     1080     1600     1650     1300     1700   
                                           T        V       H0       H01     AOSYM     SMH    MOLCAS    ERIS     OPER   

              2       4        2.85       700     1000      520     2100   
                                         GEOM     BASIS   MCVARS     RHF  

 PROGRAMS   *        TOTAL        HF       INT
 CPU TIMES  *         1.09      0.29      0.71
 REAL TIME  *         1.98 SEC
 DISK USED  *        75.59 MB      
 **********************************************************************************************************************************


 PROGRAM * CCSD (Closed-shell coupled cluster)     Authors: C. Hampel, H.-J. Werner, 1991, M. Deegan, P.J. Knowles, 1992


 Convergence thresholds:  THRVAR = 1.00D-08  THRDEN = 1.00D-12

 CCSD(T)     terms to be evaluated (factor= 1.000)


 Number of core orbitals:           2 (   2   0 )
 Number of closed-shell orbitals:   6 (   5   1 )
 Number of external orbitals:      66 (  43  23 )

 Molecular orbitals read from record     2100.2  Type=RHF/CANONICAL (state 1.1)

 Number of N-1 electron functions:               6
 Number of N-2 electron functions:              21
 Number of singly external CSFs:               238
 Number of doubly external CSFs:             41002
 Total number of CSFs:                       41241

 Length of J-op  integral file:               0.00 MB
 Length of K-op  integral file:               0.25 MB
 Length of 3-ext integral record:             0.00 MB

 Memory could be reduced to 1.65 Mwords without degradation in triples

 Integral transformation finished. Total CPU:   0.05 sec, npass=  1  Memory used:   0.55 MW

 Reference energy:                   -129.82674021

 MP2 singlet pair energy:              -0.27571408
 MP2 triplet pair energy:              -0.16383643
 MP2 correlation energy:               -0.43955051
 MP2 total energy:                   -130.26629073

 SCS-MP2 correlation energy:           -0.43279957   (PS=  1.200000  PT=  0.333333)
 SCS-MP2 total energy:               -130.25953978

 ITER.      SQ.NORM     CORR.ENERGY   TOTAL ENERGY   ENERGY CHANGE        DEN1      VAR(S)    VAR(P)  DIIS     TIME  TIME/IT
   1      1.12057464    -0.44390346  -130.27064367    -0.00435295     0.01223645  0.32D-02  0.32D-02  1  1     0.12     0.06
   2      1.13189767    -0.44400765  -130.27074786    -0.00010419    -0.01274814  0.98D-04  0.53D-03  2  2     0.19     0.07
   3      1.13858005    -0.44442148  -130.27116169    -0.00041383    -0.00311258  0.51D-04  0.55D-04  3  3     0.25     0.07
   4      1.14161334    -0.44445085  -130.27119106    -0.00002937    -0.00102038  0.44D-05  0.95D-05  4  4     0.31     0.07
   5      1.14271380    -0.44448387  -130.27122408    -0.00003302    -0.00022823  0.14D-05  0.17D-05  5  5     0.36     0.07
   6      1.14309423    -0.44446489  -130.27120510     0.00001898    -0.00004432  0.97D-07  0.40D-06  6  6     0.41     0.07
   7      1.14317615    -0.44446734  -130.27120755    -0.00000245    -0.00000110  0.11D-07  0.92D-07  6  1     0.47     0.07
   8      1.14320642    -0.44446702  -130.27120724     0.00000031     0.00000203  0.44D-08  0.12D-07  6  2     0.54     0.07
   9      1.14321451    -0.44446684  -130.27120705     0.00000019    -0.00000236  0.26D-08  0.14D-08  6  3     0.60     0.07
  10      1.14321318    -0.44446736  -130.27120757    -0.00000052     0.00000071  0.49D-09  0.23D-09  6  4     0.66     0.07
  11      1.14321152    -0.44446741  -130.27120763    -0.00000006     0.00000011  0.15D-09  0.24D-10  6  5     0.73     0.07
  12      1.14321013    -0.44446760  -130.27120782    -0.00000019     0.00000044  0.14D-10  0.73D-11  6  6     0.79     0.07
  13      1.14320952    -0.44446761  -130.27120782    -0.00000001     0.00000012  0.61D-11  0.12D-11  6  1     0.84     0.07
  14      1.14320913    -0.44446763  -130.27120784    -0.00000002     0.00000008  0.88D-12  0.43D-12  6  2     0.91     0.07
  15      1.14320897    -0.44446763  -130.27120785    -0.00000000     0.00000002  0.24D-12  0.13D-12  6  3     0.98     0.07
  16      1.14320888    -0.44446764  -130.27120785    -0.00000000     0.00000001  0.16D-13  0.50D-13  6  4     1.04     0.07
  17      1.14320884    -0.44446764  -130.27120785    -0.00000000     0.00000001  0.23D-14  0.12D-13  6  5     1.10     0.07
  18      1.14320883    -0.44446764  -130.27120785     0.00000000     0.00000000  0.14D-14  0.32D-14  6  6     1.16     0.07
  19      1.14320883    -0.44446764  -130.27120785     0.00000000    -0.00000000  0.75D-15  0.36D-15  6  1     1.22     0.07
  20      1.14320883    -0.44446764  -130.27120785     0.00000000    -0.00000000  0.65D-16  0.64D-16  6  2     1.28     0.07
  21      1.14320883    -0.44446764  -130.27120785    -0.00000000     0.00000000  0.37D-16  0.12D-16  6  3     1.34     0.07
  22      1.14320883    -0.44446764  -130.27120785     0.00000000     0.00000000  0.64D-17  0.24D-17  6  4     1.40     0.07
  23      1.14320883    -0.44446764  -130.27120785    -0.00000000     0.00000000  0.23D-17  0.37D-18  6  5     1.46     0.07
  24      1.14320883    -0.44446764  -130.27120785    -0.00000000    -0.00000000  0.22D-18  0.99D-19  6  6     1.52     0.07
  25      1.14320883    -0.44446764  -130.27120785     0.00000000    -0.00000000  0.65D-19  0.22D-19  6  2     1.59     0.07
  26      1.14320883    -0.44446764  -130.27120785     0.00000000    -0.00000000  0.72D-20  0.15D-20  6  3     1.67     0.07
  27      1.14320883    -0.44446764  -130.27120785     0.00000000    -0.00000000  0.37D-21  0.24D-21  6  1     1.74     0.07
  28      1.14320883    -0.44446764  -130.27120785     0.00000000    -0.00000000  0.55D-22  0.12D-22  6  6     1.80     0.07
  29      1.14320883    -0.44446764  -130.27120785     0.00000000    -0.00000000  0.35D-23  0.26D-23  6  4     1.85     0.07

 Norm of t1 vector:      0.07780328      S-energy:     0.00000000      T1 diagnostic:  0.01588153
                                                                       D1 diagnostic:  0.04496417

 Doubles amplitudes (print threshold =  0.500E-01):

         I         J         SYM. A    SYM. B    A         B      T(IJ, AB)

         6         6         2         2         1         1     -0.14934435


 Total CPU time for triples:      0.74 sec


 RESULTS
 =======

  Reference energy                   -129.826740212931
  CCSD singlet pair energy             -0.305251985357
  CCSD triplet pair energy             -0.139215652245
  CCSD correlation energy              -0.444467637598

  Triples (T) contribution             -0.020368243802
  Total correlation energy             -0.464835881400

  CCSD total energy                  -130.271207850529
  CCSD[T] energy                     -130.292673000748
  CCSD-T energy                      -130.291159731235
 !CCSD(T) total energy               -130.291576094331

 Timing summary (sec):

 STEP                 CPU(USER)    SYS     CPU(TOT)    WALL
 Transformation          0.05      0.02      0.07      0.06
 CCSD iterations         1.81      0.24      2.05      2.06
 Triples                 0.74      0.01      0.75      0.75

 Program statistics:

 Available memory in ccsd:               994999756
 Min. memory needed in ccsd:                154850
 Max. memory used in ccsd:                  184802
 Max. memory used in cckext:                238416 (29 integral passes)



 **********************************************************************************************************************************
 DATASETS  * FILE   NREC   LENGTH (MB)   RECORD NAMES
              1      20       40.28       500      610      700      900      950      970     1000      129      960     1100   
                                          VAR    BASINP    GEOM    SYMINP    ZMAT    AOBASIS   BASIS     P2S    ABASIS      S 
                                         1400     1410     1200     1210     1080     1600     1650     1300     1700     1380   
                                           T        V       H0       H01     AOSYM     SMH    MOLCAS    ERIS     OPER     JKOP   

              2       4        2.85       700     1000      520     2100   
                                         GEOM     BASIS   MCVARS     RHF  

 PROGRAMS   *        TOTAL   CCSD(T)        HF       INT
 CPU TIMES  *         3.71      2.62      0.29      0.71
 REAL TIME  *         4.91 SEC
 DISK USED  *        75.59 MB      
 **********************************************************************************************************************************

 CCSD(T)/cc-pVTZ-DK energy=   -130.291576094331

        CCSD(T)         HF-SCF  
   -130.29157609   -129.82674021
 **********************************************************************************************************************************
 Molpro calculation terminated
 Variable memory released
