
 Primary working directories    : /tmp/r2666/235026.maple
 Secondary working directories  : /tmp/r2666/235026.maple
 Wavefunction directory         : /ddn/home4/r2666/wfu/
 Main file repository           : /tmp/r2666/235026.maple/

 SHA1      : d5ffa45e93fdbca01ffc919aa182cfdae0147319
 NAME      : 2015.1.35
 ARCHNAME  : linux/x86_64
 FC        : /opt/intel/composer_xe_2015.1.133/bin/intel64/ifort
 BLASLIB   : -Wl,-_start-group /opt/intel/mkl/lib/intel64/libmkl_intel_ilp64.a /opt/intel/mkl/lib/intel64/libmkl_intel_thread.a /opt/intel/mkl/lib/intel64/libmkl_core.a -Wl,-_end-group
 id        : olemiss

 Nodes     nprocs
 cn034        1

 Using customized tuning parameters: mindgm=1; mindgv=20; mindgc=4; mindgr=1; noblas=0; minvec=7
 default implementation of scratch files=df  

 ***,hno CCSD(T)/TZ-F12 QFF
 memory, 995, m;
 gthresh,energy=1.d-12,zero=1.d-22,oneint=1.d-22,twoint=1.d-22;
 gthresh,optgrad=1.d-8,optstep=1.d-8;
 nocompress;
 geomtyp=xyz
 bohr
 geometry={
 3
         11        11
 N        0.0000000000       -0.1546351969       -1.1545936917
 H        0.0000000000        1.6583371210       -1.9231760657
 O        0.0000000000        0.0380658659        1.1271801664
 }
 
 basis=vtz-dk
 dkroll=0
   {hf,maxit=500;accu,20;}
 {ccsd(t),nocheck,maxit=250;orbital,IGNORE_ERROR;}

 Variables initialized (889), CPU time= 0.00 sec
 Commands  initialized (702), CPU time= 0.01 sec, 572 directives.
 Default parameters read. Elapsed time= 0.04 sec

 Checking input...
 Passed
1


                                         ***  PROGRAM SYSTEM MOLPRO  ***
                                       Copyright, TTI GmbH Stuttgart, 2015
                                    Version 2015.1 linked Jul  9 2018 13:16:40


 **********************************************************************************************************************************
 LABEL *   hno CCSD(T)/TZ-F12 QFF                                                        
  64 bit serial version                                                                  DATE: 08-Feb-20          TIME: 17:56:56  
 **********************************************************************************************************************************

 SHA1:             d5ffa45e93fdbca01ffc919aa182cfdae0147319
 **********************************************************************************************************************************

 THRESHOLDS:

 ZERO    =  1.00D-22  ONEINT  =  1.00D-22  TWOINT  =  1.00D-22  PREFAC  =  1.00D-14  LOCALI  =  1.00D-09  EORDER  =  1.00D-04
 ENERGY  =  1.00D-12  ETEST   =  0.00D+00  EDENS   =  0.00D+00  THRDEDEF=  1.00D-06  GRADIENT=  1.00D-02  STEP    =  1.00D-03
 ORBITAL =  1.00D-05  CIVEC   =  1.00D-05  COEFF   =  1.00D-04  PRINTCI =  5.00D-02  PUNCHCI =  9.90D+01  OPTGRAD =  3.00D-04
 OPTENERG=  1.00D-06  OPTSTEP =  3.00D-04  THRGRAD =  1.00D-10  COMPRESS=  1.00D-11  VARMIN  =  1.00D-07  VARMAX  =  1.00D-03
 THRDOUB =  0.00D+00  THRDIV  =  1.00D-05  THRRED  =  1.00D-07  THRPSP  =  1.00D+00  THRDC   =  1.00D-10  THRCS   =  1.00D-10
 THRNRM  =  1.00D-08  THREQ   =  0.00D+00  THRDE   =  1.00D+00  THRREF  =  1.00D-05  SPARFAC =  1.00D+00  THRDLP  =  1.00D-07
 THRDIA  =  1.00D-10  THRDLS  =  1.00D-07  THRGPS  =  0.00D+00  THRKEX  =  0.00D+00  THRDIS  =  2.00D-01  THRVAR  =  1.00D-10
 THRLOC  =  1.00D-06  THRGAP  =  1.00D-06  THRLOCT = -1.00D+00  THRGAPT = -1.00D+00  THRORB  =  1.00D-06  THRMLTP =  0.00D+00
 THRCPQCI=  1.00D-10  KEXTA   =  0.00D+00  THRCOARS=  0.00D+00  SYMTOL  =  1.00D-06  GRADTOL =  1.00D-06  THROVL  =  1.00D-08
 THRORTH =  1.00D-08  GRID    =  1.00D-06  GRIDMAX =  1.00D-03  DTMAX   =  0.00D+00  THROCCDE=  1.00D-01  THROCCDE=  1.00D-01



 THRESHOLDS:

 ZERO    =  1.00D-22  ONEINT  =  1.00D-22  TWOINT  =  1.00D-22  PREFAC  =  1.00D-14  LOCALI  =  1.00D-09  EORDER  =  1.00D-04
 ENERGY  =  1.00D-12  ETEST   =  0.00D+00  EDENS   =  0.00D+00  THRDEDEF=  1.00D-06  GRADIENT=  1.00D-02  STEP    =  1.00D-03
 ORBITAL =  1.00D-05  CIVEC   =  1.00D-05  COEFF   =  1.00D-04  PRINTCI =  5.00D-02  PUNCHCI =  9.90D+01  OPTGRAD =  1.00D-08
 OPTENERG=  1.00D-06  OPTSTEP =  1.00D-08  THRGRAD =  1.00D-10  COMPRESS=  1.00D-11  VARMIN  =  1.00D-07  VARMAX  =  1.00D-03
 THRDOUB =  0.00D+00  THRDIV  =  1.00D-05  THRRED  =  1.00D-07  THRPSP  =  1.00D+00  THRDC   =  1.00D-10  THRCS   =  1.00D-10
 THRNRM  =  1.00D-08  THREQ   =  0.00D+00  THRDE   =  1.00D+00  THRREF  =  1.00D-05  SPARFAC =  1.00D+00  THRDLP  =  1.00D-07
 THRDIA  =  1.00D-10  THRDLS  =  1.00D-07  THRGPS  =  0.00D+00  THRKEX  =  0.00D+00  THRDIS  =  2.00D-01  THRVAR  =  1.00D-10
 THRLOC  =  1.00D-06  THRGAP  =  1.00D-06  THRLOCT = -1.00D+00  THRGAPT = -1.00D+00  THRORB  =  1.00D-06  THRMLTP =  0.00D+00
 THRCPQCI=  1.00D-10  KEXTA   =  0.00D+00  THRCOARS=  0.00D+00  SYMTOL  =  1.00D-06  GRADTOL =  1.00D-06  THROVL  =  1.00D-08
 THRORTH =  1.00D-08  GRID    =  1.00D-06  GRIDMAX =  1.00D-03  DTMAX   =  0.00D+00  THROCCDE=  1.00D-01  THROCCDE=  1.00D-01



 Input parameters for SORTINT:

 COMPRESS =    0.000000
 C_FINAL  =    1.000000
 DEBUG    =   -1.000000
 C_SORT1  =    0.000000
 C_SEWARD =    0.000000
 THRESH   =    0.000000
 IO       =  molpro                                                          
 SPRI     =    0.000000
 SETTING GEOMTYP        =    XYZ
 ZUNIT=BOHR
 

 Variable memory set to  995000000 words,  buffer space   230000 words

 SETTING BASIS          =    VTZ-DK
 SETTING DKROLL         =     0.00000000D+00                                  


 Recomputing integrals since basis changed


 Using spherical harmonics

 Library entry N      S cc-pVTZ-DK           selected for orbital group  1
 Library entry N      P cc-pVTZ-DK           selected for orbital group  1
 Library entry N      D cc-pVTZ-DK           selected for orbital group  1
 Library entry N      F cc-pVTZ-DK           selected for orbital group  1
 Library entry H      S cc-pVTZ-DK           selected for orbital group  2
 Library entry H      P cc-pVTZ-DK           selected for orbital group  2
 Library entry H      D cc-pVTZ-DK           selected for orbital group  2
 Library entry O      S cc-pVTZ-DK           selected for orbital group  3
 Library entry O      P cc-pVTZ-DK           selected for orbital group  3
 Library entry O      D cc-pVTZ-DK           selected for orbital group  3
 Library entry O      F cc-pVTZ-DK           selected for orbital group  3


 PROGRAM * SEWARD (Integral evaluation for generally contracted gaussian basis sets)     Author: Roland Lindh, 1990

 Geometry written to block  1 of record 700


 Point group  Cs  



 ATOMIC COORDINATES

 NR  ATOM    CHARGE       X              Y              Z

   1  N       7.00    0.000000000   -0.154635197   -1.154593692
   2  H       1.00    0.000000000    1.658337121   -1.923176066
   3  O       8.00    0.000000000    0.038065866    1.127180166

 Bond lengths in Bohr (Angstrom)

 1-2  1.969159082  1-3  2.289896425
     ( 1.042034111)     ( 1.211761004)

 Bond angles

  2-1-3  108.14648049

 NUCLEAR CHARGE:                   16
 NUMBER OF PRIMITIVE AOS:         111
 NUMBER OF SYMMETRY AOS:          100
 NUMBER OF CONTRACTIONS:           74   (  50A'  +  24A"  )
 NUMBER OF CORE ORBITALS:           2   (   2A'  +   0A"  )
 NUMBER OF VALENCE ORBITALS:        9   (   7A'  +   2A"  )


 NUCLEAR REPULSION ENERGY   30.32624256

 Eigenvalues of metric

         1 0.243E-02 0.394E-02 0.421E-02 0.819E-02 0.128E-01 0.327E-01 0.427E-01 0.463E-01
         2 0.343E-01 0.465E-01 0.102E+00 0.110E+00 0.234E+00 0.338E+00 0.395E+00 0.449E+00


 Contracted 2-electron integrals neglected if value below      1.0D-22

        1874283. INTEGRALS WRITTEN OUT IN     458 BLOCKS ON RECORD 1290 OF FILE 1


 NUMBER OF SORTED TWO-ELECTRON INTEGRALS:    2006100.     BUFFER LENGTH:  32768
 NUMBER OF SEGMENTS:   1  SEGMENT LENGTH:    2006100      RECORD LENGTH: 524288

 Memory used in sort:       2.56 MW

 SORT1 READ     1874283. AND WROTE     1914195. INTEGRALS IN      6 RECORDS. CPU TIME:     0.06 SEC, REAL TIME:     0.07 SEC
 SORT2 READ     1914195. AND WROTE     2006100. INTEGRALS IN      1 RECORDS. CPU TIME:     0.05 SEC, REAL TIME:     0.07 SEC

 FILE SIZES:   FILE 1:    50.1 MBYTE,  FILE 4:    25.2 MBYTE,   TOTAL:     75.3 MBYTE

 OPERATOR DM      FOR CENTER  0  COORDINATES:    0.000000    0.000000    0.000000


 **********************************************************************************************************************************
 DATASETS  * FILE   NREC   LENGTH (MB)   RECORD NAMES
              1      19       35.89       500      610      700      900      950      970     1000      129      960     1100   
                                          VAR    BASINP    GEOM    SYMINP    ZMAT    AOBASIS   BASIS     P2S    ABASIS      S 
                                         1400     1410     1200     1210     1080     1600     1650     1300     1700   
                                           T        V       H0       H01     AOSYM     SMH    MOLCAS    ERIS     OPER   

 PROGRAMS   *        TOTAL       INT
 CPU TIMES  *         0.63      0.54
 REAL TIME  *         2.10 SEC
 DISK USED  *        75.59 MB      
 **********************************************************************************************************************************


 PROGRAM * RHF-SCF (CLOSED SHELL)       Authors: W. Meyer, H.-J. Werner


 NUMBER OF ELECTRONS:       8+    8-
 CONVERGENCE THRESHOLDS:    1.00E-10 (Density)    1.00E-13 (Energy)
 MAX. NUMBER OF ITERATIONS:      500
 INTERPOLATION TYPE:            DIIS
 INTERPOLATION STEPS:              2 (START)      1 (STEP)
 LEVEL SHIFTS:                  0.00 (CLOSED)  0.00 (OPEN) 



 Orbital guess generated from atomic densities. Full valence occupancy:    9   2

 Molecular orbital dump at record        2100.2

 Initial occupancy:   7   1

 ITERATION    DDIFF          GRAD             ENERGY        2-EL.EN.            DIPOLE MOMENTS         DIIS   ORB.
    1      0.000D+00      0.000D+00      -129.77994121    154.063579    0.00000    0.59803   -1.04841    0    start
    2      0.000D+00      0.135D-01      -129.80674785    155.198086    0.00000    0.61910   -0.22623    1    diag
    3      0.186D-01      0.104D-01      -129.82904018    155.327488    0.00000    0.56904   -0.60807    2    diag
    4      0.903D-02      0.157D-02      -129.82978581    155.059024    0.00000    0.57754   -0.54773    3    diag
    5      0.167D-02      0.517D-03      -129.82990034    155.144354    0.00000    0.58283   -0.54880    4    diag
    6      0.720D-03      0.153D-03      -129.82991910    155.129690    0.00000    0.58336   -0.54458    5    diag
    7      0.277D-03      0.769D-04      -129.82992468    155.131877    0.00000    0.58454   -0.54202    6    diag
    8      0.192D-03      0.249D-04      -129.82992523    155.131178    0.00000    0.58455   -0.54119    7    diag
    9      0.665D-04      0.453D-05      -129.82992526    155.131061    0.00000    0.58450   -0.54103    8    diag
   10      0.129D-04      0.990D-06      -129.82992526    155.131044    0.00000    0.58447   -0.54101    9    orth
   11      0.282D-05      0.193D-06      -129.82992526    155.131040    0.00000    0.58446   -0.54100    9    diag
   12      0.507D-06      0.405D-07      -129.82992526    155.131039    0.00000    0.58446   -0.54100    9    diag
   13      0.110D-06      0.102D-07      -129.82992526    155.131039    0.00000    0.58446   -0.54100    9    diag
   14      0.274D-07      0.182D-08      -129.82992526    155.131039    0.00000    0.58446   -0.54100    9    diag
   15      0.420D-08      0.464D-09      -129.82992526    155.131039    0.00000    0.58446   -0.54100    9    diag
   16      0.103D-08      0.110D-09      -129.82992526    155.131039    0.00000    0.58446   -0.54100    9    diag
   17      0.163D-09      0.296D-10      -129.82992526    155.131039    0.00000    0.58446   -0.54100    9    diag
   18      0.457D-10      0.950D-11      -129.82992526    155.131039    0.00000    0.58446   -0.54100    9    diag
   19      0.183D-10      0.190D-11      -129.82992526    155.131039    0.00000    0.58446   -0.54100    0    orth

 Final occupancy:   7   1

 !RHF STATE 1.1 Energy               -129.829925258251
 Nuclear energy                        30.32624256
 One-electron energy                 -237.72168727
 Two-electron energy                   77.56551945
 Virial quotient                       -0.99966348
 !RHF STATE 1.1 Dipole moment           0.00000000     0.58445923    -0.54100085
 Dipole moment /Debye                   0.00000000     1.48544989    -1.37499693

 Orbital energies:

         1.1          2.1          3.1          4.1          5.1          6.1          7.1          8.1          9.1
    -20.648057   -15.707100    -1.522957    -0.994400    -0.743110    -0.660858    -0.428642     0.144497     0.369450

         1.2          2.2          3.2
     -0.590199     0.084899     0.613423

 HOMO      7.1    -0.428642 =     -11.6640eV
 LUMO      2.2     0.084899 =       2.3102eV
 LUMO-HOMO         0.513541 =      13.9742eV


 **********************************************************************************************************************************
 DATASETS  * FILE   NREC   LENGTH (MB)   RECORD NAMES
              1      19       35.89       500      610      700      900      950      970     1000      129      960     1100   
                                          VAR    BASINP    GEOM    SYMINP    ZMAT    AOBASIS   BASIS     P2S    ABASIS      S 
                                         1400     1410     1200     1210     1080     1600     1650     1300     1700   
                                           T        V       H0       H01     AOSYM     SMH    MOLCAS    ERIS     OPER   

              2       4        2.85       700     1000      520     2100   
                                         GEOM     BASIS   MCVARS     RHF  

 PROGRAMS   *        TOTAL        HF       INT
 CPU TIMES  *         0.87      0.23      0.54
 REAL TIME  *         2.38 SEC
 DISK USED  *        75.59 MB      
 **********************************************************************************************************************************


 PROGRAM * CCSD (Closed-shell coupled cluster)     Authors: C. Hampel, H.-J. Werner, 1991, M. Deegan, P.J. Knowles, 1992


 Convergence thresholds:  THRVAR = 1.00D-08  THRDEN = 1.00D-12

 CCSD(T)     terms to be evaluated (factor= 1.000)


 Number of core orbitals:           2 (   2   0 )
 Number of closed-shell orbitals:   6 (   5   1 )
 Number of external orbitals:      66 (  43  23 )

 Molecular orbitals read from record     2100.2  Type=RHF/CANONICAL (state 1.1)

 Number of N-1 electron functions:               6
 Number of N-2 electron functions:              21
 Number of singly external CSFs:               238
 Number of doubly external CSFs:             41002
 Total number of CSFs:                       41241

 Length of J-op  integral file:               0.00 MB
 Length of K-op  integral file:               0.25 MB
 Length of 3-ext integral record:             0.00 MB

 Memory could be reduced to 1.65 Mwords without degradation in triples

 Integral transformation finished. Total CPU:   0.03 sec, npass=  1  Memory used:   0.55 MW

 Reference energy:                   -129.82992526

 MP2 singlet pair energy:              -0.27373410
 MP2 triplet pair energy:              -0.16254908
 MP2 correlation energy:               -0.43628318
 MP2 total energy:                   -130.26620844

 SCS-MP2 correlation energy:           -0.42962257   (PS=  1.200000  PT=  0.333333)
 SCS-MP2 total energy:               -130.25954783

 ITER.      SQ.NORM     CORR.ENERGY   TOTAL ENERGY   ENERGY CHANGE        DEN1      VAR(S)    VAR(P)  DIIS     TIME  TIME/IT
   1      1.11848998    -0.44130202  -130.27122728    -0.00501884     0.01080984  0.29D-02  0.30D-02  1  1     0.09     0.05
   2      1.12935362    -0.44153904  -130.27146430    -0.00023701    -0.01230308  0.89D-04  0.50D-03  2  2     0.14     0.05
   3      1.13564427    -0.44192295  -130.27184821    -0.00038391    -0.00297921  0.46D-04  0.51D-04  3  3     0.19     0.05
   4      1.13847007    -0.44195086  -130.27187612    -0.00002791    -0.00096275  0.39D-05  0.89D-05  4  4     0.23     0.05
   5      1.13946798    -0.44198014  -130.27190540    -0.00002928    -0.00020655  0.13D-05  0.17D-05  5  5     0.28     0.05
   6      1.13982501    -0.44196340  -130.27188866     0.00001675    -0.00004080  0.87D-07  0.42D-06  6  6     0.32     0.05
   7      1.13990822    -0.44196570  -130.27189096    -0.00000230    -0.00000176  0.10D-07  0.90D-07  6  1     0.36     0.05
   8      1.13993808    -0.44196567  -130.27189093     0.00000003     0.00000211  0.48D-08  0.11D-07  6  2     0.40     0.05
   9      1.13994565    -0.44196552  -130.27189077     0.00000016    -0.00000235  0.25D-08  0.12D-08  6  3     0.45     0.05
  10      1.13994433    -0.44196601  -130.27189127    -0.00000050     0.00000068  0.48D-09  0.20D-09  6  4     0.50     0.05
  11      1.13994267    -0.44196607  -130.27189133    -0.00000006     0.00000014  0.14D-09  0.22D-10  6  5     0.55     0.05
  12      1.13994132    -0.44196625  -130.27189151    -0.00000018     0.00000042  0.14D-10  0.70D-11  6  6     0.60     0.05
  13      1.13994074    -0.44196625  -130.27189151    -0.00000001     0.00000012  0.61D-11  0.12D-11  6  1     0.65     0.05
  14      1.13994037    -0.44196627  -130.27189153    -0.00000002     0.00000007  0.86D-12  0.41D-12  6  2     0.70     0.05
  15      1.13994023    -0.44196628  -130.27189153    -0.00000000     0.00000001  0.22D-12  0.14D-12  6  3     0.75     0.05
  16      1.13994014    -0.44196628  -130.27189154    -0.00000000     0.00000001  0.23D-13  0.16D-13  6  5     0.81     0.05
  17      1.13994011    -0.44196628  -130.27189154    -0.00000000     0.00000000  0.66D-15  0.19D-14  6  4     0.85     0.05
  18      1.13994011    -0.44196628  -130.27189154     0.00000000    -0.00000000  0.45D-15  0.27D-15  6  1     0.91     0.05
  19      1.13994011    -0.44196628  -130.27189154    -0.00000000     0.00000000  0.48D-16  0.50D-16  6  6     0.96     0.05
  20      1.13994010    -0.44196628  -130.27189154    -0.00000000     0.00000000  0.11D-16  0.13D-16  6  2     1.00     0.05
  21      1.13994010    -0.44196628  -130.27189154    -0.00000000     0.00000000  0.16D-17  0.10D-17  6  5     1.05     0.05
  22      1.13994010    -0.44196628  -130.27189154    -0.00000000     0.00000000  0.95D-19  0.78D-19  6  3     1.10     0.05
  23      1.13994010    -0.44196628  -130.27189154     0.00000000     0.00000000  0.27D-19  0.16D-19  6  4     1.15     0.05
  24      1.13994010    -0.44196628  -130.27189154     0.00000000    -0.00000000  0.40D-20  0.45D-20  6  1     1.20     0.05
  25      1.13994010    -0.44196628  -130.27189154     0.00000000    -0.00000000  0.54D-21  0.76D-21  6  6     1.24     0.05

 Norm of t1 vector:      0.07504226      S-energy:     0.00000000      T1 diagnostic:  0.01531794
                                                                       D1 diagnostic:  0.04289942

 Doubles amplitudes (print threshold =  0.500E-01):

         I         J         SYM. A    SYM. B    A         B      T(IJ, AB)

         6         6         2         2         1         1     -0.14495170


 Total CPU time for triples:      0.37 sec


 RESULTS
 =======

  Reference energy                   -129.829925258251
  CCSD singlet pair energy             -0.303078680760
  CCSD triplet pair energy             -0.138887598365
  CCSD correlation energy              -0.441966279124

  Triples (T) contribution             -0.019816290605
  Total correlation energy             -0.461782569728

  CCSD total energy                  -130.271891537375
  CCSD[T] energy                     -130.292729551175
  CCSD-T energy                      -130.291310656068
 !CCSD(T) total energy               -130.291707827979

 Timing summary (sec):

 STEP                 CPU(USER)    SYS     CPU(TOT)    WALL
 Transformation          0.03      0.01      0.04      0.06
 CCSD iterations         1.21      0.14      1.35      1.33
 Triples                 0.37      0.00      0.37      0.38

 Program statistics:

 Available memory in ccsd:               994999756
 Min. memory needed in ccsd:                154850
 Max. memory used in ccsd:                  184802
 Max. memory used in cckext:                238416 (25 integral passes)



 **********************************************************************************************************************************
 DATASETS  * FILE   NREC   LENGTH (MB)   RECORD NAMES
              1      20       40.28       500      610      700      900      950      970     1000      129      960     1100   
                                          VAR    BASINP    GEOM    SYMINP    ZMAT    AOBASIS   BASIS     P2S    ABASIS      S 
                                         1400     1410     1200     1210     1080     1600     1650     1300     1700     1380   
                                           T        V       H0       H01     AOSYM     SMH    MOLCAS    ERIS     OPER     JKOP   

              2       4        2.85       700     1000      520     2100   
                                         GEOM     BASIS   MCVARS     RHF  

 PROGRAMS   *        TOTAL   CCSD(T)        HF       INT
 CPU TIMES  *         2.50      1.62      0.23      0.54
 REAL TIME  *         4.19 SEC
 DISK USED  *        75.59 MB      
 **********************************************************************************************************************************

 CCSD(T)/cc-pVTZ-DK energy=   -130.291707827979

        CCSD(T)         HF-SCF  
   -130.29170783   -129.82992526
 **********************************************************************************************************************************
 Molpro calculation terminated
 Variable memory released
