
 Primary working directories    : /tmp/r2666/235136.maple
 Secondary working directories  : /tmp/r2666/235136.maple
 Wavefunction directory         : /ddn/home4/r2666/wfu/
 Main file repository           : /tmp/r2666/235136.maple/

 SHA1      : d5ffa45e93fdbca01ffc919aa182cfdae0147319
 NAME      : 2015.1.35
 ARCHNAME  : linux/x86_64
 FC        : /opt/intel/composer_xe_2015.1.133/bin/intel64/ifort
 BLASLIB   : -Wl,-_start-group /opt/intel/mkl/lib/intel64/libmkl_intel_ilp64.a /opt/intel/mkl/lib/intel64/libmkl_intel_thread.a /opt/intel/mkl/lib/intel64/libmkl_core.a -Wl,-_end-group
 id        : olemiss

 Nodes     nprocs
 cn036        1

 Using customized tuning parameters: mindgm=1; mindgv=20; mindgc=4; mindgr=1; noblas=0; minvec=7
 default implementation of scratch files=df  

 ***,hno CCSD(T)/TZ-F12 QFF
 memory, 995, m;
 gthresh,energy=1.d-12,zero=1.d-22,oneint=1.d-22,twoint=1.d-22;
 gthresh,optgrad=1.d-8,optstep=1.d-8;
 nocompress;
 geomtyp=xyz
 bohr
 geometry={
 3
        121       121
 N        0.0000000000       -0.1705889230       -1.1464711288
 H        0.0000000000        1.6758915977       -1.9328377399
 O        0.0000000000        0.0364651152        1.1287192777
 }
 
 basis=vtz-dk
 dkroll=0
   {hf,maxit=500;accu,20;}
 {ccsd(t),nocheck,maxit=250;orbital,IGNORE_ERROR;}

 Variables initialized (889), CPU time= 0.01 sec
 Commands  initialized (702), CPU time= 0.01 sec, 572 directives.
 Default parameters read. Elapsed time= 0.05 sec

 Checking input...
 Passed
1


                                         ***  PROGRAM SYSTEM MOLPRO  ***
                                       Copyright, TTI GmbH Stuttgart, 2015
                                    Version 2015.1 linked Jul  9 2018 13:16:40


 **********************************************************************************************************************************
 LABEL *   hno CCSD(T)/TZ-F12 QFF                                                        
  64 bit serial version                                                                  DATE: 08-Feb-20          TIME: 17:57:12  
 **********************************************************************************************************************************

 SHA1:             d5ffa45e93fdbca01ffc919aa182cfdae0147319
 **********************************************************************************************************************************

 THRESHOLDS:

 ZERO    =  1.00D-22  ONEINT  =  1.00D-22  TWOINT  =  1.00D-22  PREFAC  =  1.00D-14  LOCALI  =  1.00D-09  EORDER  =  1.00D-04
 ENERGY  =  1.00D-12  ETEST   =  0.00D+00  EDENS   =  0.00D+00  THRDEDEF=  1.00D-06  GRADIENT=  1.00D-02  STEP    =  1.00D-03
 ORBITAL =  1.00D-05  CIVEC   =  1.00D-05  COEFF   =  1.00D-04  PRINTCI =  5.00D-02  PUNCHCI =  9.90D+01  OPTGRAD =  3.00D-04
 OPTENERG=  1.00D-06  OPTSTEP =  3.00D-04  THRGRAD =  1.00D-10  COMPRESS=  1.00D-11  VARMIN  =  1.00D-07  VARMAX  =  1.00D-03
 THRDOUB =  0.00D+00  THRDIV  =  1.00D-05  THRRED  =  1.00D-07  THRPSP  =  1.00D+00  THRDC   =  1.00D-10  THRCS   =  1.00D-10
 THRNRM  =  1.00D-08  THREQ   =  0.00D+00  THRDE   =  1.00D+00  THRREF  =  1.00D-05  SPARFAC =  1.00D+00  THRDLP  =  1.00D-07
 THRDIA  =  1.00D-10  THRDLS  =  1.00D-07  THRGPS  =  0.00D+00  THRKEX  =  0.00D+00  THRDIS  =  2.00D-01  THRVAR  =  1.00D-10
 THRLOC  =  1.00D-06  THRGAP  =  1.00D-06  THRLOCT = -1.00D+00  THRGAPT = -1.00D+00  THRORB  =  1.00D-06  THRMLTP =  0.00D+00
 THRCPQCI=  1.00D-10  KEXTA   =  0.00D+00  THRCOARS=  0.00D+00  SYMTOL  =  1.00D-06  GRADTOL =  1.00D-06  THROVL  =  1.00D-08
 THRORTH =  1.00D-08  GRID    =  1.00D-06  GRIDMAX =  1.00D-03  DTMAX   =  0.00D+00  THROCCDE=  1.00D-01  THROCCDE=  1.00D-01



 THRESHOLDS:

 ZERO    =  1.00D-22  ONEINT  =  1.00D-22  TWOINT  =  1.00D-22  PREFAC  =  1.00D-14  LOCALI  =  1.00D-09  EORDER  =  1.00D-04
 ENERGY  =  1.00D-12  ETEST   =  0.00D+00  EDENS   =  0.00D+00  THRDEDEF=  1.00D-06  GRADIENT=  1.00D-02  STEP    =  1.00D-03
 ORBITAL =  1.00D-05  CIVEC   =  1.00D-05  COEFF   =  1.00D-04  PRINTCI =  5.00D-02  PUNCHCI =  9.90D+01  OPTGRAD =  1.00D-08
 OPTENERG=  1.00D-06  OPTSTEP =  1.00D-08  THRGRAD =  1.00D-10  COMPRESS=  1.00D-11  VARMIN  =  1.00D-07  VARMAX  =  1.00D-03
 THRDOUB =  0.00D+00  THRDIV  =  1.00D-05  THRRED  =  1.00D-07  THRPSP  =  1.00D+00  THRDC   =  1.00D-10  THRCS   =  1.00D-10
 THRNRM  =  1.00D-08  THREQ   =  0.00D+00  THRDE   =  1.00D+00  THRREF  =  1.00D-05  SPARFAC =  1.00D+00  THRDLP  =  1.00D-07
 THRDIA  =  1.00D-10  THRDLS  =  1.00D-07  THRGPS  =  0.00D+00  THRKEX  =  0.00D+00  THRDIS  =  2.00D-01  THRVAR  =  1.00D-10
 THRLOC  =  1.00D-06  THRGAP  =  1.00D-06  THRLOCT = -1.00D+00  THRGAPT = -1.00D+00  THRORB  =  1.00D-06  THRMLTP =  0.00D+00
 THRCPQCI=  1.00D-10  KEXTA   =  0.00D+00  THRCOARS=  0.00D+00  SYMTOL  =  1.00D-06  GRADTOL =  1.00D-06  THROVL  =  1.00D-08
 THRORTH =  1.00D-08  GRID    =  1.00D-06  GRIDMAX =  1.00D-03  DTMAX   =  0.00D+00  THROCCDE=  1.00D-01  THROCCDE=  1.00D-01



 Input parameters for SORTINT:

 COMPRESS =    0.000000
 C_FINAL  =    1.000000
 DEBUG    =   -1.000000
 C_SORT1  =    0.000000
 C_SEWARD =    0.000000
 THRESH   =    0.000000
 IO       =  molpro                                                          
 SPRI     =    0.000000
 SETTING GEOMTYP        =    XYZ
 ZUNIT=BOHR
 

 Variable memory set to  995000000 words,  buffer space   230000 words

 SETTING BASIS          =    VTZ-DK
 SETTING DKROLL         =     0.00000000D+00                                  


 Recomputing integrals since basis changed


 Using spherical harmonics

 Library entry N      S cc-pVTZ-DK           selected for orbital group  1
 Library entry N      P cc-pVTZ-DK           selected for orbital group  1
 Library entry N      D cc-pVTZ-DK           selected for orbital group  1
 Library entry N      F cc-pVTZ-DK           selected for orbital group  1
 Library entry H      S cc-pVTZ-DK           selected for orbital group  2
 Library entry H      P cc-pVTZ-DK           selected for orbital group  2
 Library entry H      D cc-pVTZ-DK           selected for orbital group  2
 Library entry O      S cc-pVTZ-DK           selected for orbital group  3
 Library entry O      P cc-pVTZ-DK           selected for orbital group  3
 Library entry O      D cc-pVTZ-DK           selected for orbital group  3
 Library entry O      F cc-pVTZ-DK           selected for orbital group  3


 PROGRAM * SEWARD (Integral evaluation for generally contracted gaussian basis sets)     Author: Roland Lindh, 1990

 Geometry written to block  1 of record 700


 Point group  Cs  



 ATOMIC COORDINATES

 NR  ATOM    CHARGE       X              Y              Z

   1  N       7.00    0.000000000   -0.170588923   -1.146471129
   2  H       1.00    0.000000000    1.675891598   -1.932837740
   3  O       8.00    0.000000000    0.036465115    1.128719278

 Bond lengths in Bohr (Angstrom)

 1-2  2.006953602  1-3  2.284592471
     ( 1.062034110)     ( 1.208954272)

 Bond angles

  2-1-3  107.86796887

 NUCLEAR CHARGE:                   16
 NUMBER OF PRIMITIVE AOS:         111
 NUMBER OF SYMMETRY AOS:          100
 NUMBER OF CONTRACTIONS:           74   (  50A'  +  24A"  )
 NUMBER OF CORE ORBITALS:           2   (   2A'  +   0A"  )
 NUMBER OF VALENCE ORBITALS:        9   (   7A'  +   2A"  )


 NUCLEAR REPULSION ENERGY   30.30347161

 Eigenvalues of metric

         1 0.248E-02 0.402E-02 0.418E-02 0.854E-02 0.132E-01 0.330E-01 0.427E-01 0.465E-01
         2 0.344E-01 0.466E-01 0.102E+00 0.114E+00 0.236E+00 0.346E+00 0.397E+00 0.451E+00


 Contracted 2-electron integrals neglected if value below      1.0D-22

        1874283. INTEGRALS WRITTEN OUT IN     458 BLOCKS ON RECORD 1290 OF FILE 1


 NUMBER OF SORTED TWO-ELECTRON INTEGRALS:    2006100.     BUFFER LENGTH:  32768
 NUMBER OF SEGMENTS:   1  SEGMENT LENGTH:    2006100      RECORD LENGTH: 524288

 Memory used in sort:       2.56 MW

 SORT1 READ     1874283. AND WROTE     1914195. INTEGRALS IN      6 RECORDS. CPU TIME:     0.05 SEC, REAL TIME:     0.07 SEC
 SORT2 READ     1914195. AND WROTE     2006100. INTEGRALS IN      1 RECORDS. CPU TIME:     0.05 SEC, REAL TIME:     0.06 SEC

 FILE SIZES:   FILE 1:    50.1 MBYTE,  FILE 4:    25.2 MBYTE,   TOTAL:     75.3 MBYTE

 OPERATOR DM      FOR CENTER  0  COORDINATES:    0.000000    0.000000    0.000000


 **********************************************************************************************************************************
 DATASETS  * FILE   NREC   LENGTH (MB)   RECORD NAMES
              1      19       35.89       500      610      700      900      950      970     1000      129      960     1100   
                                          VAR    BASINP    GEOM    SYMINP    ZMAT    AOBASIS   BASIS     P2S    ABASIS      S 
                                         1400     1410     1200     1210     1080     1600     1650     1300     1700   
                                           T        V       H0       H01     AOSYM     SMH    MOLCAS    ERIS     OPER   

 PROGRAMS   *        TOTAL       INT
 CPU TIMES  *         0.63      0.54
 REAL TIME  *         1.27 SEC
 DISK USED  *        75.59 MB      
 **********************************************************************************************************************************


 PROGRAM * RHF-SCF (CLOSED SHELL)       Authors: W. Meyer, H.-J. Werner


 NUMBER OF ELECTRONS:       8+    8-
 CONVERGENCE THRESHOLDS:    1.00E-10 (Density)    1.00E-13 (Energy)
 MAX. NUMBER OF ITERATIONS:      500
 INTERPOLATION TYPE:            DIIS
 INTERPOLATION STEPS:              2 (START)      1 (STEP)
 LEVEL SHIFTS:                  0.00 (CLOSED)  0.00 (OPEN) 



 Orbital guess generated from atomic densities. Full valence occupancy:    9   2

 Molecular orbital dump at record        2100.2

 Initial occupancy:   7   1

 ITERATION    DDIFF          GRAD             ENERGY        2-EL.EN.            DIPOLE MOMENTS         DIIS   ORB.
    1      0.000D+00      0.000D+00      -129.77909628    154.009753    0.00000    0.58156   -1.04199    0    start
    2      0.000D+00      0.136D-01      -129.80597340    155.170150    0.00000    0.61531   -0.21859    1    diag
    3      0.187D-01      0.105D-01      -129.82873021    155.288445    0.00000    0.55935   -0.60103    2    diag
    4      0.910D-02      0.156D-02      -129.82947390    155.019361    0.00000    0.56785   -0.54123    3    diag
    5      0.166D-02      0.520D-03      -129.82959137    155.105851    0.00000    0.57334   -0.54237    4    diag
    6      0.726D-03      0.155D-03      -129.82961085    155.090914    0.00000    0.57388   -0.53812    5    diag
    7      0.282D-03      0.776D-04      -129.82961655    155.093209    0.00000    0.57513   -0.53559    6    diag
    8      0.195D-03      0.251D-04      -129.82961710    155.092503    0.00000    0.57514   -0.53477    7    diag
    9      0.664D-04      0.458D-05      -129.82961712    155.092383    0.00000    0.57509   -0.53461    8    diag
   10      0.129D-04      0.101D-05      -129.82961712    155.092365    0.00000    0.57506   -0.53458    9    orth
   11      0.284D-05      0.198D-06      -129.82961712    155.092361    0.00000    0.57505   -0.53458    9    diag
   12      0.520D-06      0.415D-07      -129.82961712    155.092359    0.00000    0.57505   -0.53458    9    diag
   13      0.115D-06      0.104D-07      -129.82961712    155.092359    0.00000    0.57505   -0.53458    9    diag
   14      0.290D-07      0.187D-08      -129.82961712    155.092359    0.00000    0.57505   -0.53458    9    diag
   15      0.457D-08      0.480D-09      -129.82961712    155.092359    0.00000    0.57505   -0.53458    9    diag
   16      0.109D-08      0.115D-09      -129.82961712    155.092359    0.00000    0.57505   -0.53458    9    diag
   17      0.189D-09      0.328D-10      -129.82961712    155.092359    0.00000    0.57505   -0.53458    9    diag
   18      0.573D-10      0.110D-10      -129.82961712    155.092359    0.00000    0.57505   -0.53458    0    orth

 Final occupancy:   7   1

 !RHF STATE 1.1 Energy               -129.829617122712
 Nuclear energy                        30.30347161
 One-electron energy                 -237.67926811
 Two-electron energy                   77.54617937
 Virial quotient                       -0.99980366
 !RHF STATE 1.1 Dipole moment           0.00000000     0.57504661    -0.53457755
 Dipole moment /Debye                   0.00000000     1.46152696    -1.35867160

 Orbital energies:

         1.1          2.1          3.1          4.1          5.1          6.1          7.1          8.1          9.1
    -20.648144   -15.709415    -1.525176    -0.988563    -0.741818    -0.661643    -0.426819     0.143420     0.369898

         1.2          2.2          3.2
     -0.591877     0.085946     0.613020

 HOMO      7.1    -0.426819 =     -11.6143eV
 LUMO      2.2     0.085946 =       2.3387eV
 LUMO-HOMO         0.512765 =      13.9530eV


 **********************************************************************************************************************************
 DATASETS  * FILE   NREC   LENGTH (MB)   RECORD NAMES
              1      19       35.89       500      610      700      900      950      970     1000      129      960     1100   
                                          VAR    BASINP    GEOM    SYMINP    ZMAT    AOBASIS   BASIS     P2S    ABASIS      S 
                                         1400     1410     1200     1210     1080     1600     1650     1300     1700   
                                           T        V       H0       H01     AOSYM     SMH    MOLCAS    ERIS     OPER   

              2       4        2.85       700     1000      520     2100   
                                         GEOM     BASIS   MCVARS     RHF  

 PROGRAMS   *        TOTAL        HF       INT
 CPU TIMES  *         0.86      0.23      0.54
 REAL TIME  *         1.54 SEC
 DISK USED  *        75.59 MB      
 **********************************************************************************************************************************


 PROGRAM * CCSD (Closed-shell coupled cluster)     Authors: C. Hampel, H.-J. Werner, 1991, M. Deegan, P.J. Knowles, 1992


 Convergence thresholds:  THRVAR = 1.00D-08  THRDEN = 1.00D-12

 CCSD(T)     terms to be evaluated (factor= 1.000)


 Number of core orbitals:           2 (   2   0 )
 Number of closed-shell orbitals:   6 (   5   1 )
 Number of external orbitals:      66 (  43  23 )

 Molecular orbitals read from record     2100.2  Type=RHF/CANONICAL (state 1.1)

 Number of N-1 electron functions:               6
 Number of N-2 electron functions:              21
 Number of singly external CSFs:               238
 Number of doubly external CSFs:             41002
 Total number of CSFs:                       41241

 Length of J-op  integral file:               0.00 MB
 Length of K-op  integral file:               0.25 MB
 Length of 3-ext integral record:             0.00 MB

 Memory could be reduced to 1.65 Mwords without degradation in triples

 Integral transformation finished. Total CPU:   0.03 sec, npass=  1  Memory used:   0.55 MW

 Reference energy:                   -129.82961712

 MP2 singlet pair energy:              -0.27390759
 MP2 triplet pair energy:              -0.16262337
 MP2 correlation energy:               -0.43653096
 MP2 total energy:                   -130.26614808

 SCS-MP2 correlation energy:           -0.42987698   (PS=  1.200000  PT=  0.333333)
 SCS-MP2 total energy:               -130.25949410

 ITER.      SQ.NORM     CORR.ENERGY   TOTAL ENERGY   ENERGY CHANGE        DEN1      VAR(S)    VAR(P)  DIIS     TIME  TIME/IT
   1      1.11885464    -0.44161105  -130.27122817    -0.00508009     0.01080129  0.30D-02  0.30D-02  1  1     0.08     0.05
   2      1.12977840    -0.44186143  -130.27147855    -0.00025038    -0.01234062  0.89D-04  0.51D-03  2  2     0.12     0.05
   3      1.13613503    -0.44225509  -130.27187221    -0.00039366    -0.00300623  0.48D-04  0.51D-04  3  3     0.18     0.05
   4      1.13896754    -0.44228051  -130.27189764    -0.00002543    -0.00096718  0.42D-05  0.90D-05  4  4     0.23     0.05
   5      1.13998078    -0.44231072  -130.27192784    -0.00003021    -0.00021004  0.14D-05  0.16D-05  5  5     0.27     0.05
   6      1.14034433    -0.44229389  -130.27191101     0.00001683    -0.00004136  0.10D-06  0.40D-06  6  6     0.33     0.05
   7      1.14043080    -0.44229575  -130.27191287    -0.00000186    -0.00000214  0.13D-07  0.86D-07  6  1     0.38     0.05
   8      1.14046187    -0.44229570  -130.27191282     0.00000005     0.00000177  0.41D-08  0.11D-07  6  2     0.43     0.05
   9      1.14046993    -0.44229546  -130.27191259     0.00000024    -0.00000224  0.25D-08  0.12D-08  6  3     0.48     0.05
  10      1.14046874    -0.44229598  -130.27191310    -0.00000052     0.00000059  0.49D-09  0.21D-09  6  4     0.53     0.05
  11      1.14046699    -0.44229604  -130.27191316    -0.00000006     0.00000020  0.15D-09  0.23D-10  6  5     0.59     0.05
  12      1.14046557    -0.44229622  -130.27191334    -0.00000018     0.00000044  0.16D-10  0.78D-11  6  6     0.64     0.05
  13      1.14046494    -0.44229622  -130.27191335    -0.00000001     0.00000013  0.69D-11  0.13D-11  6  1     0.69     0.05
  14      1.14046454    -0.44229624  -130.27191337    -0.00000002     0.00000008  0.98D-12  0.43D-12  6  2     0.75     0.05
  15      1.14046439    -0.44229625  -130.27191337    -0.00000000     0.00000001  0.25D-12  0.14D-12  6  3     0.79     0.05
  16      1.14046428    -0.44229625  -130.27191337    -0.00000000     0.00000002  0.74D-14  0.36D-13  6  1     0.84     0.05
  17      1.14046427    -0.44229625  -130.27191337     0.00000000    -0.00000000  0.30D-14  0.25D-14  6  4     0.88     0.05
  18      1.14046426    -0.44229625  -130.27191337    -0.00000000     0.00000000  0.71D-15  0.45D-15  6  5     0.92     0.05
  19      1.14046426    -0.44229625  -130.27191337     0.00000000    -0.00000000  0.13D-15  0.83D-16  6  6     0.97     0.05
  20      1.14046426    -0.44229625  -130.27191337    -0.00000000     0.00000000  0.20D-16  0.20D-16  6  2     1.01     0.05
  21      1.14046425    -0.44229625  -130.27191337    -0.00000000     0.00000000  0.29D-17  0.25D-17  6  3     1.06     0.05
  22      1.14046425    -0.44229625  -130.27191337    -0.00000000     0.00000000  0.30D-18  0.39D-18  6  4     1.11     0.05
  23      1.14046425    -0.44229625  -130.27191337    -0.00000000     0.00000000  0.11D-18  0.32D-19  6  1     1.16     0.05
  24      1.14046425    -0.44229625  -130.27191337     0.00000000    -0.00000000  0.17D-19  0.12D-19  6  6     1.20     0.05
  25      1.14046425    -0.44229625  -130.27191337     0.00000000    -0.00000000  0.37D-20  0.73D-21  6  5     1.26     0.05
  26      1.14046425    -0.44229625  -130.27191337     0.00000000    -0.00000000  0.74D-21  0.29D-21  6  2     1.30     0.05
  27      1.14046425    -0.44229625  -130.27191337     0.00000000    -0.00000000  0.24D-22  0.17D-22  6  3     1.35     0.05

 Norm of t1 vector:      0.07560232      S-energy:     0.00000000      T1 diagnostic:  0.01543226
                                                                       D1 diagnostic:  0.04256914

 Doubles amplitudes (print threshold =  0.500E-01):

         I         J         SYM. A    SYM. B    A         B      T(IJ, AB)

         6         6         2         2         1         1     -0.14392664


 Total CPU time for triples:      0.36 sec


 RESULTS
 =======

  Reference energy                   -129.829617122712
  CCSD singlet pair energy             -0.303358505461
  CCSD triplet pair energy             -0.138937744289
  CCSD correlation energy              -0.442296249749

  Triples (T) contribution             -0.019856800691
  Total correlation energy             -0.462153050440

  CCSD total energy                  -130.271913372461
  CCSD[T] energy                     -130.292800322033
  CCSD-T energy                      -130.291368045432
 !CCSD(T) total energy               -130.291770173152

 Timing summary (sec):

 STEP                 CPU(USER)    SYS     CPU(TOT)    WALL
 Transformation          0.03      0.02      0.05      0.06
 CCSD iterations         1.32      0.14      1.46      1.46
 Triples                 0.36      0.00      0.36      0.36

 Program statistics:

 Available memory in ccsd:               994999756
 Min. memory needed in ccsd:                154850
 Max. memory used in ccsd:                  184802
 Max. memory used in cckext:                238416 (27 integral passes)



 **********************************************************************************************************************************
 DATASETS  * FILE   NREC   LENGTH (MB)   RECORD NAMES
              1      20       40.28       500      610      700      900      950      970     1000      129      960     1100   
                                          VAR    BASINP    GEOM    SYMINP    ZMAT    AOBASIS   BASIS     P2S    ABASIS      S 
                                         1400     1410     1200     1210     1080     1600     1650     1300     1700     1380   
                                           T        V       H0       H01     AOSYM     SMH    MOLCAS    ERIS     OPER     JKOP   

              2       4        2.85       700     1000      520     2100   
                                         GEOM     BASIS   MCVARS     RHF  

 PROGRAMS   *        TOTAL   CCSD(T)        HF       INT
 CPU TIMES  *         2.61      1.73      0.23      0.54
 REAL TIME  *         3.45 SEC
 DISK USED  *        75.59 MB      
 **********************************************************************************************************************************

 CCSD(T)/cc-pVTZ-DK energy=   -130.291770173152

        CCSD(T)         HF-SCF  
   -130.29177017   -129.82961712
 **********************************************************************************************************************************
 Molpro calculation terminated
 Variable memory released
