
 Primary working directories    : /tmp/r2666/235049.maple
 Secondary working directories  : /tmp/r2666/235049.maple
 Wavefunction directory         : /ddn/home4/r2666/wfu/
 Main file repository           : /tmp/r2666/235049.maple/

 SHA1      : d5ffa45e93fdbca01ffc919aa182cfdae0147319
 NAME      : 2015.1.35
 ARCHNAME  : linux/x86_64
 FC        : /opt/intel/composer_xe_2015.1.133/bin/intel64/ifort
 BLASLIB   : -Wl,-_start-group /opt/intel/mkl/lib/intel64/libmkl_intel_ilp64.a /opt/intel/mkl/lib/intel64/libmkl_intel_thread.a /opt/intel/mkl/lib/intel64/libmkl_core.a -Wl,-_end-group
 id        : olemiss

 Nodes     nprocs
 cn091        1

 Using customized tuning parameters: mindgm=1; mindgv=20; mindgc=4; mindgr=1; noblas=0; minvec=7
 default implementation of scratch files=df  

 ***,hno CCSD(T)/TZ-F12 QFF
 memory, 995, m;
 gthresh,energy=1.d-12,zero=1.d-22,oneint=1.d-22,twoint=1.d-22;
 gthresh,optgrad=1.d-8,optstep=1.d-8;
 nocompress;
 geomtyp=xyz
 bohr
 geometry={
 3
         34        34
 N        0.0000000000       -0.1587474701       -1.1551960813
 H        0.0000000000        1.6632447087       -1.9267095153
 O        0.0000000000        0.0372705514        1.1313160056
 }
 
 basis=vtz-dk
 dkroll=0
   {hf,maxit=500;accu,20;}
 {ccsd(t),nocheck,maxit=250;orbital,IGNORE_ERROR;}

 Variables initialized (889), CPU time= 0.01 sec
 Commands  initialized (702), CPU time= 0.01 sec, 572 directives.
 Default parameters read. Elapsed time= 0.05 sec

 Checking input...
 Passed
1


                                         ***  PROGRAM SYSTEM MOLPRO  ***
                                       Copyright, TTI GmbH Stuttgart, 2015
                                    Version 2015.1 linked Jul  9 2018 13:16:40


 **********************************************************************************************************************************
 LABEL *   hno CCSD(T)/TZ-F12 QFF                                                        
  64 bit serial version                                                                  DATE: 08-Feb-20          TIME: 17:57:02  
 **********************************************************************************************************************************

 SHA1:             d5ffa45e93fdbca01ffc919aa182cfdae0147319
 **********************************************************************************************************************************

 THRESHOLDS:

 ZERO    =  1.00D-22  ONEINT  =  1.00D-22  TWOINT  =  1.00D-22  PREFAC  =  1.00D-14  LOCALI  =  1.00D-09  EORDER  =  1.00D-04
 ENERGY  =  1.00D-12  ETEST   =  0.00D+00  EDENS   =  0.00D+00  THRDEDEF=  1.00D-06  GRADIENT=  1.00D-02  STEP    =  1.00D-03
 ORBITAL =  1.00D-05  CIVEC   =  1.00D-05  COEFF   =  1.00D-04  PRINTCI =  5.00D-02  PUNCHCI =  9.90D+01  OPTGRAD =  3.00D-04
 OPTENERG=  1.00D-06  OPTSTEP =  3.00D-04  THRGRAD =  1.00D-10  COMPRESS=  1.00D-11  VARMIN  =  1.00D-07  VARMAX  =  1.00D-03
 THRDOUB =  0.00D+00  THRDIV  =  1.00D-05  THRRED  =  1.00D-07  THRPSP  =  1.00D+00  THRDC   =  1.00D-10  THRCS   =  1.00D-10
 THRNRM  =  1.00D-08  THREQ   =  0.00D+00  THRDE   =  1.00D+00  THRREF  =  1.00D-05  SPARFAC =  1.00D+00  THRDLP  =  1.00D-07
 THRDIA  =  1.00D-10  THRDLS  =  1.00D-07  THRGPS  =  0.00D+00  THRKEX  =  0.00D+00  THRDIS  =  2.00D-01  THRVAR  =  1.00D-10
 THRLOC  =  1.00D-06  THRGAP  =  1.00D-06  THRLOCT = -1.00D+00  THRGAPT = -1.00D+00  THRORB  =  1.00D-06  THRMLTP =  0.00D+00
 THRCPQCI=  1.00D-10  KEXTA   =  0.00D+00  THRCOARS=  0.00D+00  SYMTOL  =  1.00D-06  GRADTOL =  1.00D-06  THROVL  =  1.00D-08
 THRORTH =  1.00D-08  GRID    =  1.00D-06  GRIDMAX =  1.00D-03  DTMAX   =  0.00D+00  THROCCDE=  1.00D-01  THROCCDE=  1.00D-01



 THRESHOLDS:

 ZERO    =  1.00D-22  ONEINT  =  1.00D-22  TWOINT  =  1.00D-22  PREFAC  =  1.00D-14  LOCALI  =  1.00D-09  EORDER  =  1.00D-04
 ENERGY  =  1.00D-12  ETEST   =  0.00D+00  EDENS   =  0.00D+00  THRDEDEF=  1.00D-06  GRADIENT=  1.00D-02  STEP    =  1.00D-03
 ORBITAL =  1.00D-05  CIVEC   =  1.00D-05  COEFF   =  1.00D-04  PRINTCI =  5.00D-02  PUNCHCI =  9.90D+01  OPTGRAD =  1.00D-08
 OPTENERG=  1.00D-06  OPTSTEP =  1.00D-08  THRGRAD =  1.00D-10  COMPRESS=  1.00D-11  VARMIN  =  1.00D-07  VARMAX  =  1.00D-03
 THRDOUB =  0.00D+00  THRDIV  =  1.00D-05  THRRED  =  1.00D-07  THRPSP  =  1.00D+00  THRDC   =  1.00D-10  THRCS   =  1.00D-10
 THRNRM  =  1.00D-08  THREQ   =  0.00D+00  THRDE   =  1.00D+00  THRREF  =  1.00D-05  SPARFAC =  1.00D+00  THRDLP  =  1.00D-07
 THRDIA  =  1.00D-10  THRDLS  =  1.00D-07  THRGPS  =  0.00D+00  THRKEX  =  0.00D+00  THRDIS  =  2.00D-01  THRVAR  =  1.00D-10
 THRLOC  =  1.00D-06  THRGAP  =  1.00D-06  THRLOCT = -1.00D+00  THRGAPT = -1.00D+00  THRORB  =  1.00D-06  THRMLTP =  0.00D+00
 THRCPQCI=  1.00D-10  KEXTA   =  0.00D+00  THRCOARS=  0.00D+00  SYMTOL  =  1.00D-06  GRADTOL =  1.00D-06  THROVL  =  1.00D-08
 THRORTH =  1.00D-08  GRID    =  1.00D-06  GRIDMAX =  1.00D-03  DTMAX   =  0.00D+00  THROCCDE=  1.00D-01  THROCCDE=  1.00D-01



 Input parameters for SORTINT:

 COMPRESS =    0.000000
 C_FINAL  =    1.000000
 DEBUG    =   -1.000000
 C_SORT1  =    0.000000
 C_SEWARD =    0.000000
 THRESH   =    0.000000
 IO       =  molpro                                                          
 SPRI     =    0.000000
 SETTING GEOMTYP        =    XYZ
 ZUNIT=BOHR
 

 Variable memory set to  995000000 words,  buffer space   230000 words

 SETTING BASIS          =    VTZ-DK
 SETTING DKROLL         =     0.00000000D+00                                  


 Recomputing integrals since basis changed


 Using spherical harmonics

 Library entry N      S cc-pVTZ-DK           selected for orbital group  1
 Library entry N      P cc-pVTZ-DK           selected for orbital group  1
 Library entry N      D cc-pVTZ-DK           selected for orbital group  1
 Library entry N      F cc-pVTZ-DK           selected for orbital group  1
 Library entry H      S cc-pVTZ-DK           selected for orbital group  2
 Library entry H      P cc-pVTZ-DK           selected for orbital group  2
 Library entry H      D cc-pVTZ-DK           selected for orbital group  2
 Library entry O      S cc-pVTZ-DK           selected for orbital group  3
 Library entry O      P cc-pVTZ-DK           selected for orbital group  3
 Library entry O      D cc-pVTZ-DK           selected for orbital group  3
 Library entry O      F cc-pVTZ-DK           selected for orbital group  3


 PROGRAM * SEWARD (Integral evaluation for generally contracted gaussian basis sets)     Author: Roland Lindh, 1990

 Geometry written to block  1 of record 700


 Point group  Cs  



 ATOMIC COORDINATES

 NR  ATOM    CHARGE       X              Y              Z

   1  N       7.00    0.000000000   -0.158747470   -1.155196081
   2  H       1.00    0.000000000    1.663244709   -1.926709515
   3  O       8.00    0.000000000    0.037270551    1.131316006

 Bond lengths in Bohr (Angstrom)

 1-2  1.978607712  1-3  2.294898819
     ( 1.047034111)     ( 1.214408156)

 Bond angles

  2-1-3  108.05011406

 NUCLEAR CHARGE:                   16
 NUMBER OF PRIMITIVE AOS:         111
 NUMBER OF SYMMETRY AOS:          100
 NUMBER OF CONTRACTIONS:           74   (  50A'  +  24A"  )
 NUMBER OF CORE ORBITALS:           2   (   2A'  +   0A"  )
 NUMBER OF VALENCE ORBITALS:        9   (   7A'  +   2A"  )


 NUCLEAR REPULSION ENERGY   30.24964085

 Eigenvalues of metric

         1 0.245E-02 0.397E-02 0.425E-02 0.830E-02 0.129E-01 0.330E-01 0.429E-01 0.464E-01
         2 0.345E-01 0.465E-01 0.102E+00 0.111E+00 0.235E+00 0.340E+00 0.396E+00 0.451E+00


 Contracted 2-electron integrals neglected if value below      1.0D-22

        1874283. INTEGRALS WRITTEN OUT IN     458 BLOCKS ON RECORD 1290 OF FILE 1


 NUMBER OF SORTED TWO-ELECTRON INTEGRALS:    2006100.     BUFFER LENGTH:  32768
 NUMBER OF SEGMENTS:   1  SEGMENT LENGTH:    2006100      RECORD LENGTH: 524288

 Memory used in sort:       2.56 MW

 SORT1 READ     1874283. AND WROTE     1914195. INTEGRALS IN      6 RECORDS. CPU TIME:     0.03 SEC, REAL TIME:     0.05 SEC
 SORT2 READ     1914195. AND WROTE     2006100. INTEGRALS IN      1 RECORDS. CPU TIME:     0.05 SEC, REAL TIME:     0.06 SEC

 FILE SIZES:   FILE 1:    50.1 MBYTE,  FILE 4:    25.2 MBYTE,   TOTAL:     75.3 MBYTE

 OPERATOR DM      FOR CENTER  0  COORDINATES:    0.000000    0.000000    0.000000


 **********************************************************************************************************************************
 DATASETS  * FILE   NREC   LENGTH (MB)   RECORD NAMES
              1      19       35.89       500      610      700      900      950      970     1000      129      960     1100   
                                          VAR    BASINP    GEOM    SYMINP    ZMAT    AOBASIS   BASIS     P2S    ABASIS      S 
                                         1400     1410     1200     1210     1080     1600     1650     1300     1700   
                                           T        V       H0       H01     AOSYM     SMH    MOLCAS    ERIS     OPER   

 PROGRAMS   *        TOTAL       INT
 CPU TIMES  *         0.64      0.56
 REAL TIME  *         1.60 SEC
 DISK USED  *        75.59 MB      
 **********************************************************************************************************************************


 PROGRAM * RHF-SCF (CLOSED SHELL)       Authors: W. Meyer, H.-J. Werner


 NUMBER OF ELECTRONS:       8+    8-
 CONVERGENCE THRESHOLDS:    1.00E-10 (Density)    1.00E-13 (Energy)
 MAX. NUMBER OF ITERATIONS:      500
 INTERPOLATION TYPE:            DIIS
 INTERPOLATION STEPS:              2 (START)      1 (STEP)
 LEVEL SHIFTS:                  0.00 (CLOSED)  0.00 (OPEN) 



 Orbital guess generated from atomic densities. Full valence occupancy:    9   2

 Molecular orbital dump at record        2100.2

 Initial occupancy:   7   1

 ITERATION    DDIFF          GRAD             ENERGY        2-EL.EN.            DIPOLE MOMENTS         DIIS   ORB.
    1      0.000D+00      0.000D+00      -129.77878141    153.923474    0.00000    0.59527   -1.05752    0    start
    2      0.000D+00      0.136D-01      -129.80549881    155.057634    0.00000    0.62040   -0.22226    1    diag
    3      0.188D-01      0.105D-01      -129.82847657    155.191462    0.00000    0.56819   -0.61095    2    diag
    4      0.913D-02      0.157D-02      -129.82922768    154.920577    0.00000    0.57665   -0.55022    3    diag
    5      0.168D-02      0.520D-03      -129.82934412    155.006465    0.00000    0.58198   -0.55124    4    diag
    6      0.725D-03      0.154D-03      -129.82936328    154.991682    0.00000    0.58250   -0.54695    5    diag
    7      0.280D-03      0.778D-04      -129.82936902    154.993861    0.00000    0.58369   -0.54436    6    diag
    8      0.195D-03      0.254D-04      -129.82936960    154.993145    0.00000    0.58370   -0.54350    7    diag
    9      0.683D-04      0.464D-05      -129.82936962    154.993023    0.00000    0.58365   -0.54334    8    diag
   10      0.133D-04      0.101D-05      -129.82936962    154.993007    0.00000    0.58362   -0.54331    9    orth
   11      0.286D-05      0.197D-06      -129.82936962    154.993003    0.00000    0.58361   -0.54331    9    diag
   12      0.514D-06      0.417D-07      -129.82936962    154.993001    0.00000    0.58361   -0.54331    9    diag
   13      0.112D-06      0.105D-07      -129.82936962    154.993001    0.00000    0.58361   -0.54331    9    diag
   14      0.283D-07      0.189D-08      -129.82936962    154.993001    0.00000    0.58361   -0.54331    9    diag
   15      0.429D-08      0.480D-09      -129.82936962    154.993001    0.00000    0.58361   -0.54331    9    diag
   16      0.105D-08      0.114D-09      -129.82936962    154.993001    0.00000    0.58361   -0.54331    9    diag
   17      0.167D-09      0.313D-10      -129.82936962    154.993001    0.00000    0.58361   -0.54331    9    diag
   18      0.478D-10      0.103D-10      -129.82936962    154.993001    0.00000    0.58361   -0.54331    0    orth

 Final occupancy:   7   1

 !RHF STATE 1.1 Energy               -129.829369624008
 Nuclear energy                        30.24964085
 One-electron energy                 -237.57551092
 Two-electron energy                   77.49650044
 Virial quotient                       -0.99979357
 !RHF STATE 1.1 Dipole moment           0.00000000     0.58360724    -0.54330720
 Dipole moment /Debye                   0.00000000     1.48328448    -1.38085870

 Orbital energies:

         1.1          2.1          3.1          4.1          5.1          6.1          7.1          8.1          9.1
    -20.648383   -15.708261    -1.520805    -0.993675    -0.741775    -0.660089    -0.429218     0.144052     0.369072

         1.2          2.2          3.2
     -0.589050     0.083931     0.613694

 HOMO      7.1    -0.429218 =     -11.6796eV
 LUMO      2.2     0.083931 =       2.2839eV
 LUMO-HOMO         0.513149 =      13.9635eV


 **********************************************************************************************************************************
 DATASETS  * FILE   NREC   LENGTH (MB)   RECORD NAMES
              1      19       35.89       500      610      700      900      950      970     1000      129      960     1100   
                                          VAR    BASINP    GEOM    SYMINP    ZMAT    AOBASIS   BASIS     P2S    ABASIS      S 
                                         1400     1410     1200     1210     1080     1600     1650     1300     1700   
                                           T        V       H0       H01     AOSYM     SMH    MOLCAS    ERIS     OPER   

              2       4        2.85       700     1000      520     2100   
                                         GEOM     BASIS   MCVARS     RHF  

 PROGRAMS   *        TOTAL        HF       INT
 CPU TIMES  *         0.83      0.19      0.56
 REAL TIME  *         1.85 SEC
 DISK USED  *        75.59 MB      
 **********************************************************************************************************************************


 PROGRAM * CCSD (Closed-shell coupled cluster)     Authors: C. Hampel, H.-J. Werner, 1991, M. Deegan, P.J. Knowles, 1992


 Convergence thresholds:  THRVAR = 1.00D-08  THRDEN = 1.00D-12

 CCSD(T)     terms to be evaluated (factor= 1.000)


 Number of core orbitals:           2 (   2   0 )
 Number of closed-shell orbitals:   6 (   5   1 )
 Number of external orbitals:      66 (  43  23 )

 Molecular orbitals read from record     2100.2  Type=RHF/CANONICAL (state 1.1)

 Number of N-1 electron functions:               6
 Number of N-2 electron functions:              21
 Number of singly external CSFs:               238
 Number of doubly external CSFs:             41002
 Total number of CSFs:                       41241

 Length of J-op  integral file:               0.00 MB
 Length of K-op  integral file:               0.25 MB
 Length of 3-ext integral record:             0.00 MB

 Memory could be reduced to 1.65 Mwords without degradation in triples

 Integral transformation finished. Total CPU:   0.02 sec, npass=  1  Memory used:   0.55 MW

 Reference energy:                   -129.82936962

 MP2 singlet pair energy:              -0.27413203
 MP2 triplet pair energy:              -0.16280029
 MP2 correlation energy:               -0.43693232
 MP2 total energy:                   -130.26630195

 SCS-MP2 correlation energy:           -0.43025640   (PS=  1.200000  PT=  0.333333)
 SCS-MP2 total energy:               -130.25962602

 ITER.      SQ.NORM     CORR.ENERGY   TOTAL ENERGY   ENERGY CHANGE        DEN1      VAR(S)    VAR(P)  DIIS     TIME  TIME/IT
   1      1.11894328    -0.44183801  -130.27120763    -0.00490568     0.01107584  0.30D-02  0.31D-02  1  1     0.06     0.04
   2      1.12990452    -0.44205236  -130.27142198    -0.00021435    -0.01239338  0.91D-04  0.51D-03  2  2     0.09     0.04
   3      1.13628195    -0.44244382  -130.27181344    -0.00039146    -0.00300895  0.48D-04  0.52D-04  3  3     0.12     0.04
   4      1.13914951    -0.44247145  -130.27184107    -0.00002763    -0.00097470  0.40D-05  0.91D-05  4  4     0.16     0.04
   5      1.14017084    -0.44250159  -130.27187121    -0.00003014    -0.00021150  0.13D-05  0.17D-05  5  5     0.20     0.04
   6      1.14053415    -0.44248440  -130.27185402     0.00001719    -0.00004161  0.91D-07  0.42D-06  6  6     0.23     0.04
   7      1.14061800    -0.44248665  -130.27185628    -0.00000226    -0.00000172  0.11D-07  0.91D-07  6  1     0.27     0.04
   8      1.14064823    -0.44248658  -130.27185621     0.00000007     0.00000204  0.47D-08  0.11D-07  6  2     0.31     0.04
   9      1.14065603    -0.44248640  -130.27185603     0.00000018    -0.00000234  0.26D-08  0.12D-08  6  3     0.33     0.04
  10      1.14065473    -0.44248691  -130.27185654    -0.00000051     0.00000066  0.49D-09  0.21D-09  6  4     0.37     0.04
  11      1.14065304    -0.44248697  -130.27185659    -0.00000006     0.00000015  0.15D-09  0.23D-10  6  5     0.41     0.04
  12      1.14065166    -0.44248715  -130.27185677    -0.00000018     0.00000043  0.14D-10  0.73D-11  6  6     0.45     0.04
  13      1.14065106    -0.44248716  -130.27185678    -0.00000001     0.00000012  0.63D-11  0.12D-11  6  1     0.49     0.04
  14      1.14065068    -0.44248718  -130.27185680    -0.00000002     0.00000008  0.89D-12  0.43D-12  6  2     0.52     0.04
  15      1.14065053    -0.44248718  -130.27185680    -0.00000000     0.00000001  0.23D-12  0.14D-12  6  3     0.56     0.04
  16      1.14065043    -0.44248718  -130.27185680    -0.00000000     0.00000001  0.24D-13  0.16D-13  6  5     0.60     0.04
  17      1.14065040    -0.44248718  -130.27185681    -0.00000000     0.00000000  0.61D-15  0.19D-14  6  4     0.63     0.04
  18      1.14065040    -0.44248718  -130.27185681     0.00000000    -0.00000000  0.43D-15  0.26D-15  6  1     0.66     0.04
  19      1.14065040    -0.44248718  -130.27185681    -0.00000000     0.00000000  0.47D-16  0.48D-16  6  6     0.70     0.04
  20      1.14065039    -0.44248718  -130.27185681    -0.00000000     0.00000000  0.11D-16  0.13D-16  6  2     0.73     0.04
  21      1.14065039    -0.44248718  -130.27185681    -0.00000000     0.00000000  0.16D-17  0.10D-17  6  5     0.76     0.04
  22      1.14065039    -0.44248718  -130.27185681    -0.00000000     0.00000000  0.92D-19  0.79D-19  6  3     0.80     0.04
  23      1.14065039    -0.44248718  -130.27185681     0.00000000     0.00000000  0.26D-19  0.16D-19  6  4     0.83     0.04
  24      1.14065039    -0.44248718  -130.27185681     0.00000000    -0.00000000  0.39D-20  0.44D-20  6  1     0.86     0.04
  25      1.14065039    -0.44248718  -130.27185681     0.00000000    -0.00000000  0.56D-21  0.74D-21  6  6     0.90     0.04

 Norm of t1 vector:      0.07570322      S-energy:     0.00000000      T1 diagnostic:  0.01545286
                                                                       D1 diagnostic:  0.04325481

 Doubles amplitudes (print threshold =  0.500E-01):

         I         J         SYM. A    SYM. B    A         B      T(IJ, AB)

         6         6         2         2         1         1     -0.14563457


 Total CPU time for triples:      0.25 sec


 RESULTS
 =======

  Reference energy                   -129.829369624008
  CCSD singlet pair energy             -0.303530977995
  CCSD triplet pair energy             -0.138956204621
  CCSD correlation energy              -0.442487182614

  Triples (T) contribution             -0.019927458508
  Total correlation energy             -0.462414641122

  CCSD total energy                  -130.271856806622
  CCSD[T] energy                     -130.292822313928
  CCSD-T energy                      -130.291382402367
 !CCSD(T) total energy               -130.291784265130

 Timing summary (sec):

 STEP                 CPU(USER)    SYS     CPU(TOT)    WALL
 Transformation          0.02      0.01      0.03      0.03
 CCSD iterations         0.88      0.16      1.04      1.05
 Triples                 0.25      0.01      0.26      0.25

 Program statistics:

 Available memory in ccsd:               994999756
 Min. memory needed in ccsd:                154850
 Max. memory used in ccsd:                  184802
 Max. memory used in cckext:                238416 (25 integral passes)



 **********************************************************************************************************************************
 DATASETS  * FILE   NREC   LENGTH (MB)   RECORD NAMES
              1      20       40.28       500      610      700      900      950      970     1000      129      960     1100   
                                          VAR    BASINP    GEOM    SYMINP    ZMAT    AOBASIS   BASIS     P2S    ABASIS      S 
                                         1400     1410     1200     1210     1080     1600     1650     1300     1700     1380   
                                           T        V       H0       H01     AOSYM     SMH    MOLCAS    ERIS     OPER     JKOP   

              2       4        2.85       700     1000      520     2100   
                                         GEOM     BASIS   MCVARS     RHF  

 PROGRAMS   *        TOTAL   CCSD(T)        HF       INT
 CPU TIMES  *         2.00      1.16      0.19      0.56
 REAL TIME  *         3.22 SEC
 DISK USED  *        75.59 MB      
 **********************************************************************************************************************************

 CCSD(T)/cc-pVTZ-DK energy=   -130.291784265130

        CCSD(T)         HF-SCF  
   -130.29178427   -129.82936962
 **********************************************************************************************************************************
 Molpro calculation terminated
 Variable memory released
