
 Primary working directories    : /tmp/r2666/235020.maple
 Secondary working directories  : /tmp/r2666/235020.maple
 Wavefunction directory         : /ddn/home4/r2666/wfu/
 Main file repository           : /tmp/r2666/235020.maple/

 SHA1      : d5ffa45e93fdbca01ffc919aa182cfdae0147319
 NAME      : 2015.1.35
 ARCHNAME  : linux/x86_64
 FC        : /opt/intel/composer_xe_2015.1.133/bin/intel64/ifort
 BLASLIB   : -Wl,-_start-group /opt/intel/mkl/lib/intel64/libmkl_intel_ilp64.a /opt/intel/mkl/lib/intel64/libmkl_intel_thread.a /opt/intel/mkl/lib/intel64/libmkl_core.a -Wl,-_end-group
 id        : olemiss

 Nodes     nprocs
 cn092        1

 Using customized tuning parameters: mindgm=1; mindgv=20; mindgc=4; mindgr=1; noblas=0; minvec=7
 default implementation of scratch files=df  

 ***,hno CCSD(T)/TZ-F12 QFF
 memory, 995, m;
 gthresh,energy=1.d-12,zero=1.d-22,oneint=1.d-22,twoint=1.d-22;
 gthresh,optgrad=1.d-8,optstep=1.d-8;
 nocompress;
 geomtyp=xyz
 bohr
 geometry={
 3
          5         5
 N        0.0000000000       -0.1452606113       -1.1532145289
 H        0.0000000000        1.6544466479       -1.9287909843
 O        0.0000000000        0.0325817534        1.1314159222
 }
 
 basis=vtz-dk
 dkroll=0
   {hf,maxit=500;accu,20;}
 {ccsd(t),nocheck,maxit=250;orbital,IGNORE_ERROR;}

 Variables initialized (889), CPU time= 0.01 sec
 Commands  initialized (702), CPU time= 0.01 sec, 572 directives.
 Default parameters read. Elapsed time= 0.04 sec

 Checking input...
 Passed
1


                                         ***  PROGRAM SYSTEM MOLPRO  ***
                                       Copyright, TTI GmbH Stuttgart, 2015
                                    Version 2015.1 linked Jul  9 2018 13:16:40


 **********************************************************************************************************************************
 LABEL *   hno CCSD(T)/TZ-F12 QFF                                                        
  64 bit serial version                                                                  DATE: 08-Feb-20          TIME: 17:56:56  
 **********************************************************************************************************************************

 SHA1:             d5ffa45e93fdbca01ffc919aa182cfdae0147319
 **********************************************************************************************************************************

 THRESHOLDS:

 ZERO    =  1.00D-22  ONEINT  =  1.00D-22  TWOINT  =  1.00D-22  PREFAC  =  1.00D-14  LOCALI  =  1.00D-09  EORDER  =  1.00D-04
 ENERGY  =  1.00D-12  ETEST   =  0.00D+00  EDENS   =  0.00D+00  THRDEDEF=  1.00D-06  GRADIENT=  1.00D-02  STEP    =  1.00D-03
 ORBITAL =  1.00D-05  CIVEC   =  1.00D-05  COEFF   =  1.00D-04  PRINTCI =  5.00D-02  PUNCHCI =  9.90D+01  OPTGRAD =  3.00D-04
 OPTENERG=  1.00D-06  OPTSTEP =  3.00D-04  THRGRAD =  1.00D-10  COMPRESS=  1.00D-11  VARMIN  =  1.00D-07  VARMAX  =  1.00D-03
 THRDOUB =  0.00D+00  THRDIV  =  1.00D-05  THRRED  =  1.00D-07  THRPSP  =  1.00D+00  THRDC   =  1.00D-10  THRCS   =  1.00D-10
 THRNRM  =  1.00D-08  THREQ   =  0.00D+00  THRDE   =  1.00D+00  THRREF  =  1.00D-05  SPARFAC =  1.00D+00  THRDLP  =  1.00D-07
 THRDIA  =  1.00D-10  THRDLS  =  1.00D-07  THRGPS  =  0.00D+00  THRKEX  =  0.00D+00  THRDIS  =  2.00D-01  THRVAR  =  1.00D-10
 THRLOC  =  1.00D-06  THRGAP  =  1.00D-06  THRLOCT = -1.00D+00  THRGAPT = -1.00D+00  THRORB  =  1.00D-06  THRMLTP =  0.00D+00
 THRCPQCI=  1.00D-10  KEXTA   =  0.00D+00  THRCOARS=  0.00D+00  SYMTOL  =  1.00D-06  GRADTOL =  1.00D-06  THROVL  =  1.00D-08
 THRORTH =  1.00D-08  GRID    =  1.00D-06  GRIDMAX =  1.00D-03  DTMAX   =  0.00D+00  THROCCDE=  1.00D-01  THROCCDE=  1.00D-01



 THRESHOLDS:

 ZERO    =  1.00D-22  ONEINT  =  1.00D-22  TWOINT  =  1.00D-22  PREFAC  =  1.00D-14  LOCALI  =  1.00D-09  EORDER  =  1.00D-04
 ENERGY  =  1.00D-12  ETEST   =  0.00D+00  EDENS   =  0.00D+00  THRDEDEF=  1.00D-06  GRADIENT=  1.00D-02  STEP    =  1.00D-03
 ORBITAL =  1.00D-05  CIVEC   =  1.00D-05  COEFF   =  1.00D-04  PRINTCI =  5.00D-02  PUNCHCI =  9.90D+01  OPTGRAD =  1.00D-08
 OPTENERG=  1.00D-06  OPTSTEP =  1.00D-08  THRGRAD =  1.00D-10  COMPRESS=  1.00D-11  VARMIN  =  1.00D-07  VARMAX  =  1.00D-03
 THRDOUB =  0.00D+00  THRDIV  =  1.00D-05  THRRED  =  1.00D-07  THRPSP  =  1.00D+00  THRDC   =  1.00D-10  THRCS   =  1.00D-10
 THRNRM  =  1.00D-08  THREQ   =  0.00D+00  THRDE   =  1.00D+00  THRREF  =  1.00D-05  SPARFAC =  1.00D+00  THRDLP  =  1.00D-07
 THRDIA  =  1.00D-10  THRDLS  =  1.00D-07  THRGPS  =  0.00D+00  THRKEX  =  0.00D+00  THRDIS  =  2.00D-01  THRVAR  =  1.00D-10
 THRLOC  =  1.00D-06  THRGAP  =  1.00D-06  THRLOCT = -1.00D+00  THRGAPT = -1.00D+00  THRORB  =  1.00D-06  THRMLTP =  0.00D+00
 THRCPQCI=  1.00D-10  KEXTA   =  0.00D+00  THRCOARS=  0.00D+00  SYMTOL  =  1.00D-06  GRADTOL =  1.00D-06  THROVL  =  1.00D-08
 THRORTH =  1.00D-08  GRID    =  1.00D-06  GRIDMAX =  1.00D-03  DTMAX   =  0.00D+00  THROCCDE=  1.00D-01  THROCCDE=  1.00D-01



 Input parameters for SORTINT:

 COMPRESS =    0.000000
 C_FINAL  =    1.000000
 DEBUG    =   -1.000000
 C_SORT1  =    0.000000
 C_SEWARD =    0.000000
 THRESH   =    0.000000
 IO       =  molpro                                                          
 SPRI     =    0.000000
 SETTING GEOMTYP        =    XYZ
 ZUNIT=BOHR
 

 Variable memory set to  995000000 words,  buffer space   230000 words

 SETTING BASIS          =    VTZ-DK
 SETTING DKROLL         =     0.00000000D+00                                  


 Recomputing integrals since basis changed


 Using spherical harmonics

 Library entry N      S cc-pVTZ-DK           selected for orbital group  1
 Library entry N      P cc-pVTZ-DK           selected for orbital group  1
 Library entry N      D cc-pVTZ-DK           selected for orbital group  1
 Library entry N      F cc-pVTZ-DK           selected for orbital group  1
 Library entry H      S cc-pVTZ-DK           selected for orbital group  2
 Library entry H      P cc-pVTZ-DK           selected for orbital group  2
 Library entry H      D cc-pVTZ-DK           selected for orbital group  2
 Library entry O      S cc-pVTZ-DK           selected for orbital group  3
 Library entry O      P cc-pVTZ-DK           selected for orbital group  3
 Library entry O      D cc-pVTZ-DK           selected for orbital group  3
 Library entry O      F cc-pVTZ-DK           selected for orbital group  3


 PROGRAM * SEWARD (Integral evaluation for generally contracted gaussian basis sets)     Author: Roland Lindh, 1990

 Geometry written to block  1 of record 700


 Point group  Cs  



 ATOMIC COORDINATES

 NR  ATOM    CHARGE       X              Y              Z

   1  N       7.00    0.000000000   -0.145260611   -1.153214529
   2  H       1.00    0.000000000    1.654446648   -1.928790984
   3  O       8.00    0.000000000    0.032581753    1.131415922

 Bond lengths in Bohr (Angstrom)

 1-2  1.959710452  1-3  2.291541884
     ( 1.037034111)     ( 1.212631743)

 Bond angles

  2-1-3  108.86233157

 NUCLEAR CHARGE:                   16
 NUMBER OF PRIMITIVE AOS:         111
 NUMBER OF SYMMETRY AOS:          100
 NUMBER OF CONTRACTIONS:           74   (  50A'  +  24A"  )
 NUMBER OF CORE ORBITALS:           2   (   2A'  +   0A"  )
 NUMBER OF VALENCE ORBITALS:        9   (   7A'  +   2A"  )


 NUCLEAR REPULSION ENERGY   30.31950285

 Eigenvalues of metric

         1 0.241E-02 0.392E-02 0.422E-02 0.811E-02 0.127E-01 0.327E-01 0.428E-01 0.462E-01
         2 0.344E-01 0.464E-01 0.102E+00 0.108E+00 0.233E+00 0.336E+00 0.394E+00 0.449E+00


 Contracted 2-electron integrals neglected if value below      1.0D-22

        1874283. INTEGRALS WRITTEN OUT IN     458 BLOCKS ON RECORD 1290 OF FILE 1


 NUMBER OF SORTED TWO-ELECTRON INTEGRALS:    2006100.     BUFFER LENGTH:  32768
 NUMBER OF SEGMENTS:   1  SEGMENT LENGTH:    2006100      RECORD LENGTH: 524288

 Memory used in sort:       2.56 MW

 SORT1 READ     1874283. AND WROTE     1914195. INTEGRALS IN      6 RECORDS. CPU TIME:     0.03 SEC, REAL TIME:     0.04 SEC
 SORT2 READ     1914195. AND WROTE     2006100. INTEGRALS IN      1 RECORDS. CPU TIME:     0.04 SEC, REAL TIME:     0.06 SEC

 FILE SIZES:   FILE 1:    50.1 MBYTE,  FILE 4:    25.2 MBYTE,   TOTAL:     75.3 MBYTE

 OPERATOR DM      FOR CENTER  0  COORDINATES:    0.000000    0.000000    0.000000


 **********************************************************************************************************************************
 DATASETS  * FILE   NREC   LENGTH (MB)   RECORD NAMES
              1      19       35.89       500      610      700      900      950      970     1000      129      960     1100   
                                          VAR    BASINP    GEOM    SYMINP    ZMAT    AOBASIS   BASIS     P2S    ABASIS      S 
                                         1400     1410     1200     1210     1080     1600     1650     1300     1700   
                                           T        V       H0       H01     AOSYM     SMH    MOLCAS    ERIS     OPER   

 PROGRAMS   *        TOTAL       INT
 CPU TIMES  *         0.61      0.52
 REAL TIME  *         1.26 SEC
 DISK USED  *        75.59 MB      
 **********************************************************************************************************************************


 PROGRAM * RHF-SCF (CLOSED SHELL)       Authors: W. Meyer, H.-J. Werner


 NUMBER OF ELECTRONS:       8+    8-
 CONVERGENCE THRESHOLDS:    1.00E-10 (Density)    1.00E-13 (Energy)
 MAX. NUMBER OF ITERATIONS:      500
 INTERPOLATION TYPE:            DIIS
 INTERPOLATION STEPS:              2 (START)      1 (STEP)
 LEVEL SHIFTS:                  0.00 (CLOSED)  0.00 (OPEN) 



 Orbital guess generated from atomic densities. Full valence occupancy:    9   2

 Molecular orbital dump at record        2100.2

 Initial occupancy:   7   1

 ITERATION    DDIFF          GRAD             ENERGY        2-EL.EN.            DIPOLE MOMENTS         DIIS   ORB.
    1      0.000D+00      0.000D+00      -129.78005800    154.051724    0.00000    0.60775   -1.05169    0    start
    2      0.000D+00      0.135D-01      -129.80682604    155.182383    0.00000    0.61977   -0.23071    1    diag
    3      0.186D-01      0.103D-01      -129.82896152    155.314282    0.00000    0.57397   -0.61247    2    diag
    4      0.900D-02      0.158D-02      -129.82970962    155.045574    0.00000    0.58216   -0.55179    3    diag
    5      0.168D-02      0.515D-03      -129.82982323    155.130815    0.00000    0.58744   -0.55290    4    diag
    6      0.718D-03      0.152D-03      -129.82984174    155.116243    0.00000    0.58798   -0.54869    5    diag
    7      0.276D-03      0.765D-04      -129.82984728    155.118406    0.00000    0.58916   -0.54614    6    diag
    8      0.192D-03      0.249D-04      -129.82984783    155.117713    0.00000    0.58916   -0.54530    7    diag
    9      0.666D-04      0.453D-05      -129.82984785    155.117596    0.00000    0.58911   -0.54514    8    diag
   10      0.130D-04      0.993D-06      -129.82984785    155.117579    0.00000    0.58908   -0.54512    9    orth
   11      0.285D-05      0.193D-06      -129.82984785    155.117575    0.00000    0.58907   -0.54512    9    diag
   12      0.507D-06      0.404D-07      -129.82984785    155.117574    0.00000    0.58907   -0.54512    9    diag
   13      0.108D-06      0.102D-07      -129.82984785    155.117574    0.00000    0.58907   -0.54512    9    diag
   14      0.272D-07      0.184D-08      -129.82984785    155.117574    0.00000    0.58907   -0.54512    9    diag
   15      0.414D-08      0.471D-09      -129.82984785    155.117574    0.00000    0.58907   -0.54512    9    diag
   16      0.103D-08      0.115D-09      -129.82984785    155.117574    0.00000    0.58907   -0.54512    9    diag
   17      0.166D-09      0.314D-10      -129.82984785    155.117574    0.00000    0.58907   -0.54512    9    diag
   18      0.481D-10      0.105D-10      -129.82984785    155.117574    0.00000    0.58907   -0.54512    0    orth

 Final occupancy:   7   1

 !RHF STATE 1.1 Energy               -129.829847852505
 Nuclear energy                        30.31950285
 One-electron energy                 -237.70813759
 Two-electron energy                   77.55878689
 Virial quotient                       -0.99964847
 !RHF STATE 1.1 Dipole moment           0.00000000     0.58907064    -0.54511531
 Dipole moment /Debye                   0.00000000     1.49717015    -1.38545417

 Orbital energies:

         1.1          2.1          3.1          4.1          5.1          6.1          7.1          8.1          9.1
    -20.648213   -15.706409    -1.521931    -0.996358    -0.743350    -0.660729    -0.428677     0.144592     0.369347

         1.2          2.2          3.2
     -0.589615     0.084506     0.613578

 HOMO      7.1    -0.428677 =     -11.6649eV
 LUMO      2.2     0.084506 =       2.2995eV
 LUMO-HOMO         0.513184 =      13.9644eV


 **********************************************************************************************************************************
 DATASETS  * FILE   NREC   LENGTH (MB)   RECORD NAMES
              1      19       35.89       500      610      700      900      950      970     1000      129      960     1100   
                                          VAR    BASINP    GEOM    SYMINP    ZMAT    AOBASIS   BASIS     P2S    ABASIS      S 
                                         1400     1410     1200     1210     1080     1600     1650     1300     1700   
                                           T        V       H0       H01     AOSYM     SMH    MOLCAS    ERIS     OPER   

              2       4        2.85       700     1000      520     2100   
                                         GEOM     BASIS   MCVARS     RHF  

 PROGRAMS   *        TOTAL        HF       INT
 CPU TIMES  *         0.79      0.18      0.52
 REAL TIME  *         1.51 SEC
 DISK USED  *        75.59 MB      
 **********************************************************************************************************************************


 PROGRAM * CCSD (Closed-shell coupled cluster)     Authors: C. Hampel, H.-J. Werner, 1991, M. Deegan, P.J. Knowles, 1992


 Convergence thresholds:  THRVAR = 1.00D-08  THRDEN = 1.00D-12

 CCSD(T)     terms to be evaluated (factor= 1.000)


 Number of core orbitals:           2 (   2   0 )
 Number of closed-shell orbitals:   6 (   5   1 )
 Number of external orbitals:      66 (  43  23 )

 Molecular orbitals read from record     2100.2  Type=RHF/CANONICAL (state 1.1)

 Number of N-1 electron functions:               6
 Number of N-2 electron functions:              21
 Number of singly external CSFs:               238
 Number of doubly external CSFs:             41002
 Total number of CSFs:                       41241

 Length of J-op  integral file:               0.00 MB
 Length of K-op  integral file:               0.25 MB
 Length of 3-ext integral record:             0.00 MB

 Memory could be reduced to 1.65 Mwords without degradation in triples

 Integral transformation finished. Total CPU:   0.04 sec, npass=  1  Memory used:   0.55 MW

 Reference energy:                   -129.82984785

 MP2 singlet pair energy:              -0.27371034
 MP2 triplet pair energy:              -0.16254304
 MP2 correlation energy:               -0.43625339
 MP2 total energy:                   -130.26610124

 SCS-MP2 correlation energy:           -0.42959031   (PS=  1.200000  PT=  0.333333)
 SCS-MP2 total energy:               -130.25943816

 ITER.      SQ.NORM     CORR.ENERGY   TOTAL ENERGY   ENERGY CHANGE        DEN1      VAR(S)    VAR(P)  DIIS     TIME  TIME/IT
   1      1.11843945    -0.44125354  -130.27110139    -0.00500015     0.01083705  0.30D-02  0.30D-02  1  1     0.09     0.04
   2      1.12930487    -0.44148405  -130.27133190    -0.00023051    -0.01230526  0.89D-04  0.50D-03  2  2     0.13     0.04
   3      1.13559841    -0.44186784  -130.27171570    -0.00038380    -0.00297605  0.46D-04  0.52D-04  3  3     0.16     0.04
   4      1.13843518    -0.44189599  -130.27174384    -0.00002814    -0.00096457  0.39D-05  0.90D-05  4  4     0.20     0.04
   5      1.13944011    -0.44192527  -130.27177313    -0.00002929    -0.00020772  0.13D-05  0.17D-05  5  5     0.23     0.04
   6      1.13980020    -0.44190847  -130.27175632     0.00001681    -0.00004106  0.84D-07  0.43D-06  6  6     0.27     0.04
   7      1.13988424    -0.44191088  -130.27175873    -0.00000241    -0.00000177  0.97D-08  0.93D-07  6  1     0.32     0.04
   8      1.13991424    -0.44191088  -130.27175874    -0.00000001     0.00000217  0.51D-08  0.11D-07  6  2     0.35     0.04
   9      1.13992191    -0.44191073  -130.27175858     0.00000016    -0.00000240  0.26D-08  0.12D-08  6  3     0.38     0.04
  10      1.13992056    -0.44191124  -130.27175909    -0.00000051     0.00000069  0.50D-09  0.21D-09  6  4     0.42     0.04
  11      1.13991888    -0.44191130  -130.27175915    -0.00000006     0.00000014  0.15D-09  0.23D-10  6  5     0.45     0.04
  12      1.13991752    -0.44191147  -130.27175933    -0.00000018     0.00000043  0.14D-10  0.72D-11  6  6     0.48     0.04
  13      1.13991693    -0.44191148  -130.27175933    -0.00000001     0.00000012  0.61D-11  0.12D-11  6  1     0.52     0.04
  14      1.13991656    -0.44191150  -130.27175935    -0.00000002     0.00000007  0.86D-12  0.43D-12  6  2     0.56     0.04
  15      1.13991642    -0.44191150  -130.27175936    -0.00000000     0.00000001  0.22D-12  0.14D-12  6  3     0.59     0.04
  16      1.13991632    -0.44191150  -130.27175936    -0.00000000     0.00000001  0.24D-13  0.17D-13  6  5     0.62     0.04
  17      1.13991629    -0.44191151  -130.27175936    -0.00000000     0.00000000  0.74D-15  0.20D-14  6  4     0.66     0.04
  18      1.13991629    -0.44191151  -130.27175936     0.00000000    -0.00000000  0.48D-15  0.28D-15  6  1     0.69     0.04
  19      1.13991629    -0.44191151  -130.27175936    -0.00000000     0.00000000  0.53D-16  0.52D-16  6  6     0.73     0.04
  20      1.13991628    -0.44191151  -130.27175936    -0.00000000     0.00000000  0.12D-16  0.14D-16  6  2     0.77     0.04
  21      1.13991628    -0.44191151  -130.27175936    -0.00000000     0.00000000  0.17D-17  0.11D-17  6  5     0.81     0.04
  22      1.13991628    -0.44191151  -130.27175936    -0.00000000     0.00000000  0.10D-18  0.82D-19  6  3     0.85     0.04
  23      1.13991628    -0.44191151  -130.27175936     0.00000000     0.00000000  0.29D-19  0.17D-19  6  4     0.89     0.04
  24      1.13991628    -0.44191151  -130.27175936     0.00000000    -0.00000000  0.42D-20  0.48D-20  6  1     0.92     0.04
  25      1.13991628    -0.44191151  -130.27175936     0.00000000    -0.00000000  0.55D-21  0.82D-21  6  6     0.96     0.04

 Norm of t1 vector:      0.07514215      S-energy:     0.00000000      T1 diagnostic:  0.01533833
                                                                       D1 diagnostic:  0.04306760

 Doubles amplitudes (print threshold =  0.500E-01):

         I         J         SYM. A    SYM. B    A         B      T(IJ, AB)

         6         6         2         2         1         1     -0.14527967


 Total CPU time for triples:      0.24 sec


 RESULTS
 =======

  Reference energy                   -129.829847852505
  CCSD singlet pair energy             -0.303034412697
  CCSD triplet pair energy             -0.138877093421
  CCSD correlation energy              -0.441911506116

  Triples (T) contribution             -0.019818584641
  Total correlation energy             -0.461730090757

  CCSD total energy                  -130.271759358622
  CCSD[T] energy                     -130.292602186516
  CCSD-T energy                      -130.291180849354
 !CCSD(T) total energy               -130.291577943262

 Timing summary (sec):

 STEP                 CPU(USER)    SYS     CPU(TOT)    WALL
 Transformation          0.04      0.01      0.05      0.04
 CCSD iterations         0.92      0.11      1.03      1.04
 Triples                 0.24      0.00      0.24      0.25

 Program statistics:

 Available memory in ccsd:               994999756
 Min. memory needed in ccsd:                154850
 Max. memory used in ccsd:                  184802
 Max. memory used in cckext:                238416 (25 integral passes)



 **********************************************************************************************************************************
 DATASETS  * FILE   NREC   LENGTH (MB)   RECORD NAMES
              1      20       40.28       500      610      700      900      950      970     1000      129      960     1100   
                                          VAR    BASINP    GEOM    SYMINP    ZMAT    AOBASIS   BASIS     P2S    ABASIS      S 
                                         1400     1410     1200     1210     1080     1600     1650     1300     1700     1380   
                                           T        V       H0       H01     AOSYM     SMH    MOLCAS    ERIS     OPER     JKOP   

              2       4        2.85       700     1000      520     2100   
                                         GEOM     BASIS   MCVARS     RHF  

 PROGRAMS   *        TOTAL   CCSD(T)        HF       INT
 CPU TIMES  *         2.02      1.21      0.18      0.52
 REAL TIME  *         2.89 SEC
 DISK USED  *        75.59 MB      
 **********************************************************************************************************************************

 CCSD(T)/cc-pVTZ-DK energy=   -130.291577943262

        CCSD(T)         HF-SCF  
   -130.29157794   -129.82984785
 **********************************************************************************************************************************
 Molpro calculation terminated
 Variable memory released
