
 Primary working directories    : /tmp/r2666/235067.maple
 Secondary working directories  : /tmp/r2666/235067.maple
 Wavefunction directory         : /ddn/home4/r2666/wfu/
 Main file repository           : /tmp/r2666/235067.maple/

 SHA1      : d5ffa45e93fdbca01ffc919aa182cfdae0147319
 NAME      : 2015.1.35
 ARCHNAME  : linux/x86_64
 FC        : /opt/intel/composer_xe_2015.1.133/bin/intel64/ifort
 BLASLIB   : -Wl,-_start-group /opt/intel/mkl/lib/intel64/libmkl_intel_ilp64.a /opt/intel/mkl/lib/intel64/libmkl_intel_thread.a /opt/intel/mkl/lib/intel64/libmkl_core.a -Wl,-_end-group
 id        : olemiss

 Nodes     nprocs
 cn030        1

 Using customized tuning parameters: mindgm=1; mindgv=20; mindgc=4; mindgr=1; noblas=0; minvec=7
 default implementation of scratch files=df  

 ***,hno CCSD(T)/TZ-F12 QFF
 memory, 995, m;
 gthresh,energy=1.d-12,zero=1.d-22,oneint=1.d-22,twoint=1.d-22;
 gthresh,optgrad=1.d-8,optstep=1.d-8;
 nocompress;
 geomtyp=xyz
 bohr
 geometry={
 3
         52        52
 N        0.0000000000       -0.1635860590       -1.1429023852
 H        0.0000000000        1.6653064426       -1.9223382306
 O        0.0000000000        0.0400474064        1.1146510248
 }
 
 basis=vtz-dk
 dkroll=0
   {hf,maxit=500;accu,20;}
 {ccsd(t),nocheck,maxit=250;orbital,IGNORE_ERROR;}

 Variables initialized (889), CPU time= 0.00 sec
 Commands  initialized (702), CPU time= 0.00 sec, 572 directives.
 Default parameters read. Elapsed time= 0.05 sec

 Checking input...
 Passed
1


                                         ***  PROGRAM SYSTEM MOLPRO  ***
                                       Copyright, TTI GmbH Stuttgart, 2015
                                    Version 2015.1 linked Jul  9 2018 13:16:40


 **********************************************************************************************************************************
 LABEL *   hno CCSD(T)/TZ-F12 QFF                                                        
  64 bit serial version                                                                  DATE: 08-Feb-20          TIME: 17:57:04  
 **********************************************************************************************************************************

 SHA1:             d5ffa45e93fdbca01ffc919aa182cfdae0147319
 **********************************************************************************************************************************

 THRESHOLDS:

 ZERO    =  1.00D-22  ONEINT  =  1.00D-22  TWOINT  =  1.00D-22  PREFAC  =  1.00D-14  LOCALI  =  1.00D-09  EORDER  =  1.00D-04
 ENERGY  =  1.00D-12  ETEST   =  0.00D+00  EDENS   =  0.00D+00  THRDEDEF=  1.00D-06  GRADIENT=  1.00D-02  STEP    =  1.00D-03
 ORBITAL =  1.00D-05  CIVEC   =  1.00D-05  COEFF   =  1.00D-04  PRINTCI =  5.00D-02  PUNCHCI =  9.90D+01  OPTGRAD =  3.00D-04
 OPTENERG=  1.00D-06  OPTSTEP =  3.00D-04  THRGRAD =  1.00D-10  COMPRESS=  1.00D-11  VARMIN  =  1.00D-07  VARMAX  =  1.00D-03
 THRDOUB =  0.00D+00  THRDIV  =  1.00D-05  THRRED  =  1.00D-07  THRPSP  =  1.00D+00  THRDC   =  1.00D-10  THRCS   =  1.00D-10
 THRNRM  =  1.00D-08  THREQ   =  0.00D+00  THRDE   =  1.00D+00  THRREF  =  1.00D-05  SPARFAC =  1.00D+00  THRDLP  =  1.00D-07
 THRDIA  =  1.00D-10  THRDLS  =  1.00D-07  THRGPS  =  0.00D+00  THRKEX  =  0.00D+00  THRDIS  =  2.00D-01  THRVAR  =  1.00D-10
 THRLOC  =  1.00D-06  THRGAP  =  1.00D-06  THRLOCT = -1.00D+00  THRGAPT = -1.00D+00  THRORB  =  1.00D-06  THRMLTP =  0.00D+00
 THRCPQCI=  1.00D-10  KEXTA   =  0.00D+00  THRCOARS=  0.00D+00  SYMTOL  =  1.00D-06  GRADTOL =  1.00D-06  THROVL  =  1.00D-08
 THRORTH =  1.00D-08  GRID    =  1.00D-06  GRIDMAX =  1.00D-03  DTMAX   =  0.00D+00  THROCCDE=  1.00D-01  THROCCDE=  1.00D-01



 THRESHOLDS:

 ZERO    =  1.00D-22  ONEINT  =  1.00D-22  TWOINT  =  1.00D-22  PREFAC  =  1.00D-14  LOCALI  =  1.00D-09  EORDER  =  1.00D-04
 ENERGY  =  1.00D-12  ETEST   =  0.00D+00  EDENS   =  0.00D+00  THRDEDEF=  1.00D-06  GRADIENT=  1.00D-02  STEP    =  1.00D-03
 ORBITAL =  1.00D-05  CIVEC   =  1.00D-05  COEFF   =  1.00D-04  PRINTCI =  5.00D-02  PUNCHCI =  9.90D+01  OPTGRAD =  1.00D-08
 OPTENERG=  1.00D-06  OPTSTEP =  1.00D-08  THRGRAD =  1.00D-10  COMPRESS=  1.00D-11  VARMIN  =  1.00D-07  VARMAX  =  1.00D-03
 THRDOUB =  0.00D+00  THRDIV  =  1.00D-05  THRRED  =  1.00D-07  THRPSP  =  1.00D+00  THRDC   =  1.00D-10  THRCS   =  1.00D-10
 THRNRM  =  1.00D-08  THREQ   =  0.00D+00  THRDE   =  1.00D+00  THRREF  =  1.00D-05  SPARFAC =  1.00D+00  THRDLP  =  1.00D-07
 THRDIA  =  1.00D-10  THRDLS  =  1.00D-07  THRGPS  =  0.00D+00  THRKEX  =  0.00D+00  THRDIS  =  2.00D-01  THRVAR  =  1.00D-10
 THRLOC  =  1.00D-06  THRGAP  =  1.00D-06  THRLOCT = -1.00D+00  THRGAPT = -1.00D+00  THRORB  =  1.00D-06  THRMLTP =  0.00D+00
 THRCPQCI=  1.00D-10  KEXTA   =  0.00D+00  THRCOARS=  0.00D+00  SYMTOL  =  1.00D-06  GRADTOL =  1.00D-06  THROVL  =  1.00D-08
 THRORTH =  1.00D-08  GRID    =  1.00D-06  GRIDMAX =  1.00D-03  DTMAX   =  0.00D+00  THROCCDE=  1.00D-01  THROCCDE=  1.00D-01



 Input parameters for SORTINT:

 COMPRESS =    0.000000
 C_FINAL  =    1.000000
 DEBUG    =   -1.000000
 C_SORT1  =    0.000000
 C_SEWARD =    0.000000
 THRESH   =    0.000000
 IO       =  molpro                                                          
 SPRI     =    0.000000
 SETTING GEOMTYP        =    XYZ
 ZUNIT=BOHR
 

 Variable memory set to  995000000 words,  buffer space   230000 words

 SETTING BASIS          =    VTZ-DK
 SETTING DKROLL         =     0.00000000D+00                                  


 Recomputing integrals since basis changed


 Using spherical harmonics

 Library entry N      S cc-pVTZ-DK           selected for orbital group  1
 Library entry N      P cc-pVTZ-DK           selected for orbital group  1
 Library entry N      D cc-pVTZ-DK           selected for orbital group  1
 Library entry N      F cc-pVTZ-DK           selected for orbital group  1
 Library entry H      S cc-pVTZ-DK           selected for orbital group  2
 Library entry H      P cc-pVTZ-DK           selected for orbital group  2
 Library entry H      D cc-pVTZ-DK           selected for orbital group  2
 Library entry O      S cc-pVTZ-DK           selected for orbital group  3
 Library entry O      P cc-pVTZ-DK           selected for orbital group  3
 Library entry O      D cc-pVTZ-DK           selected for orbital group  3
 Library entry O      F cc-pVTZ-DK           selected for orbital group  3


 PROGRAM * SEWARD (Integral evaluation for generally contracted gaussian basis sets)     Author: Roland Lindh, 1990

 Geometry written to block  1 of record 700


 Point group  Cs  



 ATOMIC COORDINATES

 NR  ATOM    CHARGE       X              Y              Z

   1  N       7.00    0.000000000   -0.163586059   -1.142902385
   2  H       1.00    0.000000000    1.665306443   -1.922338231
   3  O       8.00    0.000000000    0.040047406    1.114651025

 Bond lengths in Bohr (Angstrom)

 1-2  1.988056342  1-3  2.266718771
     ( 1.052034110)     ( 1.199495917)

 Bond angles

  2-1-3  107.92850623

 NUCLEAR CHARGE:                   16
 NUMBER OF PRIMITIVE AOS:         111
 NUMBER OF SYMMETRY AOS:          100
 NUMBER OF CONTRACTIONS:           74   (  50A'  +  24A"  )
 NUMBER OF CORE ORBITALS:           2   (   2A'  +   0A"  )
 NUMBER OF VALENCE ORBITALS:        9   (   7A'  +   2A"  )


 NUCLEAR REPULSION ENERGY   30.54886596

 Eigenvalues of metric

         1 0.242E-02 0.392E-02 0.405E-02 0.830E-02 0.130E-01 0.322E-01 0.421E-01 0.463E-01
         2 0.339E-01 0.464E-01 0.101E+00 0.111E+00 0.231E+00 0.341E+00 0.393E+00 0.447E+00


 Contracted 2-electron integrals neglected if value below      1.0D-22

        1874283. INTEGRALS WRITTEN OUT IN     458 BLOCKS ON RECORD 1290 OF FILE 1


 NUMBER OF SORTED TWO-ELECTRON INTEGRALS:    2006100.     BUFFER LENGTH:  32768
 NUMBER OF SEGMENTS:   1  SEGMENT LENGTH:    2006100      RECORD LENGTH: 524288

 Memory used in sort:       2.56 MW

 SORT1 READ     1874283. AND WROTE     1914195. INTEGRALS IN      6 RECORDS. CPU TIME:     0.05 SEC, REAL TIME:     0.07 SEC
 SORT2 READ     1914195. AND WROTE     2006100. INTEGRALS IN      1 RECORDS. CPU TIME:     0.04 SEC, REAL TIME:     0.05 SEC

 FILE SIZES:   FILE 1:    50.1 MBYTE,  FILE 4:    25.2 MBYTE,   TOTAL:     75.3 MBYTE

 OPERATOR DM      FOR CENTER  0  COORDINATES:    0.000000    0.000000    0.000000


 **********************************************************************************************************************************
 DATASETS  * FILE   NREC   LENGTH (MB)   RECORD NAMES
              1      19       35.89       500      610      700      900      950      970     1000      129      960     1100   
                                          VAR    BASINP    GEOM    SYMINP    ZMAT    AOBASIS   BASIS     P2S    ABASIS      S 
                                         1400     1410     1200     1210     1080     1600     1650     1300     1700   
                                           T        V       H0       H01     AOSYM     SMH    MOLCAS    ERIS     OPER   

 PROGRAMS   *        TOTAL       INT
 CPU TIMES  *         0.59      0.51
 REAL TIME  *         1.29 SEC
 DISK USED  *        75.59 MB      
 **********************************************************************************************************************************


 PROGRAM * RHF-SCF (CLOSED SHELL)       Authors: W. Meyer, H.-J. Werner


 NUMBER OF ELECTRONS:       8+    8-
 CONVERGENCE THRESHOLDS:    1.00E-10 (Density)    1.00E-13 (Energy)
 MAX. NUMBER OF ITERATIONS:      500
 INTERPOLATION TYPE:            DIIS
 INTERPOLATION STEPS:              2 (START)      1 (STEP)
 LEVEL SHIFTS:                  0.00 (CLOSED)  0.00 (OPEN) 



 Orbital guess generated from atomic densities. Full valence occupancy:    9   2

 Molecular orbital dump at record        2100.2

 Initial occupancy:   7   1

 ITERATION    DDIFF          GRAD             ENERGY        2-EL.EN.            DIPOLE MOMENTS         DIIS   ORB.
    1      0.000D+00      0.000D+00      -129.78249779    154.457206    0.00000    0.58429   -1.01094    0    start
    2      0.000D+00      0.134D-01      -129.80963297    155.623145    0.00000    0.60998   -0.22744    1    diag
    3      0.183D-01      0.100D-01      -129.83043764    155.724868    0.00000    0.55851   -0.58885    2    diag
    4      0.879D-02      0.155D-02      -129.83116141    155.463733    0.00000    0.56726   -0.53058    3    diag
    5      0.165D-02      0.510D-03      -129.83127351    155.548718    0.00000    0.57263   -0.53189    4    diag
    6      0.711D-03      0.151D-03      -129.83129190    155.534077    0.00000    0.57321   -0.52786    5    diag
    7      0.275D-03      0.751D-04      -129.83129715    155.536433    0.00000    0.57446   -0.52547    6    diag
    8      0.188D-03      0.235D-04      -129.83129762    155.535776    0.00000    0.57448   -0.52471    7    diag
    9      0.610D-04      0.424D-05      -129.83129764    155.535668    0.00000    0.57443   -0.52457    8    diag
   10      0.117D-04      0.952D-06      -129.83129764    155.535651    0.00000    0.57439   -0.52454    9    orth
   11      0.272D-05      0.187D-06      -129.83129764    155.535646    0.00000    0.57439   -0.52454    9    diag
   12      0.501D-06      0.385D-07      -129.83129764    155.535645    0.00000    0.57439   -0.52454    9    diag
   13      0.109D-06      0.940D-08      -129.83129764    155.535645    0.00000    0.57439   -0.52454    9    diag
   14      0.268D-07      0.173D-08      -129.83129764    155.535645    0.00000    0.57439   -0.52454    9    diag
   15      0.446D-08      0.460D-09      -129.83129764    155.535645    0.00000    0.57439   -0.52454    9    diag
   16      0.107D-08      0.121D-09      -129.83129764    155.535645    0.00000    0.57439   -0.52454    9    diag
   17      0.213D-09      0.360D-10      -129.83129764    155.535645    0.00000    0.57439   -0.52454    9    diag
   18      0.703D-10      0.118D-10      -129.83129764    155.535645    0.00000    0.57439   -0.52454    9    diag
   19      0.280D-10      0.261D-11      -129.83129764    155.535645    0.00000    0.57439   -0.52454    0    orth

 Final occupancy:   7   1

 !RHF STATE 1.1 Energy               -129.831297638301
 Nuclear energy                        30.54886596
 One-electron energy                 -238.14798589
 Two-electron energy                   77.76782229
 Virial quotient                       -0.99941564
 !RHF STATE 1.1 Dipole moment           0.00000000     0.57438540    -0.52453642
 Dipole moment /Debye                   0.00000000     1.45984646    -1.33315128

 Orbital energies:

         1.1          2.1          3.1          4.1          5.1          6.1          7.1          8.1          9.1
    -20.647039   -15.706409    -1.533033    -0.988846    -0.745818    -0.664353    -0.424456     0.144626     0.371107

         1.2          2.2          3.2
     -0.596216     0.089485     0.612016

 HOMO      7.1    -0.424456 =     -11.5500eV
 LUMO      2.2     0.089485 =       2.4350eV
 LUMO-HOMO         0.513941 =      13.9850eV


 **********************************************************************************************************************************
 DATASETS  * FILE   NREC   LENGTH (MB)   RECORD NAMES
              1      19       35.89       500      610      700      900      950      970     1000      129      960     1100   
                                          VAR    BASINP    GEOM    SYMINP    ZMAT    AOBASIS   BASIS     P2S    ABASIS      S 
                                         1400     1410     1200     1210     1080     1600     1650     1300     1700   
                                           T        V       H0       H01     AOSYM     SMH    MOLCAS    ERIS     OPER   

              2       4        2.85       700     1000      520     2100   
                                         GEOM     BASIS   MCVARS     RHF  

 PROGRAMS   *        TOTAL        HF       INT
 CPU TIMES  *         0.82      0.23      0.51
 REAL TIME  *         1.56 SEC
 DISK USED  *        75.59 MB      
 **********************************************************************************************************************************


 PROGRAM * CCSD (Closed-shell coupled cluster)     Authors: C. Hampel, H.-J. Werner, 1991, M. Deegan, P.J. Knowles, 1992


 Convergence thresholds:  THRVAR = 1.00D-08  THRDEN = 1.00D-12

 CCSD(T)     terms to be evaluated (factor= 1.000)


 Number of core orbitals:           2 (   2   0 )
 Number of closed-shell orbitals:   6 (   5   1 )
 Number of external orbitals:      66 (  43  23 )

 Molecular orbitals read from record     2100.2  Type=RHF/CANONICAL (state 1.1)

 Number of N-1 electron functions:               6
 Number of N-2 electron functions:              21
 Number of singly external CSFs:               238
 Number of doubly external CSFs:             41002
 Total number of CSFs:                       41241

 Length of J-op  integral file:               0.00 MB
 Length of K-op  integral file:               0.25 MB
 Length of 3-ext integral record:             0.00 MB

 Memory could be reduced to 1.65 Mwords without degradation in triples

 Integral transformation finished. Total CPU:   0.03 sec, npass=  1  Memory used:   0.55 MW

 Reference energy:                   -129.83129764

 MP2 singlet pair energy:              -0.27267592
 MP2 triplet pair energy:              -0.16183921
 MP2 correlation energy:               -0.43451513
 MP2 total energy:                   -130.26581277

 SCS-MP2 correlation energy:           -0.42791105   (PS=  1.200000  PT=  0.333333)
 SCS-MP2 total energy:               -130.25920869

 ITER.      SQ.NORM     CORR.ENERGY   TOTAL ENERGY   ENERGY CHANGE        DEN1      VAR(S)    VAR(P)  DIIS     TIME  TIME/IT
   1      1.11749203    -0.43997116  -130.27126880    -0.00545603     0.00995191  0.28D-02  0.29D-02  1  1     0.08     0.05
   2      1.12811802    -0.44029539  -130.27159303    -0.00032423    -0.01206219  0.83D-04  0.49D-03  2  2     0.13     0.05
   3      1.13421159    -0.44066712  -130.27196475    -0.00037173    -0.00291729  0.45D-04  0.49D-04  3  3     0.19     0.05
   4      1.13691084    -0.44069288  -130.27199052    -0.00002577    -0.00092953  0.37D-05  0.85D-05  4  4     0.23     0.05
   5      1.13785385    -0.44072070  -130.27201833    -0.00002781    -0.00019528  0.13D-05  0.16D-05  5  5     0.27     0.05
   6      1.13819900    -0.44070521  -130.27200285     0.00001548    -0.00003895  0.95D-07  0.40D-06  6  6     0.32     0.05
   7      1.13828392    -0.44070709  -130.27200473    -0.00000188    -0.00000235  0.12D-07  0.83D-07  6  1     0.37     0.05
   8      1.13831394    -0.44070716  -130.27200480    -0.00000007     0.00000191  0.43D-08  0.95D-08  6  2     0.42     0.05
   9      1.13832127    -0.44070699  -130.27200462     0.00000018    -0.00000222  0.24D-08  0.10D-08  6  3     0.47     0.05
  10      1.13832006    -0.44070747  -130.27200511    -0.00000048     0.00000061  0.46D-09  0.19D-09  6  4     0.53     0.05
  11      1.13831838    -0.44070752  -130.27200516    -0.00000006     0.00000018  0.14D-09  0.21D-10  6  5     0.58     0.05
  12      1.13831704    -0.44070769  -130.27200533    -0.00000017     0.00000041  0.15D-10  0.70D-11  6  6     0.63     0.05
  13      1.13831647    -0.44070770  -130.27200533    -0.00000001     0.00000012  0.63D-11  0.11D-11  6  1     0.67     0.05
  14      1.13831610    -0.44070771  -130.27200535    -0.00000002     0.00000007  0.88D-12  0.39D-12  6  2     0.72     0.05
  15      1.13831597    -0.44070772  -130.27200535    -0.00000000     0.00000001  0.22D-12  0.13D-12  6  3     0.76     0.05
  16      1.13831588    -0.44070772  -130.27200535    -0.00000000     0.00000001  0.23D-13  0.15D-13  6  5     0.81     0.05
  17      1.13831586    -0.44070772  -130.27200536    -0.00000000     0.00000000  0.74D-15  0.21D-14  6  4     0.86     0.05
  18      1.13831585    -0.44070772  -130.27200536     0.00000000    -0.00000000  0.48D-15  0.31D-15  6  1     0.91     0.05
  19      1.13831585    -0.44070772  -130.27200536    -0.00000000     0.00000000  0.41D-16  0.54D-16  6  6     0.96     0.05
  20      1.13831585    -0.44070772  -130.27200536    -0.00000000     0.00000000  0.87D-17  0.13D-16  6  2     1.01     0.05
  21      1.13831585    -0.44070772  -130.27200536    -0.00000000     0.00000000  0.17D-17  0.96D-18  6  5     1.06     0.05
  22      1.13831585    -0.44070772  -130.27200536     0.00000000     0.00000000  0.10D-18  0.73D-19  6  3     1.10     0.05
  23      1.13831585    -0.44070772  -130.27200536     0.00000000    -0.00000000  0.30D-19  0.16D-19  6  4     1.15     0.05
  24      1.13831585    -0.44070772  -130.27200536     0.00000000    -0.00000000  0.44D-20  0.44D-20  6  1     1.20     0.05
  25      1.13831585    -0.44070772  -130.27200536     0.00000000    -0.00000000  0.49D-21  0.76D-21  6  6     1.25     0.05

 Norm of t1 vector:      0.07360980      S-energy:     0.00000000      T1 diagnostic:  0.01502554
                                                                       D1 diagnostic:  0.04133200

 Doubles amplitudes (print threshold =  0.500E-01):

         I         J         SYM. A    SYM. B    A         B      T(IJ, AB)

         6         6         2         2         1         1     -0.14139881


 Total CPU time for triples:      0.37 sec


 RESULTS
 =======

  Reference energy                   -129.831297638301
  CCSD singlet pair energy             -0.301977550760
  CCSD triplet pair energy             -0.138730167690
  CCSD correlation energy              -0.440707718449

  Triples (T) contribution             -0.019510070096
  Total correlation energy             -0.460217788545

  CCSD total energy                  -130.272005356750
  CCSD[T] energy                     -130.292495558498
  CCSD-T energy                      -130.291127352301
 !CCSD(T) total energy               -130.291515426846

 Timing summary (sec):

 STEP                 CPU(USER)    SYS     CPU(TOT)    WALL
 Transformation          0.03      0.02      0.05      0.05
 CCSD iterations         1.22      0.09      1.31      1.32
 Triples                 0.37      0.01      0.38      0.37

 Program statistics:

 Available memory in ccsd:               994999756
 Min. memory needed in ccsd:                154850
 Max. memory used in ccsd:                  184802
 Max. memory used in cckext:                238416 (25 integral passes)



 **********************************************************************************************************************************
 DATASETS  * FILE   NREC   LENGTH (MB)   RECORD NAMES
              1      20       40.28       500      610      700      900      950      970     1000      129      960     1100   
                                          VAR    BASINP    GEOM    SYMINP    ZMAT    AOBASIS   BASIS     P2S    ABASIS      S 
                                         1400     1410     1200     1210     1080     1600     1650     1300     1700     1380   
                                           T        V       H0       H01     AOSYM     SMH    MOLCAS    ERIS     OPER     JKOP   

              2       4        2.85       700     1000      520     2100   
                                         GEOM     BASIS   MCVARS     RHF  

 PROGRAMS   *        TOTAL   CCSD(T)        HF       INT
 CPU TIMES  *         2.47      1.65      0.23      0.51
 REAL TIME  *         3.34 SEC
 DISK USED  *        75.59 MB      
 **********************************************************************************************************************************

 CCSD(T)/cc-pVTZ-DK energy=   -130.291515426846

        CCSD(T)         HF-SCF  
   -130.29151543   -129.83129764
 **********************************************************************************************************************************
 Molpro calculation terminated
 Variable memory released
