
 Primary working directories    : /tmp/r2666/235106.maple
 Secondary working directories  : /tmp/r2666/235106.maple
 Wavefunction directory         : /ddn/home4/r2666/wfu/
 Main file repository           : /tmp/r2666/235106.maple/

 SHA1      : d5ffa45e93fdbca01ffc919aa182cfdae0147319
 NAME      : 2015.1.35
 ARCHNAME  : linux/x86_64
 FC        : /opt/intel/composer_xe_2015.1.133/bin/intel64/ifort
 BLASLIB   : -Wl,-_start-group /opt/intel/mkl/lib/intel64/libmkl_intel_ilp64.a /opt/intel/mkl/lib/intel64/libmkl_intel_thread.a /opt/intel/mkl/lib/intel64/libmkl_core.a -Wl,-_end-group
 id        : olemiss

 Nodes     nprocs
 cn037        1

 Using customized tuning parameters: mindgm=1; mindgv=20; mindgc=4; mindgr=1; noblas=0; minvec=7
 default implementation of scratch files=df  

 ***,hno CCSD(T)/TZ-F12 QFF
 memory, 995, m;
 gthresh,energy=1.d-12,zero=1.d-22,oneint=1.d-22,twoint=1.d-22;
 gthresh,optgrad=1.d-8,optstep=1.d-8;
 nocompress;
 geomtyp=xyz
 bohr
 geometry={
 3
         91        91
 N        0.0000000000       -0.1647754998       -1.1377786112
 H        0.0000000000        1.6696720741       -1.9282393704
 O        0.0000000000        0.0368712156        1.1154283906
 }
 
 basis=vtz-dk
 dkroll=0
   {hf,maxit=500;accu,20;}
 {ccsd(t),nocheck,maxit=250;orbital,IGNORE_ERROR;}

 Variables initialized (889), CPU time= 0.00 sec
 Commands  initialized (702), CPU time= 0.01 sec, 572 directives.
 Default parameters read. Elapsed time= 0.05 sec

 Checking input...
 Passed
1


                                         ***  PROGRAM SYSTEM MOLPRO  ***
                                       Copyright, TTI GmbH Stuttgart, 2015
                                    Version 2015.1 linked Jul  9 2018 13:16:40


 **********************************************************************************************************************************
 LABEL *   hno CCSD(T)/TZ-F12 QFF                                                        
  64 bit serial version                                                                  DATE: 08-Feb-20          TIME: 17:57:08  
 **********************************************************************************************************************************

 SHA1:             d5ffa45e93fdbca01ffc919aa182cfdae0147319
 **********************************************************************************************************************************

 THRESHOLDS:

 ZERO    =  1.00D-22  ONEINT  =  1.00D-22  TWOINT  =  1.00D-22  PREFAC  =  1.00D-14  LOCALI  =  1.00D-09  EORDER  =  1.00D-04
 ENERGY  =  1.00D-12  ETEST   =  0.00D+00  EDENS   =  0.00D+00  THRDEDEF=  1.00D-06  GRADIENT=  1.00D-02  STEP    =  1.00D-03
 ORBITAL =  1.00D-05  CIVEC   =  1.00D-05  COEFF   =  1.00D-04  PRINTCI =  5.00D-02  PUNCHCI =  9.90D+01  OPTGRAD =  3.00D-04
 OPTENERG=  1.00D-06  OPTSTEP =  3.00D-04  THRGRAD =  1.00D-10  COMPRESS=  1.00D-11  VARMIN  =  1.00D-07  VARMAX  =  1.00D-03
 THRDOUB =  0.00D+00  THRDIV  =  1.00D-05  THRRED  =  1.00D-07  THRPSP  =  1.00D+00  THRDC   =  1.00D-10  THRCS   =  1.00D-10
 THRNRM  =  1.00D-08  THREQ   =  0.00D+00  THRDE   =  1.00D+00  THRREF  =  1.00D-05  SPARFAC =  1.00D+00  THRDLP  =  1.00D-07
 THRDIA  =  1.00D-10  THRDLS  =  1.00D-07  THRGPS  =  0.00D+00  THRKEX  =  0.00D+00  THRDIS  =  2.00D-01  THRVAR  =  1.00D-10
 THRLOC  =  1.00D-06  THRGAP  =  1.00D-06  THRLOCT = -1.00D+00  THRGAPT = -1.00D+00  THRORB  =  1.00D-06  THRMLTP =  0.00D+00
 THRCPQCI=  1.00D-10  KEXTA   =  0.00D+00  THRCOARS=  0.00D+00  SYMTOL  =  1.00D-06  GRADTOL =  1.00D-06  THROVL  =  1.00D-08
 THRORTH =  1.00D-08  GRID    =  1.00D-06  GRIDMAX =  1.00D-03  DTMAX   =  0.00D+00  THROCCDE=  1.00D-01  THROCCDE=  1.00D-01



 THRESHOLDS:

 ZERO    =  1.00D-22  ONEINT  =  1.00D-22  TWOINT  =  1.00D-22  PREFAC  =  1.00D-14  LOCALI  =  1.00D-09  EORDER  =  1.00D-04
 ENERGY  =  1.00D-12  ETEST   =  0.00D+00  EDENS   =  0.00D+00  THRDEDEF=  1.00D-06  GRADIENT=  1.00D-02  STEP    =  1.00D-03
 ORBITAL =  1.00D-05  CIVEC   =  1.00D-05  COEFF   =  1.00D-04  PRINTCI =  5.00D-02  PUNCHCI =  9.90D+01  OPTGRAD =  1.00D-08
 OPTENERG=  1.00D-06  OPTSTEP =  1.00D-08  THRGRAD =  1.00D-10  COMPRESS=  1.00D-11  VARMIN  =  1.00D-07  VARMAX  =  1.00D-03
 THRDOUB =  0.00D+00  THRDIV  =  1.00D-05  THRRED  =  1.00D-07  THRPSP  =  1.00D+00  THRDC   =  1.00D-10  THRCS   =  1.00D-10
 THRNRM  =  1.00D-08  THREQ   =  0.00D+00  THRDE   =  1.00D+00  THRREF  =  1.00D-05  SPARFAC =  1.00D+00  THRDLP  =  1.00D-07
 THRDIA  =  1.00D-10  THRDLS  =  1.00D-07  THRGPS  =  0.00D+00  THRKEX  =  0.00D+00  THRDIS  =  2.00D-01  THRVAR  =  1.00D-10
 THRLOC  =  1.00D-06  THRGAP  =  1.00D-06  THRLOCT = -1.00D+00  THRGAPT = -1.00D+00  THRORB  =  1.00D-06  THRMLTP =  0.00D+00
 THRCPQCI=  1.00D-10  KEXTA   =  0.00D+00  THRCOARS=  0.00D+00  SYMTOL  =  1.00D-06  GRADTOL =  1.00D-06  THROVL  =  1.00D-08
 THRORTH =  1.00D-08  GRID    =  1.00D-06  GRIDMAX =  1.00D-03  DTMAX   =  0.00D+00  THROCCDE=  1.00D-01  THROCCDE=  1.00D-01



 Input parameters for SORTINT:

 COMPRESS =    0.000000
 C_FINAL  =    1.000000
 DEBUG    =   -1.000000
 C_SORT1  =    0.000000
 C_SEWARD =    0.000000
 THRESH   =    0.000000
 IO       =  molpro                                                          
 SPRI     =    0.000000
 SETTING GEOMTYP        =    XYZ
 ZUNIT=BOHR
 

 Variable memory set to  995000000 words,  buffer space   230000 words

 SETTING BASIS          =    VTZ-DK
 SETTING DKROLL         =     0.00000000D+00                                  


 Recomputing integrals since basis changed


 Using spherical harmonics

 Library entry N      S cc-pVTZ-DK           selected for orbital group  1
 Library entry N      P cc-pVTZ-DK           selected for orbital group  1
 Library entry N      D cc-pVTZ-DK           selected for orbital group  1
 Library entry N      F cc-pVTZ-DK           selected for orbital group  1
 Library entry H      S cc-pVTZ-DK           selected for orbital group  2
 Library entry H      P cc-pVTZ-DK           selected for orbital group  2
 Library entry H      D cc-pVTZ-DK           selected for orbital group  2
 Library entry O      S cc-pVTZ-DK           selected for orbital group  3
 Library entry O      P cc-pVTZ-DK           selected for orbital group  3
 Library entry O      D cc-pVTZ-DK           selected for orbital group  3
 Library entry O      F cc-pVTZ-DK           selected for orbital group  3


 PROGRAM * SEWARD (Integral evaluation for generally contracted gaussian basis sets)     Author: Roland Lindh, 1990

 Geometry written to block  1 of record 700


 Point group  Cs  



 ATOMIC COORDINATES

 NR  ATOM    CHARGE       X              Y              Z

   1  N       7.00    0.000000000   -0.164775500   -1.137778611
   2  H       1.00    0.000000000    1.669672074   -1.928239370
   3  O       8.00    0.000000000    0.036871216    1.115428391

 Bond lengths in Bohr (Angstrom)

 1-2  1.997504972  1-3  2.262212013
     ( 1.057034110)     ( 1.197111043)

 Bond angles

  2-1-3  108.19717958

 NUCLEAR CHARGE:                   16
 NUMBER OF PRIMITIVE AOS:         111
 NUMBER OF SYMMETRY AOS:          100
 NUMBER OF CONTRACTIONS:           74   (  50A'  +  24A"  )
 NUMBER OF CORE ORBITALS:           2   (   2A'  +   0A"  )
 NUMBER OF VALENCE ORBITALS:        9   (   7A'  +   2A"  )


 NUCLEAR REPULSION ENERGY   30.57507500

 Eigenvalues of metric

         1 0.242E-02 0.392E-02 0.404E-02 0.839E-02 0.131E-01 0.321E-01 0.419E-01 0.463E-01
         2 0.338E-01 0.464E-01 0.100E+00 0.112E+00 0.231E+00 0.343E+00 0.393E+00 0.447E+00


 Contracted 2-electron integrals neglected if value below      1.0D-22

        1874283. INTEGRALS WRITTEN OUT IN     458 BLOCKS ON RECORD 1290 OF FILE 1


 NUMBER OF SORTED TWO-ELECTRON INTEGRALS:    2006100.     BUFFER LENGTH:  32768
 NUMBER OF SEGMENTS:   1  SEGMENT LENGTH:    2006100      RECORD LENGTH: 524288

 Memory used in sort:       2.56 MW

 SORT1 READ     1874283. AND WROTE     1914195. INTEGRALS IN      6 RECORDS. CPU TIME:     0.05 SEC, REAL TIME:     0.06 SEC
 SORT2 READ     1914195. AND WROTE     2006100. INTEGRALS IN      1 RECORDS. CPU TIME:     0.04 SEC, REAL TIME:     0.05 SEC

 FILE SIZES:   FILE 1:    50.1 MBYTE,  FILE 4:    25.2 MBYTE,   TOTAL:     75.3 MBYTE

 OPERATOR DM      FOR CENTER  0  COORDINATES:    0.000000    0.000000    0.000000


 **********************************************************************************************************************************
 DATASETS  * FILE   NREC   LENGTH (MB)   RECORD NAMES
              1      19       35.89       500      610      700      900      950      970     1000      129      960     1100   
                                          VAR    BASINP    GEOM    SYMINP    ZMAT    AOBASIS   BASIS     P2S    ABASIS      S 
                                         1400     1410     1200     1210     1080     1600     1650     1300     1700   
                                           T        V       H0       H01     AOSYM     SMH    MOLCAS    ERIS     OPER   

 PROGRAMS   *        TOTAL       INT
 CPU TIMES  *         0.59      0.50
 REAL TIME  *         1.16 SEC
 DISK USED  *        75.59 MB      
 **********************************************************************************************************************************


 PROGRAM * RHF-SCF (CLOSED SHELL)       Authors: W. Meyer, H.-J. Werner


 NUMBER OF ELECTRONS:       8+    8-
 CONVERGENCE THRESHOLDS:    1.00E-10 (Density)    1.00E-13 (Energy)
 MAX. NUMBER OF ITERATIONS:      500
 INTERPOLATION TYPE:            DIIS
 INTERPOLATION STEPS:              2 (START)      1 (STEP)
 LEVEL SHIFTS:                  0.00 (CLOSED)  0.00 (OPEN) 



 Orbital guess generated from atomic densities. Full valence occupancy:    9   2

 Molecular orbital dump at record        2100.2

 Initial occupancy:   7   1

 ITERATION    DDIFF          GRAD             ENERGY        2-EL.EN.            DIPOLE MOMENTS         DIIS   ORB.
    1      0.000D+00      0.000D+00      -129.78273052    154.498837    0.00000    0.58214   -1.00447    0    start
    2      0.000D+00      0.134D-01      -129.80991110    155.675671    0.00000    0.60746   -0.22745    1    diag
    3      0.182D-01      0.100D-01      -129.83053291    155.770964    0.00000    0.55633   -0.58578    2    diag
    4      0.875D-02      0.154D-02      -129.83125380    155.510713    0.00000    0.56494   -0.52783    3    diag
    5      0.165D-02      0.509D-03      -129.83136588    155.595952    0.00000    0.57039   -0.52923    4    diag
    6      0.711D-03      0.151D-03      -129.83138430    155.581288    0.00000    0.57099   -0.52523    5    diag
    7      0.276D-03      0.748D-04      -129.83138951    155.583692    0.00000    0.57226   -0.52287    6    diag
    8      0.188D-03      0.232D-04      -129.83138996    155.583044    0.00000    0.57228   -0.52213    7    diag
    9      0.601D-04      0.421D-05      -129.83138998    155.582936    0.00000    0.57223   -0.52199    8    diag
   10      0.116D-04      0.952D-06      -129.83138998    155.582919    0.00000    0.57220   -0.52196    9    orth
   11      0.271D-05      0.188D-06      -129.83138998    155.582914    0.00000    0.57219   -0.52196    9    diag
   12      0.504D-06      0.385D-07      -129.83138998    155.582913    0.00000    0.57219   -0.52196    9    diag
   13      0.110D-06      0.940D-08      -129.83138998    155.582913    0.00000    0.57219   -0.52196    9    diag
   14      0.270D-07      0.175D-08      -129.83138998    155.582912    0.00000    0.57219   -0.52196    9    diag
   15      0.459D-08      0.473D-09      -129.83138998    155.582913    0.00000    0.57219   -0.52196    9    diag
   16      0.111D-08      0.128D-09      -129.83138998    155.582912    0.00000    0.57219   -0.52196    9    diag
   17      0.229D-09      0.386D-10      -129.83138998    155.582913    0.00000    0.57219   -0.52196    9    diag
   18      0.776D-10      0.124D-10      -129.83138998    155.582912    0.00000    0.57219   -0.52196    0    orth

 Final occupancy:   7   1

 !RHF STATE 1.1 Energy               -129.831389982246
 Nuclear energy                        30.57507500
 One-electron energy                 -238.19792123
 Two-electron energy                   77.79145625
 Virial quotient                       -0.99940816
 !RHF STATE 1.1 Dipole moment           0.00000000     0.57218847    -0.52195864
 Dipole moment /Debye                   0.00000000     1.45426276    -1.32659965

 Orbital energies:

         1.1          2.1          3.1          4.1          5.1          6.1          7.1          8.1          9.1
    -20.647002   -15.706639    -1.534848    -0.987212    -0.746012    -0.665119    -0.423246     0.144396     0.371424

         1.2          2.2          3.2
     -0.597425     0.090340     0.611739

 HOMO      7.1    -0.423246 =     -11.5171eV
 LUMO      2.2     0.090340 =       2.4583eV
 LUMO-HOMO         0.513587 =      13.9754eV


 **********************************************************************************************************************************
 DATASETS  * FILE   NREC   LENGTH (MB)   RECORD NAMES
              1      19       35.89       500      610      700      900      950      970     1000      129      960     1100   
                                          VAR    BASINP    GEOM    SYMINP    ZMAT    AOBASIS   BASIS     P2S    ABASIS      S 
                                         1400     1410     1200     1210     1080     1600     1650     1300     1700   
                                           T        V       H0       H01     AOSYM     SMH    MOLCAS    ERIS     OPER   

              2       4        2.85       700     1000      520     2100   
                                         GEOM     BASIS   MCVARS     RHF  

 PROGRAMS   *        TOTAL        HF       INT
 CPU TIMES  *         0.77      0.18      0.50
 REAL TIME  *         1.41 SEC
 DISK USED  *        75.59 MB      
 **********************************************************************************************************************************


 PROGRAM * CCSD (Closed-shell coupled cluster)     Authors: C. Hampel, H.-J. Werner, 1991, M. Deegan, P.J. Knowles, 1992


 Convergence thresholds:  THRVAR = 1.00D-08  THRDEN = 1.00D-12

 CCSD(T)     terms to be evaluated (factor= 1.000)


 Number of core orbitals:           2 (   2   0 )
 Number of closed-shell orbitals:   6 (   5   1 )
 Number of external orbitals:      66 (  43  23 )

 Molecular orbitals read from record     2100.2  Type=RHF/CANONICAL (state 1.1)

 Number of N-1 electron functions:               6
 Number of N-2 electron functions:              21
 Number of singly external CSFs:               238
 Number of doubly external CSFs:             41002
 Total number of CSFs:                       41241

 Length of J-op  integral file:               0.00 MB
 Length of K-op  integral file:               0.25 MB
 Length of 3-ext integral record:             0.00 MB

 Memory could be reduced to 1.65 Mwords without degradation in triples

 Integral transformation finished. Total CPU:   0.03 sec, npass=  1  Memory used:   0.55 MW

 Reference energy:                   -129.83138998

 MP2 singlet pair energy:              -0.27254594
 MP2 triplet pair energy:              -0.16174628
 MP2 correlation energy:               -0.43429222
 MP2 total energy:                   -130.26568220

 SCS-MP2 correlation energy:           -0.42769726   (PS=  1.200000  PT=  0.333333)
 SCS-MP2 total energy:               -130.25908724

 ITER.      SQ.NORM     CORR.ENERGY   TOTAL ENERGY   ENERGY CHANGE        DEN1      VAR(S)    VAR(P)  DIIS     TIME  TIME/IT
   1      1.11741561    -0.43982514  -130.27121512    -0.00553291     0.00982991  0.28D-02  0.29D-02  1  1     0.08     0.05
   2      1.12802367    -0.44016320  -130.27155318    -0.00033807    -0.01203705  0.83D-04  0.49D-03  2  2     0.12     0.05
   3      1.13410756    -0.44053580  -130.27192578    -0.00037259    -0.00291373  0.45D-04  0.48D-04  3  3     0.17     0.05
   4      1.13679482    -0.44056056  -130.27195054    -0.00002476    -0.00092655  0.38D-05  0.85D-05  4  4     0.22     0.05
   5      1.13773802    -0.44058842  -130.27197840    -0.00002786    -0.00019529  0.14D-05  0.16D-05  5  5     0.26     0.05
   6      1.13808511    -0.44057307  -130.27196305     0.00001535    -0.00003899  0.10D-06  0.40D-06  6  6     0.31     0.05
   7      1.13817180    -0.44057480  -130.27196478    -0.00000174    -0.00000256  0.12D-07  0.82D-07  6  1     0.36     0.05
   8      1.13820225    -0.44057489  -130.27196488    -0.00000009     0.00000182  0.42D-08  0.95D-08  6  2     0.41     0.05
   9      1.13820973    -0.44057469  -130.27196467     0.00000020    -0.00000219  0.24D-08  0.10D-08  6  3     0.45     0.05
  10      1.13820854    -0.44057518  -130.27196516    -0.00000049     0.00000058  0.47D-09  0.19D-09  6  4     0.50     0.05
  11      1.13820683    -0.44057524  -130.27196522    -0.00000006     0.00000020  0.14D-09  0.22D-10  6  5     0.55     0.05
  12      1.13820547    -0.44057540  -130.27196539    -0.00000017     0.00000042  0.15D-10  0.73D-11  6  6     0.60     0.05
  13      1.13820487    -0.44057541  -130.27196539    -0.00000001     0.00000012  0.66D-11  0.12D-11  6  1     0.65     0.05
  14      1.13820450    -0.44057543  -130.27196541    -0.00000002     0.00000007  0.91D-12  0.40D-12  6  2     0.69     0.05
  15      1.13820437    -0.44057543  -130.27196541    -0.00000000     0.00000001  0.23D-12  0.13D-12  6  3     0.74     0.05
  16      1.13820428    -0.44057543  -130.27196541    -0.00000000     0.00000001  0.25D-13  0.15D-13  6  5     0.78     0.05
  17      1.13820425    -0.44057543  -130.27196542    -0.00000000     0.00000000  0.76D-15  0.22D-14  6  4     0.83     0.05
  18      1.13820425    -0.44057543  -130.27196542     0.00000000    -0.00000000  0.49D-15  0.32D-15  6  1     0.88     0.05
  19      1.13820425    -0.44057543  -130.27196542    -0.00000000     0.00000000  0.41D-16  0.55D-16  6  6     0.92     0.05
  20      1.13820424    -0.44057543  -130.27196542    -0.00000000     0.00000000  0.84D-17  0.13D-16  6  2     0.97     0.05
  21      1.13820424    -0.44057543  -130.27196542    -0.00000000     0.00000000  0.18D-17  0.99D-18  6  5     1.02     0.05
  22      1.13820424    -0.44057543  -130.27196542     0.00000000     0.00000000  0.11D-18  0.73D-19  6  3     1.06     0.05
  23      1.13820424    -0.44057543  -130.27196542     0.00000000    -0.00000000  0.30D-19  0.16D-19  6  4     1.10     0.05
  24      1.13820424    -0.44057543  -130.27196542     0.00000000    -0.00000000  0.44D-20  0.44D-20  6  1     1.15     0.05
  25      1.13820424    -0.44057543  -130.27196542     0.00000000    -0.00000000  0.49D-21  0.77D-21  6  6     1.20     0.05

 Norm of t1 vector:      0.07362061      S-energy:     0.00000000      T1 diagnostic:  0.01502774
                                                                       D1 diagnostic:  0.04106805

 Doubles amplitudes (print threshold =  0.500E-01):

         I         J         SYM. A    SYM. B    A         B      T(IJ, AB)

         6         6         2         2         1         1     -0.14068581


 Total CPU time for triples:      0.34 sec


 RESULTS
 =======

  Reference energy                   -129.831389982246
  CCSD singlet pair energy             -0.301860145750
  CCSD triplet pair energy             -0.138715287496
  CCSD correlation energy              -0.440575433245

  Triples (T) contribution             -0.019475226341
  Total correlation energy             -0.460050659586

  CCSD total energy                  -130.271965415491
  CCSD[T] energy                     -130.292418302347
  CCSD-T energy                      -130.291052512706
 !CCSD(T) total energy               -130.291440641832

 Timing summary (sec):

 STEP                 CPU(USER)    SYS     CPU(TOT)    WALL
 Transformation          0.03      0.02      0.05      0.06
 CCSD iterations         1.18      0.12      1.30      1.28
 Triples                 0.34      0.00      0.34      0.36

 Program statistics:

 Available memory in ccsd:               994999756
 Min. memory needed in ccsd:                154850
 Max. memory used in ccsd:                  184802
 Max. memory used in cckext:                238416 (25 integral passes)



 **********************************************************************************************************************************
 DATASETS  * FILE   NREC   LENGTH (MB)   RECORD NAMES
              1      20       40.28       500      610      700      900      950      970     1000      129      960     1100   
                                          VAR    BASINP    GEOM    SYMINP    ZMAT    AOBASIS   BASIS     P2S    ABASIS      S 
                                         1400     1410     1200     1210     1080     1600     1650     1300     1700     1380   
                                           T        V       H0       H01     AOSYM     SMH    MOLCAS    ERIS     OPER     JKOP   

              2       4        2.85       700     1000      520     2100   
                                         GEOM     BASIS   MCVARS     RHF  

 PROGRAMS   *        TOTAL   CCSD(T)        HF       INT
 CPU TIMES  *         2.35      1.58      0.18      0.50
 REAL TIME  *         3.29 SEC
 DISK USED  *        75.59 MB      
 **********************************************************************************************************************************

 CCSD(T)/cc-pVTZ-DK energy=   -130.291440641832

        CCSD(T)         HF-SCF  
   -130.29144064   -129.83138998
 **********************************************************************************************************************************
 Molpro calculation terminated
 Variable memory released
