
 Primary working directories    : /tmp/r2666/235126.maple
 Secondary working directories  : /tmp/r2666/235126.maple
 Wavefunction directory         : /ddn/home4/r2666/wfu/
 Main file repository           : /tmp/r2666/235126.maple/

 SHA1      : d5ffa45e93fdbca01ffc919aa182cfdae0147319
 NAME      : 2015.1.35
 ARCHNAME  : linux/x86_64
 FC        : /opt/intel/composer_xe_2015.1.133/bin/intel64/ifort
 BLASLIB   : -Wl,-_start-group /opt/intel/mkl/lib/intel64/libmkl_intel_ilp64.a /opt/intel/mkl/lib/intel64/libmkl_intel_thread.a /opt/intel/mkl/lib/intel64/libmkl_core.a -Wl,-_end-group
 id        : olemiss

 Nodes     nprocs
 cn032        1

 Using customized tuning parameters: mindgm=1; mindgv=20; mindgc=4; mindgr=1; noblas=0; minvec=7
 default implementation of scratch files=df  

 ***,hno CCSD(T)/TZ-F12 QFF
 memory, 995, m;
 gthresh,energy=1.d-12,zero=1.d-22,oneint=1.d-22,twoint=1.d-22;
 gthresh,optgrad=1.d-8,optstep=1.d-8;
 nocompress;
 geomtyp=xyz
 bohr
 geometry={
 3
        111       111
 N        0.0000000000       -0.1742268671       -1.1393007636
 H        0.0000000000        1.6735748911       -1.9225576965
 O        0.0000000000        0.0424197660        1.1112688691
 }
 
 basis=vtz-dk
 dkroll=0
   {hf,maxit=500;accu,20;}
 {ccsd(t),nocheck,maxit=250;orbital,IGNORE_ERROR;}

 Variables initialized (889), CPU time= 0.00 sec
 Commands  initialized (702), CPU time= 0.01 sec, 572 directives.
 Default parameters read. Elapsed time= 0.05 sec

 Checking input...
 Passed
1


                                         ***  PROGRAM SYSTEM MOLPRO  ***
                                       Copyright, TTI GmbH Stuttgart, 2015
                                    Version 2015.1 linked Jul  9 2018 13:16:40


 **********************************************************************************************************************************
 LABEL *   hno CCSD(T)/TZ-F12 QFF                                                        
  64 bit serial version                                                                  DATE: 08-Feb-20          TIME: 17:57:11  
 **********************************************************************************************************************************

 SHA1:             d5ffa45e93fdbca01ffc919aa182cfdae0147319
 **********************************************************************************************************************************

 THRESHOLDS:

 ZERO    =  1.00D-22  ONEINT  =  1.00D-22  TWOINT  =  1.00D-22  PREFAC  =  1.00D-14  LOCALI  =  1.00D-09  EORDER  =  1.00D-04
 ENERGY  =  1.00D-12  ETEST   =  0.00D+00  EDENS   =  0.00D+00  THRDEDEF=  1.00D-06  GRADIENT=  1.00D-02  STEP    =  1.00D-03
 ORBITAL =  1.00D-05  CIVEC   =  1.00D-05  COEFF   =  1.00D-04  PRINTCI =  5.00D-02  PUNCHCI =  9.90D+01  OPTGRAD =  3.00D-04
 OPTENERG=  1.00D-06  OPTSTEP =  3.00D-04  THRGRAD =  1.00D-10  COMPRESS=  1.00D-11  VARMIN  =  1.00D-07  VARMAX  =  1.00D-03
 THRDOUB =  0.00D+00  THRDIV  =  1.00D-05  THRRED  =  1.00D-07  THRPSP  =  1.00D+00  THRDC   =  1.00D-10  THRCS   =  1.00D-10
 THRNRM  =  1.00D-08  THREQ   =  0.00D+00  THRDE   =  1.00D+00  THRREF  =  1.00D-05  SPARFAC =  1.00D+00  THRDLP  =  1.00D-07
 THRDIA  =  1.00D-10  THRDLS  =  1.00D-07  THRGPS  =  0.00D+00  THRKEX  =  0.00D+00  THRDIS  =  2.00D-01  THRVAR  =  1.00D-10
 THRLOC  =  1.00D-06  THRGAP  =  1.00D-06  THRLOCT = -1.00D+00  THRGAPT = -1.00D+00  THRORB  =  1.00D-06  THRMLTP =  0.00D+00
 THRCPQCI=  1.00D-10  KEXTA   =  0.00D+00  THRCOARS=  0.00D+00  SYMTOL  =  1.00D-06  GRADTOL =  1.00D-06  THROVL  =  1.00D-08
 THRORTH =  1.00D-08  GRID    =  1.00D-06  GRIDMAX =  1.00D-03  DTMAX   =  0.00D+00  THROCCDE=  1.00D-01  THROCCDE=  1.00D-01



 THRESHOLDS:

 ZERO    =  1.00D-22  ONEINT  =  1.00D-22  TWOINT  =  1.00D-22  PREFAC  =  1.00D-14  LOCALI  =  1.00D-09  EORDER  =  1.00D-04
 ENERGY  =  1.00D-12  ETEST   =  0.00D+00  EDENS   =  0.00D+00  THRDEDEF=  1.00D-06  GRADIENT=  1.00D-02  STEP    =  1.00D-03
 ORBITAL =  1.00D-05  CIVEC   =  1.00D-05  COEFF   =  1.00D-04  PRINTCI =  5.00D-02  PUNCHCI =  9.90D+01  OPTGRAD =  1.00D-08
 OPTENERG=  1.00D-06  OPTSTEP =  1.00D-08  THRGRAD =  1.00D-10  COMPRESS=  1.00D-11  VARMIN  =  1.00D-07  VARMAX  =  1.00D-03
 THRDOUB =  0.00D+00  THRDIV  =  1.00D-05  THRRED  =  1.00D-07  THRPSP  =  1.00D+00  THRDC   =  1.00D-10  THRCS   =  1.00D-10
 THRNRM  =  1.00D-08  THREQ   =  0.00D+00  THRDE   =  1.00D+00  THRREF  =  1.00D-05  SPARFAC =  1.00D+00  THRDLP  =  1.00D-07
 THRDIA  =  1.00D-10  THRDLS  =  1.00D-07  THRGPS  =  0.00D+00  THRKEX  =  0.00D+00  THRDIS  =  2.00D-01  THRVAR  =  1.00D-10
 THRLOC  =  1.00D-06  THRGAP  =  1.00D-06  THRLOCT = -1.00D+00  THRGAPT = -1.00D+00  THRORB  =  1.00D-06  THRMLTP =  0.00D+00
 THRCPQCI=  1.00D-10  KEXTA   =  0.00D+00  THRCOARS=  0.00D+00  SYMTOL  =  1.00D-06  GRADTOL =  1.00D-06  THROVL  =  1.00D-08
 THRORTH =  1.00D-08  GRID    =  1.00D-06  GRIDMAX =  1.00D-03  DTMAX   =  0.00D+00  THROCCDE=  1.00D-01  THROCCDE=  1.00D-01



 Input parameters for SORTINT:

 COMPRESS =    0.000000
 C_FINAL  =    1.000000
 DEBUG    =   -1.000000
 C_SORT1  =    0.000000
 C_SEWARD =    0.000000
 THRESH   =    0.000000
 IO       =  molpro                                                          
 SPRI     =    0.000000
 SETTING GEOMTYP        =    XYZ
 ZUNIT=BOHR
 

 Variable memory set to  995000000 words,  buffer space   230000 words

 SETTING BASIS          =    VTZ-DK
 SETTING DKROLL         =     0.00000000D+00                                  


 Recomputing integrals since basis changed


 Using spherical harmonics

 Library entry N      S cc-pVTZ-DK           selected for orbital group  1
 Library entry N      P cc-pVTZ-DK           selected for orbital group  1
 Library entry N      D cc-pVTZ-DK           selected for orbital group  1
 Library entry N      F cc-pVTZ-DK           selected for orbital group  1
 Library entry H      S cc-pVTZ-DK           selected for orbital group  2
 Library entry H      P cc-pVTZ-DK           selected for orbital group  2
 Library entry H      D cc-pVTZ-DK           selected for orbital group  2
 Library entry O      S cc-pVTZ-DK           selected for orbital group  3
 Library entry O      P cc-pVTZ-DK           selected for orbital group  3
 Library entry O      D cc-pVTZ-DK           selected for orbital group  3
 Library entry O      F cc-pVTZ-DK           selected for orbital group  3


 PROGRAM * SEWARD (Integral evaluation for generally contracted gaussian basis sets)     Author: Roland Lindh, 1990

 Geometry written to block  1 of record 700


 Point group  Cs  



 ATOMIC COORDINATES

 NR  ATOM    CHARGE       X              Y              Z

   1  N       7.00    0.000000000   -0.174226867   -1.139300764
   2  H       1.00    0.000000000    1.673574891   -1.922557696
   3  O       8.00    0.000000000    0.042419766    1.111268869

 Bond lengths in Bohr (Angstrom)

 1-2  2.006953602  1-3  2.260973117
     ( 1.062034110)     ( 1.196455448)

 Bond angles

  2-1-3  107.47287585

 NUCLEAR CHARGE:                   16
 NUMBER OF PRIMITIVE AOS:         111
 NUMBER OF SYMMETRY AOS:          100
 NUMBER OF CONTRACTIONS:           74   (  50A'  +  24A"  )
 NUMBER OF CORE ORBITALS:           2   (   2A'  +   0A"  )
 NUMBER OF VALENCE ORBITALS:        9   (   7A'  +   2A"  )


 NUCLEAR REPULSION ENERGY   30.57849425

 Eigenvalues of metric

         1 0.244E-02 0.392E-02 0.406E-02 0.846E-02 0.132E-01 0.322E-01 0.419E-01 0.464E-01
         2 0.338E-01 0.465E-01 0.100E+00 0.114E+00 0.232E+00 0.344E+00 0.394E+00 0.447E+00


 Contracted 2-electron integrals neglected if value below      1.0D-22

        1874283. INTEGRALS WRITTEN OUT IN     458 BLOCKS ON RECORD 1290 OF FILE 1


 NUMBER OF SORTED TWO-ELECTRON INTEGRALS:    2006100.     BUFFER LENGTH:  32768
 NUMBER OF SEGMENTS:   1  SEGMENT LENGTH:    2006100      RECORD LENGTH: 524288

 Memory used in sort:       2.56 MW

 SORT1 READ     1874283. AND WROTE     1914195. INTEGRALS IN      6 RECORDS. CPU TIME:     0.06 SEC, REAL TIME:     0.08 SEC
 SORT2 READ     1914195. AND WROTE     2006100. INTEGRALS IN      1 RECORDS. CPU TIME:     0.06 SEC, REAL TIME:     0.08 SEC

 FILE SIZES:   FILE 1:    50.1 MBYTE,  FILE 4:    25.2 MBYTE,   TOTAL:     75.3 MBYTE

 OPERATOR DM      FOR CENTER  0  COORDINATES:    0.000000    0.000000    0.000000


 **********************************************************************************************************************************
 DATASETS  * FILE   NREC   LENGTH (MB)   RECORD NAMES
              1      19       35.89       500      610      700      900      950      970     1000      129      960     1100   
                                          VAR    BASINP    GEOM    SYMINP    ZMAT    AOBASIS   BASIS     P2S    ABASIS      S 
                                         1400     1410     1200     1210     1080     1600     1650     1300     1700   
                                           T        V       H0       H01     AOSYM     SMH    MOLCAS    ERIS     OPER   

 PROGRAMS   *        TOTAL       INT
 CPU TIMES  *         0.73      0.63
 REAL TIME  *         1.40 SEC
 DISK USED  *        75.59 MB      
 **********************************************************************************************************************************


 PROGRAM * RHF-SCF (CLOSED SHELL)       Authors: W. Meyer, H.-J. Werner


 NUMBER OF ELECTRONS:       8+    8-
 CONVERGENCE THRESHOLDS:    1.00E-10 (Density)    1.00E-13 (Energy)
 MAX. NUMBER OF ITERATIONS:      500
 INTERPOLATION TYPE:            DIIS
 INTERPOLATION STEPS:              2 (START)      1 (STEP)
 LEVEL SHIFTS:                  0.00 (CLOSED)  0.00 (OPEN) 



 Orbital guess generated from atomic densities. Full valence occupancy:    9   2

 Molecular orbital dump at record        2100.2

 Initial occupancy:   7   1

 ITERATION    DDIFF          GRAD             ENERGY        2-EL.EN.            DIPOLE MOMENTS         DIIS   ORB.
    1      0.000D+00      0.000D+00      -129.78234791    154.503021    0.00000    0.57212   -1.00110    0    start
    2      0.000D+00      0.134D-01      -129.80956090    155.684299    0.00000    0.60659   -0.22254    1    diag
    3      0.183D-01      0.100D-01      -129.83035255    155.777070    0.00000    0.55121   -0.58122    2    diag
    4      0.878D-02      0.154D-02      -129.83107168    155.516928    0.00000    0.56014   -0.52356    3    diag
    5      0.164D-02      0.510D-03      -129.83118467    155.602275    0.00000    0.56560   -0.52493    4    diag
    6      0.712D-03      0.152D-03      -129.83120331    155.587517    0.00000    0.56618   -0.52091    5    diag
    7      0.277D-03      0.752D-04      -129.83120857    155.589946    0.00000    0.56746   -0.51855    6    diag
    8      0.189D-03      0.233D-04      -129.83120903    155.589290    0.00000    0.56748   -0.51781    7    diag
    9      0.602D-04      0.422D-05      -129.83120905    155.589183    0.00000    0.56743   -0.51767    8    diag
   10      0.115D-04      0.949D-06      -129.83120905    155.589165    0.00000    0.56740   -0.51765    9    orth
   11      0.269D-05      0.188D-06      -129.83120905    155.589160    0.00000    0.56739   -0.51764    9    diag
   12      0.504D-06      0.389D-07      -129.83120905    155.589159    0.00000    0.56739   -0.51764    9    diag
   13      0.112D-06      0.953D-08      -129.83120905    155.589159    0.00000    0.56739   -0.51764    9    diag
   14      0.276D-07      0.178D-08      -129.83120905    155.589158    0.00000    0.56739   -0.51764    9    diag
   15      0.472D-08      0.489D-09      -129.83120905    155.589159    0.00000    0.56739   -0.51764    9    diag
   16      0.114D-08      0.135D-09      -129.83120905    155.589158    0.00000    0.56739   -0.51764    9    diag
   17      0.242D-09      0.412D-10      -129.83120905    155.589158    0.00000    0.56739   -0.51764    9    diag
   18      0.833D-10      0.129D-10      -129.83120905    155.589158    0.00000    0.56739   -0.51764    9    diag
   19      0.297D-10      0.281D-11      -129.83120905    155.589158    0.00000    0.56739   -0.51764    9    fixocc
   20      0.682D-11      0.441D-12      -129.83120905    155.589158    0.00000    0.56739   -0.51764    0    orth

 Final occupancy:   7   1

 !RHF STATE 1.1 Energy               -129.831209047385
 Nuclear energy                        30.57849425
 One-electron energy                 -238.20428255
 Two-electron energy                   77.79457925
 Virial quotient                       -0.99942242
 !RHF STATE 1.1 Dipole moment           0.00000000     0.56738974    -0.51764039
 Dipole moment /Debye                   0.00000000     1.44206642    -1.31562447

 Orbital energies:

         1.1          2.1          3.1          4.1          5.1          6.1          7.1          8.1          9.1
    -20.646894   -15.707381    -1.535751    -0.985413    -0.745764    -0.665183    -0.423228     0.144256     0.371466

         1.2          2.2          3.2
     -0.597946     0.090639     0.611575

 HOMO      7.1    -0.423228 =     -11.5166eV
 LUMO      2.2     0.090639 =       2.4664eV
 LUMO-HOMO         0.513868 =      13.9830eV


 **********************************************************************************************************************************
 DATASETS  * FILE   NREC   LENGTH (MB)   RECORD NAMES
              1      19       35.89       500      610      700      900      950      970     1000      129      960     1100   
                                          VAR    BASINP    GEOM    SYMINP    ZMAT    AOBASIS   BASIS     P2S    ABASIS      S 
                                         1400     1410     1200     1210     1080     1600     1650     1300     1700   
                                           T        V       H0       H01     AOSYM     SMH    MOLCAS    ERIS     OPER   

              2       4        2.85       700     1000      520     2100   
                                         GEOM     BASIS   MCVARS     RHF  

 PROGRAMS   *        TOTAL        HF       INT
 CPU TIMES  *         1.03      0.30      0.63
 REAL TIME  *         1.80 SEC
 DISK USED  *        75.59 MB      
 **********************************************************************************************************************************


 PROGRAM * CCSD (Closed-shell coupled cluster)     Authors: C. Hampel, H.-J. Werner, 1991, M. Deegan, P.J. Knowles, 1992


 Convergence thresholds:  THRVAR = 1.00D-08  THRDEN = 1.00D-12

 CCSD(T)     terms to be evaluated (factor= 1.000)


 Number of core orbitals:           2 (   2   0 )
 Number of closed-shell orbitals:   6 (   5   1 )
 Number of external orbitals:      66 (  43  23 )

 Molecular orbitals read from record     2100.2  Type=RHF/CANONICAL (state 1.1)

 Number of N-1 electron functions:               6
 Number of N-2 electron functions:              21
 Number of singly external CSFs:               238
 Number of doubly external CSFs:             41002
 Total number of CSFs:                       41241

 Length of J-op  integral file:               0.00 MB
 Length of K-op  integral file:               0.25 MB
 Length of 3-ext integral record:             0.00 MB

 Memory could be reduced to 1.65 Mwords without degradation in triples

 Integral transformation finished. Total CPU:   0.04 sec, npass=  1  Memory used:   0.55 MW

 Reference energy:                   -129.83120905

 MP2 singlet pair energy:              -0.27259952
 MP2 triplet pair energy:              -0.16176954
 MP2 correlation energy:               -0.43436907
 MP2 total energy:                   -130.26557812

 SCS-MP2 correlation energy:           -0.42777603   (PS=  1.200000  PT=  0.333333)
 SCS-MP2 total energy:               -130.25898508

 ITER.      SQ.NORM     CORR.ENERGY   TOTAL ENERGY   ENERGY CHANGE        DEN1      VAR(S)    VAR(P)  DIIS     TIME  TIME/IT
   1      1.11750248    -0.43991354  -130.27112259    -0.00554447     0.00982140  0.28D-02  0.29D-02  1  1     0.11     0.06
   2      1.12811878    -0.44025732  -130.27146637    -0.00034378    -0.01204198  0.83D-04  0.49D-03  2  2     0.16     0.07
   3      1.13420923    -0.44063083  -130.27183988    -0.00037352    -0.00291957  0.45D-04  0.48D-04  3  3     0.21     0.07
   4      1.13689155    -0.44065549  -130.27186454    -0.00002465    -0.00092616  0.38D-05  0.84D-05  4  4     0.28     0.07
   5      1.13783031    -0.44068342  -130.27189247    -0.00002793    -0.00019455  0.14D-05  0.16D-05  5  5     0.34     0.07
   6      1.13817526    -0.44066810  -130.27187715     0.00001532    -0.00003882  0.10D-06  0.39D-06  6  6     0.39     0.07
   7      1.13826134    -0.44066975  -130.27187879    -0.00000164    -0.00000255  0.13D-07  0.80D-07  6  1     0.44     0.07
   8      1.13829182    -0.44066979  -130.27187884    -0.00000005     0.00000175  0.39D-08  0.92D-08  6  2     0.51     0.07
   9      1.13829925    -0.44066959  -130.27187864     0.00000020    -0.00000216  0.23D-08  0.10D-08  6  3     0.57     0.07
  10      1.13829812    -0.44067007  -130.27187912    -0.00000048     0.00000057  0.45D-09  0.18D-09  6  4     0.63     0.07
  11      1.13829643    -0.44067013  -130.27187917    -0.00000006     0.00000020  0.14D-09  0.21D-10  6  5     0.68     0.07
  12      1.13829509    -0.44067029  -130.27187934    -0.00000017     0.00000041  0.15D-10  0.71D-11  6  6     0.74     0.07
  13      1.13829450    -0.44067030  -130.27187934    -0.00000001     0.00000012  0.65D-11  0.11D-11  6  1     0.80     0.07
  14      1.13829413    -0.44067032  -130.27187936    -0.00000002     0.00000007  0.91D-12  0.39D-12  6  2     0.86     0.07
  15      1.13829400    -0.44067032  -130.27187936    -0.00000000     0.00000001  0.23D-12  0.13D-12  6  3     0.92     0.07
  16      1.13829390    -0.44067032  -130.27187937    -0.00000000     0.00000002  0.63D-14  0.33D-13  6  1     0.97     0.07
  17      1.13829389    -0.44067032  -130.27187937     0.00000000    -0.00000000  0.31D-14  0.26D-14  6  4     1.03     0.07
  18      1.13829388    -0.44067032  -130.27187937    -0.00000000     0.00000000  0.67D-15  0.46D-15  6  5     1.08     0.07
  19      1.13829388    -0.44067032  -130.27187937     0.00000000    -0.00000000  0.11D-15  0.76D-16  6  6     1.14     0.07
  20      1.13829388    -0.44067032  -130.27187937    -0.00000000     0.00000000  0.14D-16  0.17D-16  6  4     1.19     0.07
  21      1.13829388    -0.44067032  -130.27187937    -0.00000000     0.00000000  0.62D-18  0.15D-17  6  2     1.24     0.07
  22      1.13829388    -0.44067032  -130.27187937    -0.00000000     0.00000000  0.58D-19  0.74D-19  6  3     1.28     0.07
  23      1.13829388    -0.44067032  -130.27187937    -0.00000000     0.00000000  0.93D-20  0.11D-19  6  1     1.33     0.07
  24      1.13829388    -0.44067032  -130.27187937     0.00000000     0.00000000  0.35D-20  0.11D-20  6  4     1.38     0.07
  25      1.13829388    -0.44067032  -130.27187937     0.00000000    -0.00000000  0.37D-21  0.36D-21  6  5     1.43     0.07

 Norm of t1 vector:      0.07358411      S-energy:     0.00000000      T1 diagnostic:  0.01502029
                                                                       D1 diagnostic:  0.04093658

 Doubles amplitudes (print threshold =  0.500E-01):

         I         J         SYM. A    SYM. B    A         B      T(IJ, AB)

         6         6         2         2         1         1     -0.14042717


 Total CPU time for triples:      0.38 sec


 RESULTS
 =======

  Reference energy                   -129.831209047385
  CCSD singlet pair energy             -0.301940300378
  CCSD triplet pair energy             -0.138730018879
  CCSD correlation energy              -0.440670319257

  Triples (T) contribution             -0.019482046421
  Total correlation energy             -0.460152365677

  CCSD total energy                  -130.271879366642
  CCSD[T] energy                     -130.292337766643
  CCSD-T energy                      -130.290972955321
 !CCSD(T) total energy               -130.291361413062

 Timing summary (sec):

 STEP                 CPU(USER)    SYS     CPU(TOT)    WALL
 Transformation          0.04      0.01      0.05      0.06
 CCSD iterations         1.41      0.28      1.69      1.66
 Triples                 0.38      0.02      0.40      0.41

 Program statistics:

 Available memory in ccsd:               994999756
 Min. memory needed in ccsd:                154850
 Max. memory used in ccsd:                  184802
 Max. memory used in cckext:                238416 (25 integral passes)



 **********************************************************************************************************************************
 DATASETS  * FILE   NREC   LENGTH (MB)   RECORD NAMES
              1      20       40.28       500      610      700      900      950      970     1000      129      960     1100   
                                          VAR    BASINP    GEOM    SYMINP    ZMAT    AOBASIS   BASIS     P2S    ABASIS      S 
                                         1400     1410     1200     1210     1080     1600     1650     1300     1700     1380   
                                           T        V       H0       H01     AOSYM     SMH    MOLCAS    ERIS     OPER     JKOP   

              2       4        2.85       700     1000      520     2100   
                                         GEOM     BASIS   MCVARS     RHF  

 PROGRAMS   *        TOTAL   CCSD(T)        HF       INT
 CPU TIMES  *         2.88      1.85      0.30      0.63
 REAL TIME  *         3.98 SEC
 DISK USED  *        75.59 MB      
 **********************************************************************************************************************************

 CCSD(T)/cc-pVTZ-DK energy=   -130.291361413062

        CCSD(T)         HF-SCF  
   -130.29136141   -129.83120905
 **********************************************************************************************************************************
 Molpro calculation terminated
 Variable memory released
