
 Primary working directories    : /tmp/r2666/235060.maple
 Secondary working directories  : /tmp/r2666/235060.maple
 Wavefunction directory         : /ddn/home4/r2666/wfu/
 Main file repository           : /tmp/r2666/235060.maple/

 SHA1      : d5ffa45e93fdbca01ffc919aa182cfdae0147319
 NAME      : 2015.1.35
 ARCHNAME  : linux/x86_64
 FC        : /opt/intel/composer_xe_2015.1.133/bin/intel64/ifort
 BLASLIB   : -Wl,-_start-group /opt/intel/mkl/lib/intel64/libmkl_intel_ilp64.a /opt/intel/mkl/lib/intel64/libmkl_intel_thread.a /opt/intel/mkl/lib/intel64/libmkl_core.a -Wl,-_end-group
 id        : olemiss

 Nodes     nprocs
 cn022        1

 Using customized tuning parameters: mindgm=1; mindgv=20; mindgc=4; mindgr=1; noblas=0; minvec=7
 default implementation of scratch files=df  

 ***,hno CCSD(T)/TZ-F12 QFF
 memory, 995, m;
 gthresh,energy=1.d-12,zero=1.d-22,oneint=1.d-22,twoint=1.d-22;
 gthresh,optgrad=1.d-8,optstep=1.d-8;
 nocompress;
 geomtyp=xyz
 bohr
 geometry={
 3
         45        45
 N        0.0000000000       -0.1522579308       -1.1567714609
 H        0.0000000000        1.6650318528       -1.9392970650
 O        0.0000000000        0.0289938680        1.1454789349
 }
 
 basis=vtz-dk
 dkroll=0
   {hf,maxit=500;accu,20;}
 {ccsd(t),nocheck,maxit=250;orbital,IGNORE_ERROR;}

 Variables initialized (889), CPU time= 0.00 sec
 Commands  initialized (702), CPU time= 0.01 sec, 572 directives.
 Default parameters read. Elapsed time= 0.05 sec

 Checking input...
 Passed
1


                                         ***  PROGRAM SYSTEM MOLPRO  ***
                                       Copyright, TTI GmbH Stuttgart, 2015
                                    Version 2015.1 linked Jul  9 2018 13:16:40


 **********************************************************************************************************************************
 LABEL *   hno CCSD(T)/TZ-F12 QFF                                                        
  64 bit serial version                                                                  DATE: 08-Feb-20          TIME: 17:57:03  
 **********************************************************************************************************************************

 SHA1:             d5ffa45e93fdbca01ffc919aa182cfdae0147319
 **********************************************************************************************************************************

 THRESHOLDS:

 ZERO    =  1.00D-22  ONEINT  =  1.00D-22  TWOINT  =  1.00D-22  PREFAC  =  1.00D-14  LOCALI  =  1.00D-09  EORDER  =  1.00D-04
 ENERGY  =  1.00D-12  ETEST   =  0.00D+00  EDENS   =  0.00D+00  THRDEDEF=  1.00D-06  GRADIENT=  1.00D-02  STEP    =  1.00D-03
 ORBITAL =  1.00D-05  CIVEC   =  1.00D-05  COEFF   =  1.00D-04  PRINTCI =  5.00D-02  PUNCHCI =  9.90D+01  OPTGRAD =  3.00D-04
 OPTENERG=  1.00D-06  OPTSTEP =  3.00D-04  THRGRAD =  1.00D-10  COMPRESS=  1.00D-11  VARMIN  =  1.00D-07  VARMAX  =  1.00D-03
 THRDOUB =  0.00D+00  THRDIV  =  1.00D-05  THRRED  =  1.00D-07  THRPSP  =  1.00D+00  THRDC   =  1.00D-10  THRCS   =  1.00D-10
 THRNRM  =  1.00D-08  THREQ   =  0.00D+00  THRDE   =  1.00D+00  THRREF  =  1.00D-05  SPARFAC =  1.00D+00  THRDLP  =  1.00D-07
 THRDIA  =  1.00D-10  THRDLS  =  1.00D-07  THRGPS  =  0.00D+00  THRKEX  =  0.00D+00  THRDIS  =  2.00D-01  THRVAR  =  1.00D-10
 THRLOC  =  1.00D-06  THRGAP  =  1.00D-06  THRLOCT = -1.00D+00  THRGAPT = -1.00D+00  THRORB  =  1.00D-06  THRMLTP =  0.00D+00
 THRCPQCI=  1.00D-10  KEXTA   =  0.00D+00  THRCOARS=  0.00D+00  SYMTOL  =  1.00D-06  GRADTOL =  1.00D-06  THROVL  =  1.00D-08
 THRORTH =  1.00D-08  GRID    =  1.00D-06  GRIDMAX =  1.00D-03  DTMAX   =  0.00D+00  THROCCDE=  1.00D-01  THROCCDE=  1.00D-01



 THRESHOLDS:

 ZERO    =  1.00D-22  ONEINT  =  1.00D-22  TWOINT  =  1.00D-22  PREFAC  =  1.00D-14  LOCALI  =  1.00D-09  EORDER  =  1.00D-04
 ENERGY  =  1.00D-12  ETEST   =  0.00D+00  EDENS   =  0.00D+00  THRDEDEF=  1.00D-06  GRADIENT=  1.00D-02  STEP    =  1.00D-03
 ORBITAL =  1.00D-05  CIVEC   =  1.00D-05  COEFF   =  1.00D-04  PRINTCI =  5.00D-02  PUNCHCI =  9.90D+01  OPTGRAD =  1.00D-08
 OPTENERG=  1.00D-06  OPTSTEP =  1.00D-08  THRGRAD =  1.00D-10  COMPRESS=  1.00D-11  VARMIN  =  1.00D-07  VARMAX  =  1.00D-03
 THRDOUB =  0.00D+00  THRDIV  =  1.00D-05  THRRED  =  1.00D-07  THRPSP  =  1.00D+00  THRDC   =  1.00D-10  THRCS   =  1.00D-10
 THRNRM  =  1.00D-08  THREQ   =  0.00D+00  THRDE   =  1.00D+00  THRREF  =  1.00D-05  SPARFAC =  1.00D+00  THRDLP  =  1.00D-07
 THRDIA  =  1.00D-10  THRDLS  =  1.00D-07  THRGPS  =  0.00D+00  THRKEX  =  0.00D+00  THRDIS  =  2.00D-01  THRVAR  =  1.00D-10
 THRLOC  =  1.00D-06  THRGAP  =  1.00D-06  THRLOCT = -1.00D+00  THRGAPT = -1.00D+00  THRORB  =  1.00D-06  THRMLTP =  0.00D+00
 THRCPQCI=  1.00D-10  KEXTA   =  0.00D+00  THRCOARS=  0.00D+00  SYMTOL  =  1.00D-06  GRADTOL =  1.00D-06  THROVL  =  1.00D-08
 THRORTH =  1.00D-08  GRID    =  1.00D-06  GRIDMAX =  1.00D-03  DTMAX   =  0.00D+00  THROCCDE=  1.00D-01  THROCCDE=  1.00D-01



 Input parameters for SORTINT:

 COMPRESS =    0.000000
 C_FINAL  =    1.000000
 DEBUG    =   -1.000000
 C_SORT1  =    0.000000
 C_SEWARD =    0.000000
 THRESH   =    0.000000
 IO       =  molpro                                                          
 SPRI     =    0.000000
 SETTING GEOMTYP        =    XYZ
 ZUNIT=BOHR
 

 Variable memory set to  995000000 words,  buffer space   230000 words

 SETTING BASIS          =    VTZ-DK
 SETTING DKROLL         =     0.00000000D+00                                  


 Recomputing integrals since basis changed


 Using spherical harmonics

 Library entry N      S cc-pVTZ-DK           selected for orbital group  1
 Library entry N      P cc-pVTZ-DK           selected for orbital group  1
 Library entry N      D cc-pVTZ-DK           selected for orbital group  1
 Library entry N      F cc-pVTZ-DK           selected for orbital group  1
 Library entry H      S cc-pVTZ-DK           selected for orbital group  2
 Library entry H      P cc-pVTZ-DK           selected for orbital group  2
 Library entry H      D cc-pVTZ-DK           selected for orbital group  2
 Library entry O      S cc-pVTZ-DK           selected for orbital group  3
 Library entry O      P cc-pVTZ-DK           selected for orbital group  3
 Library entry O      D cc-pVTZ-DK           selected for orbital group  3
 Library entry O      F cc-pVTZ-DK           selected for orbital group  3


 PROGRAM * SEWARD (Integral evaluation for generally contracted gaussian basis sets)     Author: Roland Lindh, 1990

 Geometry written to block  1 of record 700


 Point group  Cs  



 ATOMIC COORDINATES

 NR  ATOM    CHARGE       X              Y              Z

   1  N       7.00    0.000000000   -0.152257931   -1.156771461
   2  H       1.00    0.000000000    1.665031853   -1.939297065
   3  O       8.00    0.000000000    0.028993868    1.145478935

 Bond lengths in Bohr (Angstrom)

 1-2  1.978607712  1-3  2.309374179
     ( 1.047034111)     ( 1.222068187)

 Bond angles

  2-1-3  108.79522515

 NUCLEAR CHARGE:                   16
 NUMBER OF PRIMITIVE AOS:         111
 NUMBER OF SYMMETRY AOS:          100
 NUMBER OF CONTRACTIONS:           74   (  50A'  +  24A"  )
 NUMBER OF CORE ORBITALS:           2   (   2A'  +   0A"  )
 NUMBER OF VALENCE ORBITALS:        9   (   7A'  +   2A"  )


 NUCLEAR REPULSION ENERGY   30.07793612

 Eigenvalues of metric

         1 0.247E-02 0.399E-02 0.437E-02 0.836E-02 0.129E-01 0.334E-01 0.433E-01 0.464E-01
         2 0.349E-01 0.466E-01 0.103E+00 0.111E+00 0.238E+00 0.341E+00 0.398E+00 0.453E+00


 Contracted 2-electron integrals neglected if value below      1.0D-22

        1874254. INTEGRALS WRITTEN OUT IN     458 BLOCKS ON RECORD 1290 OF FILE 1


 NUMBER OF SORTED TWO-ELECTRON INTEGRALS:    2006100.     BUFFER LENGTH:  32768
 NUMBER OF SEGMENTS:   1  SEGMENT LENGTH:    2006100      RECORD LENGTH: 524288

 Memory used in sort:       2.56 MW

 SORT1 READ     1874254. AND WROTE     1914161. INTEGRALS IN      6 RECORDS. CPU TIME:     0.03 SEC, REAL TIME:     0.05 SEC
 SORT2 READ     1914161. AND WROTE     2006100. INTEGRALS IN      1 RECORDS. CPU TIME:     0.05 SEC, REAL TIME:     0.06 SEC

 FILE SIZES:   FILE 1:    50.1 MBYTE,  FILE 4:    25.2 MBYTE,   TOTAL:     75.3 MBYTE

 OPERATOR DM      FOR CENTER  0  COORDINATES:    0.000000    0.000000    0.000000


 **********************************************************************************************************************************
 DATASETS  * FILE   NREC   LENGTH (MB)   RECORD NAMES
              1      19       35.89       500      610      700      900      950      970     1000      129      960     1100   
                                          VAR    BASINP    GEOM    SYMINP    ZMAT    AOBASIS   BASIS     P2S    ABASIS      S 
                                         1400     1410     1200     1210     1080     1600     1650     1300     1700   
                                           T        V       H0       H01     AOSYM     SMH    MOLCAS    ERIS     OPER   

 PROGRAMS   *        TOTAL       INT
 CPU TIMES  *         0.67      0.58
 REAL TIME  *         1.34 SEC
 DISK USED  *        75.59 MB      
 **********************************************************************************************************************************


 PROGRAM * RHF-SCF (CLOSED SHELL)       Authors: W. Meyer, H.-J. Werner


 NUMBER OF ELECTRONS:       8+    8-
 CONVERGENCE THRESHOLDS:    1.00E-10 (Density)    1.00E-13 (Energy)
 MAX. NUMBER OF ITERATIONS:      500
 INTERPOLATION TYPE:            DIIS
 INTERPOLATION STEPS:              2 (START)      1 (STEP)
 LEVEL SHIFTS:                  0.00 (CLOSED)  0.00 (OPEN) 



 Orbital guess generated from atomic densities. Full valence occupancy:    9   2

 Molecular orbital dump at record        2100.2

 Initial occupancy:   7   1

 ITERATION    DDIFF          GRAD             ENERGY        2-EL.EN.            DIPOLE MOMENTS         DIIS   ORB.
    1      0.000D+00      0.000D+00      -129.77640968    153.612914    0.00000    0.60534   -1.08355    0    start
    2      0.000D+00      0.137D-01      -129.80282515    154.734262    0.00000    0.62481   -0.22037    1    diag
    3      0.190D-01      0.108D-01      -129.82706796    154.884109    0.00000    0.57476   -0.62446    2    diag
    4      0.933D-02      0.159D-02      -129.82783457    154.607742    0.00000    0.58270   -0.56234    3    diag
    5      0.169D-02      0.525D-03      -129.82795334    154.694491    0.00000    0.58810   -0.56329    4    diag
    6      0.733D-03      0.155D-03      -129.82797288    154.679634    0.00000    0.58859   -0.55888    5    diag
    7      0.282D-03      0.790D-04      -129.82797886    154.681737    0.00000    0.58977   -0.55620    6    diag
    8      0.198D-03      0.265D-04      -129.82797951    154.680993    0.00000    0.58978   -0.55528    7    diag
    9      0.725D-04      0.489D-05      -129.82797953    154.680862    0.00000    0.58973   -0.55510    8    diag
   10      0.143D-04      0.105D-05      -129.82797954    154.680844    0.00000    0.58969   -0.55508    9    orth
   11      0.297D-05      0.204D-06      -129.82797954    154.680840    0.00000    0.58969   -0.55508    9    diag
   12      0.530D-06      0.444D-07      -129.82797954    154.680839    0.00000    0.58968   -0.55508    9    diag
   13      0.116D-06      0.116D-07      -129.82797954    154.680839    0.00000    0.58968   -0.55508    9    diag
   14      0.301D-07      0.212D-08      -129.82797954    154.680838    0.00000    0.58968   -0.55508    9    diag
   15      0.446D-08      0.552D-09      -129.82797954    154.680839    0.00000    0.58968   -0.55508    9    diag
   16      0.118D-08      0.145D-09      -129.82797954    154.680838    0.00000    0.58968   -0.55508    9    diag
   17      0.213D-09      0.432D-10      -129.82797954    154.680838    0.00000    0.58968   -0.55508    9    diag
   18      0.736D-10      0.152D-10      -129.82797954    154.680838    0.00000    0.58968   -0.55508    9    diag
   19      0.337D-10      0.310D-11      -129.82797954    154.680838    0.00000    0.58968   -0.55508    0    orth

 Final occupancy:   7   1

 !RHF STATE 1.1 Energy               -129.827979535963
 Nuclear energy                        30.07793612
 One-electron energy                 -237.24633490
 Two-electron energy                   77.34041924
 Virial quotient                       -1.00002326
 !RHF STATE 1.1 Dipole moment           0.00000000     0.58968344    -0.55507606
 Dipole moment /Debye                   0.00000000     1.49872765    -1.41077021

 Orbital energies:

         1.1          2.1          3.1          4.1          5.1          6.1          7.1          8.1          9.1
    -20.649274   -15.709415    -1.514282    -0.995916    -0.739454    -0.658024    -0.430977     0.143443     0.367926

         1.2          2.2          3.2
     -0.585406     0.081052     0.614565

 HOMO      7.1    -0.430977 =     -11.7275eV
 LUMO      2.2     0.081052 =       2.2055eV
 LUMO-HOMO         0.512029 =      13.9330eV


 **********************************************************************************************************************************
 DATASETS  * FILE   NREC   LENGTH (MB)   RECORD NAMES
              1      19       35.89       500      610      700      900      950      970     1000      129      960     1100   
                                          VAR    BASINP    GEOM    SYMINP    ZMAT    AOBASIS   BASIS     P2S    ABASIS      S 
                                         1400     1410     1200     1210     1080     1600     1650     1300     1700   
                                           T        V       H0       H01     AOSYM     SMH    MOLCAS    ERIS     OPER   

              2       4        2.85       700     1000      520     2100   
                                         GEOM     BASIS   MCVARS     RHF  

 PROGRAMS   *        TOTAL        HF       INT
 CPU TIMES  *         0.92      0.25      0.58
 REAL TIME  *         1.62 SEC
 DISK USED  *        75.59 MB      
 **********************************************************************************************************************************


 PROGRAM * CCSD (Closed-shell coupled cluster)     Authors: C. Hampel, H.-J. Werner, 1991, M. Deegan, P.J. Knowles, 1992


 Convergence thresholds:  THRVAR = 1.00D-08  THRDEN = 1.00D-12

 CCSD(T)     terms to be evaluated (factor= 1.000)


 Number of core orbitals:           2 (   2   0 )
 Number of closed-shell orbitals:   6 (   5   1 )
 Number of external orbitals:      66 (  43  23 )

 Molecular orbitals read from record     2100.2  Type=RHF/CANONICAL (state 1.1)

 Number of N-1 electron functions:               6
 Number of N-2 electron functions:              21
 Number of singly external CSFs:               238
 Number of doubly external CSFs:             41002
 Total number of CSFs:                       41241

 Length of J-op  integral file:               0.00 MB
 Length of K-op  integral file:               0.25 MB
 Length of 3-ext integral record:             0.00 MB

 Memory could be reduced to 1.65 Mwords without degradation in triples

 Integral transformation finished. Total CPU:   0.04 sec, npass=  1  Memory used:   0.55 MW

 Reference energy:                   -129.82797954

 MP2 singlet pair energy:              -0.27495154
 MP2 triplet pair energy:              -0.16333892
 MP2 correlation energy:               -0.43829046
 MP2 total energy:                   -130.26627000

 SCS-MP2 correlation energy:           -0.43157496   (PS=  1.200000  PT=  0.333333)
 SCS-MP2 total energy:               -130.25955449

 ITER.      SQ.NORM     CORR.ENERGY   TOTAL ENERGY   ENERGY CHANGE        DEN1      VAR(S)    VAR(P)  DIIS     TIME  TIME/IT
   1      1.11980645    -0.44290223  -130.27088176    -0.00461176     0.01171561  0.31D-02  0.31D-02  1  1     0.09     0.06
   2      1.13097675    -0.44305229  -130.27103183    -0.00015007    -0.01259189  0.95D-04  0.52D-03  2  2     0.15     0.06
   3      1.13753935    -0.44345850  -130.27143803    -0.00040620    -0.00306520  0.50D-04  0.54D-04  3  3     0.21     0.06
   4      1.14051524    -0.44348635  -130.27146589    -0.00002786    -0.00100310  0.43D-05  0.95D-05  4  4     0.26     0.06
   5      1.14159717    -0.44351828  -130.27149781    -0.00003192    -0.00022375  0.14D-05  0.17D-05  5  5     0.31     0.06
   6      1.14197769    -0.44349999  -130.27147953     0.00001829    -0.00004372  0.94D-07  0.43D-06  6  6     0.36     0.06
   7      1.14206331    -0.44350239  -130.27148193    -0.00000240    -0.00000155  0.10D-07  0.96D-07  6  1     0.42     0.06
   8      1.14209422    -0.44350227  -130.27148181     0.00000012     0.00000204  0.49D-08  0.12D-07  6  2     0.47     0.06
   9      1.14210258    -0.44350205  -130.27148159     0.00000022    -0.00000240  0.28D-08  0.14D-08  6  3     0.53     0.06
  10      1.14210123    -0.44350260  -130.27148213    -0.00000054     0.00000067  0.53D-09  0.24D-09  6  4     0.59     0.06
  11      1.14209947    -0.44350266  -130.27148219    -0.00000006     0.00000016  0.16D-09  0.25D-10  6  5     0.64     0.06
  12      1.14209802    -0.44350285  -130.27148239    -0.00000019     0.00000046  0.15D-10  0.80D-11  6  6     0.70     0.06
  13      1.14209738    -0.44350286  -130.27148240    -0.00000001     0.00000013  0.67D-11  0.13D-11  6  1     0.76     0.06
  14      1.14209697    -0.44350288  -130.27148242    -0.00000002     0.00000008  0.94D-12  0.47D-12  6  2     0.82     0.06
  15      1.14209680    -0.44350288  -130.27148242    -0.00000000     0.00000002  0.25D-12  0.15D-12  6  3     0.88     0.06
  16      1.14209671    -0.44350289  -130.27148242    -0.00000000     0.00000001  0.17D-13  0.58D-13  6  4     0.93     0.06
  17      1.14209667    -0.44350289  -130.27148242    -0.00000000     0.00000001  0.26D-14  0.13D-13  6  5     0.99     0.06
  18      1.14209666    -0.44350289  -130.27148242     0.00000000     0.00000000  0.17D-14  0.35D-14  6  6     1.04     0.06
  19      1.14209666    -0.44350289  -130.27148242     0.00000000    -0.00000000  0.89D-15  0.41D-15  6  1     1.09     0.06
  20      1.14209666    -0.44350289  -130.27148242     0.00000000    -0.00000000  0.74D-16  0.74D-16  6  2     1.15     0.06
  21      1.14209666    -0.44350289  -130.27148242    -0.00000000     0.00000000  0.42D-16  0.13D-16  6  3     1.20     0.06
  22      1.14209666    -0.44350289  -130.27148242     0.00000000     0.00000000  0.71D-17  0.26D-17  6  4     1.25     0.06
  23      1.14209666    -0.44350289  -130.27148242    -0.00000000     0.00000000  0.26D-17  0.43D-18  6  5     1.31     0.06
  24      1.14209666    -0.44350289  -130.27148242     0.00000000    -0.00000000  0.27D-18  0.11D-18  6  6     1.37     0.06
  25      1.14209666    -0.44350289  -130.27148242     0.00000000    -0.00000000  0.72D-19  0.27D-19  6  2     1.42     0.06
  26      1.14209666    -0.44350289  -130.27148242     0.00000000    -0.00000000  0.16D-20  0.23D-20  6  1     1.47     0.06
  27      1.14209666    -0.44350289  -130.27148242     0.00000000    -0.00000000  0.32D-21  0.76D-21  6  3     1.53     0.06

 Norm of t1 vector:      0.07720573      S-energy:     0.00000000      T1 diagnostic:  0.01575955
                                                                       D1 diagnostic:  0.04435837

 Doubles amplitudes (print threshold =  0.500E-01):

         I         J         SYM. A    SYM. B    A         B      T(IJ, AB)

         6         6         2         2         1         1     -0.14781816


 Total CPU time for triples:      0.37 sec


 RESULTS
 =======

  Reference energy                   -129.827979535963
  CCSD singlet pair energy             -0.304419247903
  CCSD triplet pair energy             -0.139083639980
  CCSD correlation energy              -0.443502887881

  Triples (T) contribution             -0.020171011255
  Total correlation energy             -0.463673899137

  CCSD total energy                  -130.271482423844
  CCSD[T] energy                     -130.292730212245
  CCSD-T energy                      -130.291242350643
 !CCSD(T) total energy               -130.291653435099

 Timing summary (sec):

 STEP                 CPU(USER)    SYS     CPU(TOT)    WALL
 Transformation          0.04      0.01      0.05      0.06
 CCSD iterations         1.50      0.11      1.61      1.60
 Triples                 0.37      0.01      0.38      0.38

 Program statistics:

 Available memory in ccsd:               994999756
 Min. memory needed in ccsd:                154850
 Max. memory used in ccsd:                  184802
 Max. memory used in cckext:                238416 (27 integral passes)



 **********************************************************************************************************************************
 DATASETS  * FILE   NREC   LENGTH (MB)   RECORD NAMES
              1      20       40.28       500      610      700      900      950      970     1000      129      960     1100   
                                          VAR    BASINP    GEOM    SYMINP    ZMAT    AOBASIS   BASIS     P2S    ABASIS      S 
                                         1400     1410     1200     1210     1080     1600     1650     1300     1700     1380   
                                           T        V       H0       H01     AOSYM     SMH    MOLCAS    ERIS     OPER     JKOP   

              2       4        2.85       700     1000      520     2100   
                                         GEOM     BASIS   MCVARS     RHF  

 PROGRAMS   *        TOTAL   CCSD(T)        HF       INT
 CPU TIMES  *         2.86      1.94      0.25      0.58
 REAL TIME  *         3.71 SEC
 DISK USED  *        75.59 MB      
 **********************************************************************************************************************************

 CCSD(T)/cc-pVTZ-DK energy=   -130.291653435099

        CCSD(T)         HF-SCF  
   -130.29165344   -129.82797954
 **********************************************************************************************************************************
 Molpro calculation terminated
 Variable memory released
