
 Primary working directories    : /tmp/r2666/235034.maple
 Secondary working directories  : /tmp/r2666/235034.maple
 Wavefunction directory         : /ddn/home4/r2666/wfu/
 Main file repository           : /tmp/r2666/235034.maple/

 SHA1      : d5ffa45e93fdbca01ffc919aa182cfdae0147319
 NAME      : 2015.1.35
 ARCHNAME  : linux/x86_64
 FC        : /opt/intel/composer_xe_2015.1.133/bin/intel64/ifort
 BLASLIB   : -Wl,-_start-group /opt/intel/mkl/lib/intel64/libmkl_intel_ilp64.a /opt/intel/mkl/lib/intel64/libmkl_intel_thread.a /opt/intel/mkl/lib/intel64/libmkl_core.a -Wl,-_end-group
 id        : olemiss

 Nodes     nprocs
 cn096        1

 Using customized tuning parameters: mindgm=1; mindgv=20; mindgc=4; mindgr=1; noblas=0; minvec=7
 default implementation of scratch files=df  

 ***,hno CCSD(T)/TZ-F12 QFF
 memory, 995, m;
 gthresh,energy=1.d-12,zero=1.d-22,oneint=1.d-22,twoint=1.d-22;
 gthresh,optgrad=1.d-8,optstep=1.d-8;
 nocompress;
 geomtyp=xyz
 bohr
 geometry={
 3
         19        19
 N        0.0000000000       -0.1522406718       -1.1594244221
 H        0.0000000000        1.6598853463       -1.9300000417
 O        0.0000000000        0.0341231154        1.1388348728
 }
 
 basis=vtz-dk
 dkroll=0
   {hf,maxit=500;accu,20;}
 {ccsd(t),nocheck,maxit=250;orbital,IGNORE_ERROR;}

 Variables initialized (889), CPU time= 0.01 sec
 Commands  initialized (702), CPU time= 0.02 sec, 572 directives.
 Default parameters read. Elapsed time= 0.05 sec

 Checking input...
 Passed
1


                                         ***  PROGRAM SYSTEM MOLPRO  ***
                                       Copyright, TTI GmbH Stuttgart, 2015
                                    Version 2015.1 linked Jul  9 2018 13:16:40


 **********************************************************************************************************************************
 LABEL *   hno CCSD(T)/TZ-F12 QFF                                                        
  64 bit serial version                                                                  DATE: 08-Feb-20          TIME: 17:57:00  
 **********************************************************************************************************************************

 SHA1:             d5ffa45e93fdbca01ffc919aa182cfdae0147319
 **********************************************************************************************************************************

 THRESHOLDS:

 ZERO    =  1.00D-22  ONEINT  =  1.00D-22  TWOINT  =  1.00D-22  PREFAC  =  1.00D-14  LOCALI  =  1.00D-09  EORDER  =  1.00D-04
 ENERGY  =  1.00D-12  ETEST   =  0.00D+00  EDENS   =  0.00D+00  THRDEDEF=  1.00D-06  GRADIENT=  1.00D-02  STEP    =  1.00D-03
 ORBITAL =  1.00D-05  CIVEC   =  1.00D-05  COEFF   =  1.00D-04  PRINTCI =  5.00D-02  PUNCHCI =  9.90D+01  OPTGRAD =  3.00D-04
 OPTENERG=  1.00D-06  OPTSTEP =  3.00D-04  THRGRAD =  1.00D-10  COMPRESS=  1.00D-11  VARMIN  =  1.00D-07  VARMAX  =  1.00D-03
 THRDOUB =  0.00D+00  THRDIV  =  1.00D-05  THRRED  =  1.00D-07  THRPSP  =  1.00D+00  THRDC   =  1.00D-10  THRCS   =  1.00D-10
 THRNRM  =  1.00D-08  THREQ   =  0.00D+00  THRDE   =  1.00D+00  THRREF  =  1.00D-05  SPARFAC =  1.00D+00  THRDLP  =  1.00D-07
 THRDIA  =  1.00D-10  THRDLS  =  1.00D-07  THRGPS  =  0.00D+00  THRKEX  =  0.00D+00  THRDIS  =  2.00D-01  THRVAR  =  1.00D-10
 THRLOC  =  1.00D-06  THRGAP  =  1.00D-06  THRLOCT = -1.00D+00  THRGAPT = -1.00D+00  THRORB  =  1.00D-06  THRMLTP =  0.00D+00
 THRCPQCI=  1.00D-10  KEXTA   =  0.00D+00  THRCOARS=  0.00D+00  SYMTOL  =  1.00D-06  GRADTOL =  1.00D-06  THROVL  =  1.00D-08
 THRORTH =  1.00D-08  GRID    =  1.00D-06  GRIDMAX =  1.00D-03  DTMAX   =  0.00D+00  THROCCDE=  1.00D-01  THROCCDE=  1.00D-01



 THRESHOLDS:

 ZERO    =  1.00D-22  ONEINT  =  1.00D-22  TWOINT  =  1.00D-22  PREFAC  =  1.00D-14  LOCALI  =  1.00D-09  EORDER  =  1.00D-04
 ENERGY  =  1.00D-12  ETEST   =  0.00D+00  EDENS   =  0.00D+00  THRDEDEF=  1.00D-06  GRADIENT=  1.00D-02  STEP    =  1.00D-03
 ORBITAL =  1.00D-05  CIVEC   =  1.00D-05  COEFF   =  1.00D-04  PRINTCI =  5.00D-02  PUNCHCI =  9.90D+01  OPTGRAD =  1.00D-08
 OPTENERG=  1.00D-06  OPTSTEP =  1.00D-08  THRGRAD =  1.00D-10  COMPRESS=  1.00D-11  VARMIN  =  1.00D-07  VARMAX  =  1.00D-03
 THRDOUB =  0.00D+00  THRDIV  =  1.00D-05  THRRED  =  1.00D-07  THRPSP  =  1.00D+00  THRDC   =  1.00D-10  THRCS   =  1.00D-10
 THRNRM  =  1.00D-08  THREQ   =  0.00D+00  THRDE   =  1.00D+00  THRREF  =  1.00D-05  SPARFAC =  1.00D+00  THRDLP  =  1.00D-07
 THRDIA  =  1.00D-10  THRDLS  =  1.00D-07  THRGPS  =  0.00D+00  THRKEX  =  0.00D+00  THRDIS  =  2.00D-01  THRVAR  =  1.00D-10
 THRLOC  =  1.00D-06  THRGAP  =  1.00D-06  THRLOCT = -1.00D+00  THRGAPT = -1.00D+00  THRORB  =  1.00D-06  THRMLTP =  0.00D+00
 THRCPQCI=  1.00D-10  KEXTA   =  0.00D+00  THRCOARS=  0.00D+00  SYMTOL  =  1.00D-06  GRADTOL =  1.00D-06  THROVL  =  1.00D-08
 THRORTH =  1.00D-08  GRID    =  1.00D-06  GRIDMAX =  1.00D-03  DTMAX   =  0.00D+00  THROCCDE=  1.00D-01  THROCCDE=  1.00D-01



 Input parameters for SORTINT:

 COMPRESS =    0.000000
 C_FINAL  =    1.000000
 DEBUG    =   -1.000000
 C_SORT1  =    0.000000
 C_SEWARD =    0.000000
 THRESH   =    0.000000
 IO       =  molpro                                                          
 SPRI     =    0.000000
 SETTING GEOMTYP        =    XYZ
 ZUNIT=BOHR
 

 Variable memory set to  995000000 words,  buffer space   230000 words

 SETTING BASIS          =    VTZ-DK
 SETTING DKROLL         =     0.00000000D+00                                  


 Recomputing integrals since basis changed


 Using spherical harmonics

 Library entry N      S cc-pVTZ-DK           selected for orbital group  1
 Library entry N      P cc-pVTZ-DK           selected for orbital group  1
 Library entry N      D cc-pVTZ-DK           selected for orbital group  1
 Library entry N      F cc-pVTZ-DK           selected for orbital group  1
 Library entry H      S cc-pVTZ-DK           selected for orbital group  2
 Library entry H      P cc-pVTZ-DK           selected for orbital group  2
 Library entry H      D cc-pVTZ-DK           selected for orbital group  2
 Library entry O      S cc-pVTZ-DK           selected for orbital group  3
 Library entry O      P cc-pVTZ-DK           selected for orbital group  3
 Library entry O      D cc-pVTZ-DK           selected for orbital group  3
 Library entry O      F cc-pVTZ-DK           selected for orbital group  3


 PROGRAM * SEWARD (Integral evaluation for generally contracted gaussian basis sets)     Author: Roland Lindh, 1990

 Geometry written to block  1 of record 700


 Point group  Cs  



 ATOMIC COORDINATES

 NR  ATOM    CHARGE       X              Y              Z

   1  N       7.00    0.000000000   -0.152240672   -1.159424422
   2  H       1.00    0.000000000    1.659885346   -1.930000042
   3  O       8.00    0.000000000    0.034123115    1.138834873

 Bond lengths in Bohr (Angstrom)

 1-2  1.969159082  1-3  2.305802951
     ( 1.042034111)     ( 1.220178374)

 Bond angles

  2-1-3  108.40087407

 NUCLEAR CHARGE:                   16
 NUMBER OF PRIMITIVE AOS:         111
 NUMBER OF SYMMETRY AOS:          100
 NUMBER OF CONTRACTIONS:           74   (  50A'  +  24A"  )
 NUMBER OF CORE ORBITALS:           2   (   2A'  +   0A"  )
 NUMBER OF VALENCE ORBITALS:        9   (   7A'  +   2A"  )


 NUCLEAR REPULSION ENERGY   30.14493540

 Eigenvalues of metric

         1 0.245E-02 0.396E-02 0.434E-02 0.824E-02 0.128E-01 0.332E-01 0.432E-01 0.464E-01
         2 0.347E-01 0.466E-01 0.103E+00 0.110E+00 0.236E+00 0.339E+00 0.397E+00 0.452E+00


 Contracted 2-electron integrals neglected if value below      1.0D-22

        1874283. INTEGRALS WRITTEN OUT IN     458 BLOCKS ON RECORD 1290 OF FILE 1


 NUMBER OF SORTED TWO-ELECTRON INTEGRALS:    2006100.     BUFFER LENGTH:  32768
 NUMBER OF SEGMENTS:   1  SEGMENT LENGTH:    2006100      RECORD LENGTH: 524288

 Memory used in sort:       2.56 MW

 SORT1 READ     1874283. AND WROTE     1914195. INTEGRALS IN      6 RECORDS. CPU TIME:     0.03 SEC, REAL TIME:     0.05 SEC
 SORT2 READ     1914195. AND WROTE     2006100. INTEGRALS IN      1 RECORDS. CPU TIME:     0.05 SEC, REAL TIME:     0.07 SEC

 FILE SIZES:   FILE 1:    50.1 MBYTE,  FILE 4:    25.2 MBYTE,   TOTAL:     75.3 MBYTE

 OPERATOR DM      FOR CENTER  0  COORDINATES:    0.000000    0.000000    0.000000


 **********************************************************************************************************************************
 DATASETS  * FILE   NREC   LENGTH (MB)   RECORD NAMES
              1      19       35.89       500      610      700      900      950      970     1000      129      960     1100   
                                          VAR    BASINP    GEOM    SYMINP    ZMAT    AOBASIS   BASIS     P2S    ABASIS      S 
                                         1400     1410     1200     1210     1080     1600     1650     1300     1700   
                                           T        V       H0       H01     AOSYM     SMH    MOLCAS    ERIS     OPER   

 PROGRAMS   *        TOTAL       INT
 CPU TIMES  *         0.74      0.63
 REAL TIME  *         1.40 SEC
 DISK USED  *        75.59 MB      
 **********************************************************************************************************************************


 PROGRAM * RHF-SCF (CLOSED SHELL)       Authors: W. Meyer, H.-J. Werner


 NUMBER OF ELECTRONS:       8+    8-
 CONVERGENCE THRESHOLDS:    1.00E-10 (Density)    1.00E-13 (Energy)
 MAX. NUMBER OF ITERATIONS:      500
 INTERPOLATION TYPE:            DIIS
 INTERPOLATION STEPS:              2 (START)      1 (STEP)
 LEVEL SHIFTS:                  0.00 (CLOSED)  0.00 (OPEN) 



 Orbital guess generated from atomic densities. Full valence occupancy:    9   2

 Molecular orbital dump at record        2100.2

 Initial occupancy:   7   1

 ITERATION    DDIFF          GRAD             ENERGY        2-EL.EN.            DIPOLE MOMENTS         DIIS   ORB.
    1      0.000D+00      0.000D+00      -129.77739732    153.736954    0.00000    0.60390   -1.07549    0    start
    2      0.000D+00      0.137D-01      -129.80390614    154.856026    0.00000    0.62422   -0.22193    1    diag
    3      0.189D-01      0.107D-01      -129.82760609    155.003129    0.00000    0.57395   -0.62061    2    diag
    4      0.925D-02      0.159D-02      -129.82836765    154.728844    0.00000    0.58217   -0.55886    3    diag
    5      0.169D-02      0.523D-03      -129.82848498    154.814953    0.00000    0.58748   -0.55980    4    diag
    6      0.729D-03      0.154D-03      -129.82850424    154.800183    0.00000    0.58798   -0.55544    5    diag
    7      0.280D-03      0.784D-04      -129.82851013    154.802284    0.00000    0.58915   -0.55278    6    diag
    8      0.196D-03      0.261D-04      -129.82851075    154.801550    0.00000    0.58915   -0.55188    7    diag
    9      0.711D-04      0.478D-05      -129.82851078    154.801423    0.00000    0.58910   -0.55171    8    diag
   10      0.140D-04      0.103D-05      -129.82851078    154.801406    0.00000    0.58907   -0.55169    9    orth
   11      0.292D-05      0.200D-06      -129.82851078    154.801402    0.00000    0.58906   -0.55168    9    diag
   12      0.520D-06      0.432D-07      -129.82851078    154.801401    0.00000    0.58906   -0.55168    9    diag
   13      0.113D-06      0.112D-07      -129.82851078    154.801401    0.00000    0.58906   -0.55168    9    diag
   14      0.292D-07      0.204D-08      -129.82851078    154.801401    0.00000    0.58906   -0.55168    9    diag
   15      0.432D-08      0.528D-09      -129.82851078    154.801401    0.00000    0.58906   -0.55168    9    diag
   16      0.113D-08      0.137D-09      -129.82851078    154.801401    0.00000    0.58906   -0.55168    9    diag
   17      0.199D-09      0.404D-10      -129.82851078    154.801401    0.00000    0.58906   -0.55168    9    diag
   18      0.674D-10      0.142D-10      -129.82851078    154.801401    0.00000    0.58906   -0.55168    9    diag
   19      0.308D-10      0.294D-11      -129.82851078    154.801401    0.00000    0.58906   -0.55168    0    orth

 Final occupancy:   7   1

 !RHF STATE 1.1 Energy               -129.828510777676
 Nuclear energy                        30.14493540
 One-electron energy                 -237.37414651
 Two-electron energy                   77.40070034
 Virial quotient                       -0.99990345
 !RHF STATE 1.1 Dipole moment           0.00000000     0.58905900    -0.55168176
 Dipole moment /Debye                   0.00000000     1.49714057    -1.40214334

 Orbital energies:

         1.1          2.1          3.1          4.1          5.1          6.1          7.1          8.1          9.1
    -20.648925   -15.708505    -1.516068    -0.996531    -0.740582    -0.658510    -0.430988     0.143965     0.368182

         1.2          2.2          3.2
     -0.586265     0.081771     0.614342

 HOMO      7.1    -0.430988 =     -11.7278eV
 LUMO      2.2     0.081771 =       2.2251eV
 LUMO-HOMO         0.512760 =      13.9529eV


 **********************************************************************************************************************************
 DATASETS  * FILE   NREC   LENGTH (MB)   RECORD NAMES
              1      19       35.89       500      610      700      900      950      970     1000      129      960     1100   
                                          VAR    BASINP    GEOM    SYMINP    ZMAT    AOBASIS   BASIS     P2S    ABASIS      S 
                                         1400     1410     1200     1210     1080     1600     1650     1300     1700   
                                           T        V       H0       H01     AOSYM     SMH    MOLCAS    ERIS     OPER   

              2       4        2.85       700     1000      520     2100   
                                         GEOM     BASIS   MCVARS     RHF  

 PROGRAMS   *        TOTAL        HF       INT
 CPU TIMES  *         0.98      0.24      0.63
 REAL TIME  *         1.87 SEC
 DISK USED  *        75.59 MB      
 **********************************************************************************************************************************


 PROGRAM * CCSD (Closed-shell coupled cluster)     Authors: C. Hampel, H.-J. Werner, 1991, M. Deegan, P.J. Knowles, 1992


 Convergence thresholds:  THRVAR = 1.00D-08  THRDEN = 1.00D-12

 CCSD(T)     terms to be evaluated (factor= 1.000)


 Number of core orbitals:           2 (   2   0 )
 Number of closed-shell orbitals:   6 (   5   1 )
 Number of external orbitals:      66 (  43  23 )

 Molecular orbitals read from record     2100.2  Type=RHF/CANONICAL (state 1.1)

 Number of N-1 electron functions:               6
 Number of N-2 electron functions:              21
 Number of singly external CSFs:               238
 Number of doubly external CSFs:             41002
 Total number of CSFs:                       41241

 Length of J-op  integral file:               0.00 MB
 Length of K-op  integral file:               0.25 MB
 Length of 3-ext integral record:             0.00 MB

 Memory could be reduced to 1.65 Mwords without degradation in triples

 Integral transformation finished. Total CPU:   0.03 sec, npass=  1  Memory used:   0.55 MW

 Reference energy:                   -129.82851078

 MP2 singlet pair energy:              -0.27463387
 MP2 triplet pair energy:              -0.16313965
 MP2 correlation energy:               -0.43777352
 MP2 total energy:                   -130.26628430

 SCS-MP2 correlation energy:           -0.43106976   (PS=  1.200000  PT=  0.333333)
 SCS-MP2 total energy:               -130.25958054

 ITER.      SQ.NORM     CORR.ENERGY   TOTAL ENERGY   ENERGY CHANGE        DEN1      VAR(S)    VAR(P)  DIIS     TIME  TIME/IT
   1      1.11942231    -0.44246827  -130.27097905    -0.00469475     0.01149864  0.31D-02  0.31D-02  1  1     0.08     0.05
   2      1.13050470    -0.44263782  -130.27114859    -0.00016955    -0.01251374  0.94D-04  0.52D-03  2  2     0.13     0.05
   3      1.13698471    -0.44303603  -130.27154680    -0.00039821    -0.00303910  0.49D-04  0.53D-04  3  3     0.18     0.05
   4      1.13991981    -0.44306458  -130.27157536    -0.00002856    -0.00099185  0.41D-05  0.93D-05  4  4     0.23     0.05
   5      1.14097425    -0.44309559  -130.27160637    -0.00003101    -0.00021813  0.13D-05  0.17D-05  5  5     0.27     0.05
   6      1.14134599    -0.44307773  -130.27158851     0.00001787    -0.00004275  0.89D-07  0.43D-06  6  6     0.32     0.05
   7      1.14142976    -0.44308019  -130.27159097    -0.00000247    -0.00000149  0.99D-08  0.94D-07  6  1     0.37     0.05
   8      1.14146006    -0.44308008  -130.27159086     0.00000011     0.00000213  0.49D-08  0.12D-07  6  2     0.42     0.05
   9      1.14146805    -0.44307990  -130.27159068     0.00000018    -0.00000241  0.27D-08  0.13D-08  6  3     0.47     0.05
  10      1.14146668    -0.44308043  -130.27159120    -0.00000052     0.00000070  0.51D-09  0.22D-09  6  4     0.51     0.05
  11      1.14146499    -0.44308049  -130.27159126    -0.00000006     0.00000014  0.15D-09  0.24D-10  6  5     0.55     0.05
  12      1.14146359    -0.44308067  -130.27159145    -0.00000019     0.00000044  0.14D-10  0.74D-11  6  6     0.60     0.05
  13      1.14146299    -0.44308068  -130.27159146    -0.00000001     0.00000012  0.62D-11  0.12D-11  6  1     0.66     0.05
  14      1.14146260    -0.44308070  -130.27159148    -0.00000002     0.00000008  0.88D-12  0.44D-12  6  2     0.71     0.05
  15      1.14146245    -0.44308070  -130.27159148    -0.00000000     0.00000002  0.23D-12  0.14D-12  6  3     0.75     0.05
  16      1.14146236    -0.44308070  -130.27159148    -0.00000000     0.00000001  0.15D-13  0.54D-13  6  4     0.80     0.05
  17      1.14146232    -0.44308071  -130.27159148    -0.00000000     0.00000001  0.25D-14  0.12D-13  6  5     0.85     0.05
  18      1.14146231    -0.44308071  -130.27159148     0.00000000     0.00000000  0.17D-14  0.33D-14  6  6     0.90     0.05
  19      1.14146231    -0.44308071  -130.27159148     0.00000000    -0.00000000  0.80D-15  0.37D-15  6  1     0.95     0.05
  20      1.14146231    -0.44308071  -130.27159148     0.00000000    -0.00000000  0.67D-16  0.66D-16  6  2     1.00     0.05
  21      1.14146231    -0.44308071  -130.27159148    -0.00000000     0.00000000  0.37D-16  0.12D-16  6  3     1.05     0.05
  22      1.14146231    -0.44308071  -130.27159148    -0.00000000     0.00000000  0.64D-17  0.23D-17  6  4     1.09     0.05
  23      1.14146231    -0.44308071  -130.27159148    -0.00000000     0.00000000  0.23D-17  0.38D-18  6  5     1.13     0.05
  24      1.14146231    -0.44308071  -130.27159148    -0.00000000    -0.00000000  0.24D-18  0.11D-18  6  6     1.18     0.05
  25      1.14146231    -0.44308071  -130.27159148     0.00000000    -0.00000000  0.69D-19  0.25D-19  6  2     1.23     0.05
  26      1.14146231    -0.44308071  -130.27159148     0.00000000    -0.00000000  0.17D-20  0.22D-20  6  1     1.28     0.05
  27      1.14146231    -0.44308071  -130.27159148     0.00000000    -0.00000000  0.34D-21  0.68D-21  6  3     1.33     0.05

 Norm of t1 vector:      0.07650091      S-energy:     0.00000000      T1 diagnostic:  0.01561568
                                                                       D1 diagnostic:  0.04404252

 Doubles amplitudes (print threshold =  0.500E-01):

         I         J         SYM. A    SYM. B    A         B      T(IJ, AB)

         6         6         2         2         1         1     -0.14733055


 Total CPU time for triples:      0.30 sec


 RESULTS
 =======

  Reference energy                   -129.828510777676
  CCSD singlet pair energy             -0.304051518846
  CCSD triplet pair energy             -0.139029186879
  CCSD correlation energy              -0.443080705725

  Triples (T) contribution             -0.020077373965
  Total correlation energy             -0.463158079690

  CCSD total energy                  -130.271591483400
  CCSD[T] energy                     -130.292729184547
  CCSD-T energy                      -130.291262379153
 !CCSD(T) total energy               -130.291668857365

 Timing summary (sec):

 STEP                 CPU(USER)    SYS     CPU(TOT)    WALL
 Transformation          0.03      0.02      0.05      0.05
 CCSD iterations         1.31      0.17      1.48      1.49
 Triples                 0.30      0.01      0.31      0.31

 Program statistics:

 Available memory in ccsd:               994999756
 Min. memory needed in ccsd:                154850
 Max. memory used in ccsd:                  184802
 Max. memory used in cckext:                238416 (27 integral passes)



 **********************************************************************************************************************************
 DATASETS  * FILE   NREC   LENGTH (MB)   RECORD NAMES
              1      20       40.28       500      610      700      900      950      970     1000      129      960     1100   
                                          VAR    BASINP    GEOM    SYMINP    ZMAT    AOBASIS   BASIS     P2S    ABASIS      S 
                                         1400     1410     1200     1210     1080     1600     1650     1300     1700     1380   
                                           T        V       H0       H01     AOSYM     SMH    MOLCAS    ERIS     OPER     JKOP   

              2       4        2.85       700     1000      520     2100   
                                         GEOM     BASIS   MCVARS     RHF  

 PROGRAMS   *        TOTAL   CCSD(T)        HF       INT
 CPU TIMES  *         2.65      1.66      0.24      0.63
 REAL TIME  *         3.76 SEC
 DISK USED  *        75.59 MB      
 **********************************************************************************************************************************

 CCSD(T)/cc-pVTZ-DK energy=   -130.291668857365

        CCSD(T)         HF-SCF  
   -130.29166886   -129.82851078
 **********************************************************************************************************************************
 Molpro calculation terminated
 Variable memory released
