
 Primary working directories    : /tmp/r2666/235080.maple
 Secondary working directories  : /tmp/r2666/235080.maple
 Wavefunction directory         : /ddn/home4/r2666/wfu/
 Main file repository           : /tmp/r2666/235080.maple/

 SHA1      : d5ffa45e93fdbca01ffc919aa182cfdae0147319
 NAME      : 2015.1.35
 ARCHNAME  : linux/x86_64
 FC        : /opt/intel/composer_xe_2015.1.133/bin/intel64/ifort
 BLASLIB   : -Wl,-_start-group /opt/intel/mkl/lib/intel64/libmkl_intel_ilp64.a /opt/intel/mkl/lib/intel64/libmkl_intel_thread.a /opt/intel/mkl/lib/intel64/libmkl_core.a -Wl,-_end-group
 id        : olemiss

 Nodes     nprocs
 cn035        1

 Using customized tuning parameters: mindgm=1; mindgv=20; mindgc=4; mindgr=1; noblas=0; minvec=7
 default implementation of scratch files=df  

 ***,hno CCSD(T)/TZ-F12 QFF
 memory, 995, m;
 gthresh,energy=1.d-12,zero=1.d-22,oneint=1.d-22,twoint=1.d-22;
 gthresh,optgrad=1.d-8,optstep=1.d-8;
 nocompress;
 geomtyp=xyz
 bohr
 geometry={
 3
         65        65
 N        0.0000000000       -0.1582562777       -1.1420171081
 H        0.0000000000        1.6663060905       -1.9315360654
 O        0.0000000000        0.0337179771        1.1229635825
 }
 
 basis=vtz-dk
 dkroll=0
   {hf,maxit=500;accu,20;}
 {ccsd(t),nocheck,maxit=250;orbital,IGNORE_ERROR;}

 Variables initialized (889), CPU time= 0.00 sec
 Commands  initialized (702), CPU time= 0.01 sec, 572 directives.
 Default parameters read. Elapsed time= 0.06 sec

 Checking input...
 Passed
1


                                         ***  PROGRAM SYSTEM MOLPRO  ***
                                       Copyright, TTI GmbH Stuttgart, 2015
                                    Version 2015.1 linked Jul  9 2018 13:16:40


 **********************************************************************************************************************************
 LABEL *   hno CCSD(T)/TZ-F12 QFF                                                        
  64 bit serial version                                                                  DATE: 08-Feb-20          TIME: 17:57:06  
 **********************************************************************************************************************************

 SHA1:             d5ffa45e93fdbca01ffc919aa182cfdae0147319
 **********************************************************************************************************************************

 THRESHOLDS:

 ZERO    =  1.00D-22  ONEINT  =  1.00D-22  TWOINT  =  1.00D-22  PREFAC  =  1.00D-14  LOCALI  =  1.00D-09  EORDER  =  1.00D-04
 ENERGY  =  1.00D-12  ETEST   =  0.00D+00  EDENS   =  0.00D+00  THRDEDEF=  1.00D-06  GRADIENT=  1.00D-02  STEP    =  1.00D-03
 ORBITAL =  1.00D-05  CIVEC   =  1.00D-05  COEFF   =  1.00D-04  PRINTCI =  5.00D-02  PUNCHCI =  9.90D+01  OPTGRAD =  3.00D-04
 OPTENERG=  1.00D-06  OPTSTEP =  3.00D-04  THRGRAD =  1.00D-10  COMPRESS=  1.00D-11  VARMIN  =  1.00D-07  VARMAX  =  1.00D-03
 THRDOUB =  0.00D+00  THRDIV  =  1.00D-05  THRRED  =  1.00D-07  THRPSP  =  1.00D+00  THRDC   =  1.00D-10  THRCS   =  1.00D-10
 THRNRM  =  1.00D-08  THREQ   =  0.00D+00  THRDE   =  1.00D+00  THRREF  =  1.00D-05  SPARFAC =  1.00D+00  THRDLP  =  1.00D-07
 THRDIA  =  1.00D-10  THRDLS  =  1.00D-07  THRGPS  =  0.00D+00  THRKEX  =  0.00D+00  THRDIS  =  2.00D-01  THRVAR  =  1.00D-10
 THRLOC  =  1.00D-06  THRGAP  =  1.00D-06  THRLOCT = -1.00D+00  THRGAPT = -1.00D+00  THRORB  =  1.00D-06  THRMLTP =  0.00D+00
 THRCPQCI=  1.00D-10  KEXTA   =  0.00D+00  THRCOARS=  0.00D+00  SYMTOL  =  1.00D-06  GRADTOL =  1.00D-06  THROVL  =  1.00D-08
 THRORTH =  1.00D-08  GRID    =  1.00D-06  GRIDMAX =  1.00D-03  DTMAX   =  0.00D+00  THROCCDE=  1.00D-01  THROCCDE=  1.00D-01



 THRESHOLDS:

 ZERO    =  1.00D-22  ONEINT  =  1.00D-22  TWOINT  =  1.00D-22  PREFAC  =  1.00D-14  LOCALI  =  1.00D-09  EORDER  =  1.00D-04
 ENERGY  =  1.00D-12  ETEST   =  0.00D+00  EDENS   =  0.00D+00  THRDEDEF=  1.00D-06  GRADIENT=  1.00D-02  STEP    =  1.00D-03
 ORBITAL =  1.00D-05  CIVEC   =  1.00D-05  COEFF   =  1.00D-04  PRINTCI =  5.00D-02  PUNCHCI =  9.90D+01  OPTGRAD =  1.00D-08
 OPTENERG=  1.00D-06  OPTSTEP =  1.00D-08  THRGRAD =  1.00D-10  COMPRESS=  1.00D-11  VARMIN  =  1.00D-07  VARMAX  =  1.00D-03
 THRDOUB =  0.00D+00  THRDIV  =  1.00D-05  THRRED  =  1.00D-07  THRPSP  =  1.00D+00  THRDC   =  1.00D-10  THRCS   =  1.00D-10
 THRNRM  =  1.00D-08  THREQ   =  0.00D+00  THRDE   =  1.00D+00  THRREF  =  1.00D-05  SPARFAC =  1.00D+00  THRDLP  =  1.00D-07
 THRDIA  =  1.00D-10  THRDLS  =  1.00D-07  THRGPS  =  0.00D+00  THRKEX  =  0.00D+00  THRDIS  =  2.00D-01  THRVAR  =  1.00D-10
 THRLOC  =  1.00D-06  THRGAP  =  1.00D-06  THRLOCT = -1.00D+00  THRGAPT = -1.00D+00  THRORB  =  1.00D-06  THRMLTP =  0.00D+00
 THRCPQCI=  1.00D-10  KEXTA   =  0.00D+00  THRCOARS=  0.00D+00  SYMTOL  =  1.00D-06  GRADTOL =  1.00D-06  THROVL  =  1.00D-08
 THRORTH =  1.00D-08  GRID    =  1.00D-06  GRIDMAX =  1.00D-03  DTMAX   =  0.00D+00  THROCCDE=  1.00D-01  THROCCDE=  1.00D-01



 Input parameters for SORTINT:

 COMPRESS =    0.000000
 C_FINAL  =    1.000000
 DEBUG    =   -1.000000
 C_SORT1  =    0.000000
 C_SEWARD =    0.000000
 THRESH   =    0.000000
 IO       =  molpro                                                          
 SPRI     =    0.000000
 SETTING GEOMTYP        =    XYZ
 ZUNIT=BOHR
 

 Variable memory set to  995000000 words,  buffer space   230000 words

 SETTING BASIS          =    VTZ-DK
 SETTING DKROLL         =     0.00000000D+00                                  


 Recomputing integrals since basis changed


 Using spherical harmonics

 Library entry N      S cc-pVTZ-DK           selected for orbital group  1
 Library entry N      P cc-pVTZ-DK           selected for orbital group  1
 Library entry N      D cc-pVTZ-DK           selected for orbital group  1
 Library entry N      F cc-pVTZ-DK           selected for orbital group  1
 Library entry H      S cc-pVTZ-DK           selected for orbital group  2
 Library entry H      P cc-pVTZ-DK           selected for orbital group  2
 Library entry H      D cc-pVTZ-DK           selected for orbital group  2
 Library entry O      S cc-pVTZ-DK           selected for orbital group  3
 Library entry O      P cc-pVTZ-DK           selected for orbital group  3
 Library entry O      D cc-pVTZ-DK           selected for orbital group  3
 Library entry O      F cc-pVTZ-DK           selected for orbital group  3


 PROGRAM * SEWARD (Integral evaluation for generally contracted gaussian basis sets)     Author: Roland Lindh, 1990

 Geometry written to block  1 of record 700


 Point group  Cs  



 ATOMIC COORDINATES

 NR  ATOM    CHARGE       X              Y              Z

   1  N       7.00    0.000000000   -0.158256278   -1.142017108
   2  H       1.00    0.000000000    1.666306091   -1.931536065
   3  O       8.00    0.000000000    0.033717977    1.122963582

 Bond lengths in Bohr (Angstrom)

 1-2  1.988056342  1-3  2.273101767
     ( 1.052034110)     ( 1.202873653)

 Bond angles

  2-1-3  108.55427841

 NUCLEAR CHARGE:                   16
 NUMBER OF PRIMITIVE AOS:         111
 NUMBER OF SYMMETRY AOS:          100
 NUMBER OF CONTRACTIONS:           74   (  50A'  +  24A"  )
 NUMBER OF CORE ORBITALS:           2   (   2A'  +   0A"  )
 NUMBER OF VALENCE ORBITALS:        9   (   7A'  +   2A"  )


 NUCLEAR REPULSION ENERGY   30.46681983

 Eigenvalues of metric

         1 0.243E-02 0.395E-02 0.408E-02 0.834E-02 0.130E-01 0.324E-01 0.423E-01 0.463E-01
         2 0.341E-01 0.464E-01 0.101E+00 0.111E+00 0.233E+00 0.342E+00 0.393E+00 0.448E+00


 Contracted 2-electron integrals neglected if value below      1.0D-22

        1874283. INTEGRALS WRITTEN OUT IN     458 BLOCKS ON RECORD 1290 OF FILE 1


 NUMBER OF SORTED TWO-ELECTRON INTEGRALS:    2006100.     BUFFER LENGTH:  32768
 NUMBER OF SEGMENTS:   1  SEGMENT LENGTH:    2006100      RECORD LENGTH: 524288

 Memory used in sort:       2.56 MW

 SORT1 READ     1874283. AND WROTE     1914195. INTEGRALS IN      6 RECORDS. CPU TIME:     0.05 SEC, REAL TIME:     0.06 SEC
 SORT2 READ     1914195. AND WROTE     2006100. INTEGRALS IN      1 RECORDS. CPU TIME:     0.06 SEC, REAL TIME:     0.06 SEC

 FILE SIZES:   FILE 1:    50.1 MBYTE,  FILE 4:    25.2 MBYTE,   TOTAL:     75.3 MBYTE

 OPERATOR DM      FOR CENTER  0  COORDINATES:    0.000000    0.000000    0.000000


 **********************************************************************************************************************************
 DATASETS  * FILE   NREC   LENGTH (MB)   RECORD NAMES
              1      19       35.89       500      610      700      900      950      970     1000      129      960     1100   
                                          VAR    BASINP    GEOM    SYMINP    ZMAT    AOBASIS   BASIS     P2S    ABASIS      S 
                                         1400     1410     1200     1210     1080     1600     1650     1300     1700   
                                           T        V       H0       H01     AOSYM     SMH    MOLCAS    ERIS     OPER   

 PROGRAMS   *        TOTAL       INT
 CPU TIMES  *         0.65      0.55
 REAL TIME  *         1.25 SEC
 DISK USED  *        75.59 MB      
 **********************************************************************************************************************************


 PROGRAM * RHF-SCF (CLOSED SHELL)       Authors: W. Meyer, H.-J. Werner


 NUMBER OF ELECTRONS:       8+    8-
 CONVERGENCE THRESHOLDS:    1.00E-10 (Density)    1.00E-13 (Energy)
 MAX. NUMBER OF ITERATIONS:      500
 INTERPOLATION TYPE:            DIIS
 INTERPOLATION STEPS:              2 (START)      1 (STEP)
 LEVEL SHIFTS:                  0.00 (CLOSED)  0.00 (OPEN) 



 Orbital guess generated from atomic densities. Full valence occupancy:    9   2

 Molecular orbital dump at record        2100.2

 Initial occupancy:   7   1

 ITERATION    DDIFF          GRAD             ENERGY        2-EL.EN.            DIPOLE MOMENTS         DIIS   ORB.
    1      0.000D+00      0.000D+00      -129.78169451    154.307821    0.00000    0.59135   -1.02300    0    start
    2      0.000D+00      0.135D-01      -129.80873595    155.470455    0.00000    0.61199   -0.22861    1    diag
    3      0.184D-01      0.101D-01      -129.83000532    155.578693    0.00000    0.56266   -0.59620    2    diag
    4      0.886D-02      0.156D-02      -129.83073702    155.314895    0.00000    0.57104   -0.53721    3    diag
    5      0.166D-02      0.512D-03      -129.83085014    155.400338    0.00000    0.57646   -0.53851    4    diag
    6      0.715D-03      0.152D-03      -129.83086870    155.385672    0.00000    0.57704   -0.53442    5    diag
    7      0.276D-03      0.756D-04      -129.83087405    155.387996    0.00000    0.57828   -0.53199    6    diag
    8      0.190D-03      0.239D-04      -129.83087454    155.387331    0.00000    0.57830   -0.53121    7    diag
    9      0.625D-04      0.435D-05      -129.83087456    155.387219    0.00000    0.57825   -0.53106    8    diag
   10      0.121D-04      0.972D-06      -129.83087456    155.387201    0.00000    0.57821   -0.53104    9    orth
   11      0.278D-05      0.190D-06      -129.83087456    155.387197    0.00000    0.57821   -0.53103    9    diag
   12      0.507D-06      0.392D-07      -129.83087456    155.387196    0.00000    0.57821   -0.53103    9    diag
   13      0.109D-06      0.963D-08      -129.83087456    155.387195    0.00000    0.57821   -0.53103    9    diag
   14      0.271D-07      0.176D-08      -129.83087456    155.387195    0.00000    0.57821   -0.53103    9    diag
   15      0.442D-08      0.458D-09      -129.83087456    155.387195    0.00000    0.57821   -0.53103    9    diag
   16      0.106D-08      0.115D-09      -129.83087456    155.387195    0.00000    0.57821   -0.53103    9    diag
   17      0.196D-09      0.330D-10      -129.83087456    155.387195    0.00000    0.57821   -0.53103    9    diag
   18      0.615D-10      0.111D-10      -129.83087456    155.387195    0.00000    0.57821   -0.53103    0    orth

 Final occupancy:   7   1

 !RHF STATE 1.1 Energy               -129.830874560801
 Nuclear energy                        30.46681983
 One-electron energy                 -237.99129200
 Two-electron energy                   77.69359761
 Virial quotient                       -0.99953443
 !RHF STATE 1.1 Dipole moment           0.00000000     0.57820566    -0.53103267
 Dipole moment /Debye                   0.00000000     1.46955595    -1.34966202

 Orbital energies:

         1.1          2.1          3.1          4.1          5.1          6.1          7.1          8.1          9.1
    -20.647508   -15.706849    -1.529897    -0.990012    -0.744719    -0.663494    -0.425069     0.144293     0.370721

         1.2          2.2          3.2
     -0.594500     0.088162     0.612449

 HOMO      7.1    -0.425069 =     -11.5667eV
 LUMO      2.2     0.088162 =       2.3990eV
 LUMO-HOMO         0.513231 =      13.9657eV


 **********************************************************************************************************************************
 DATASETS  * FILE   NREC   LENGTH (MB)   RECORD NAMES
              1      19       35.89       500      610      700      900      950      970     1000      129      960     1100   
                                          VAR    BASINP    GEOM    SYMINP    ZMAT    AOBASIS   BASIS     P2S    ABASIS      S 
                                         1400     1410     1200     1210     1080     1600     1650     1300     1700   
                                           T        V       H0       H01     AOSYM     SMH    MOLCAS    ERIS     OPER   

              2       4        2.85       700     1000      520     2100   
                                         GEOM     BASIS   MCVARS     RHF  

 PROGRAMS   *        TOTAL        HF       INT
 CPU TIMES  *         0.89      0.24      0.55
 REAL TIME  *         1.52 SEC
 DISK USED  *        75.59 MB      
 **********************************************************************************************************************************


 PROGRAM * CCSD (Closed-shell coupled cluster)     Authors: C. Hampel, H.-J. Werner, 1991, M. Deegan, P.J. Knowles, 1992


 Convergence thresholds:  THRVAR = 1.00D-08  THRDEN = 1.00D-12

 CCSD(T)     terms to be evaluated (factor= 1.000)


 Number of core orbitals:           2 (   2   0 )
 Number of closed-shell orbitals:   6 (   5   1 )
 Number of external orbitals:      66 (  43  23 )

 Molecular orbitals read from record     2100.2  Type=RHF/CANONICAL (state 1.1)

 Number of N-1 electron functions:               6
 Number of N-2 electron functions:              21
 Number of singly external CSFs:               238
 Number of doubly external CSFs:             41002
 Total number of CSFs:                       41241

 Length of J-op  integral file:               0.00 MB
 Length of K-op  integral file:               0.25 MB
 Length of 3-ext integral record:             0.00 MB

 Memory could be reduced to 1.65 Mwords without degradation in triples

 Integral transformation finished. Total CPU:   0.04 sec, npass=  1  Memory used:   0.55 MW

 Reference energy:                   -129.83087456

 MP2 singlet pair energy:              -0.27302792
 MP2 triplet pair energy:              -0.16206980
 MP2 correlation energy:               -0.43509772
 MP2 total energy:                   -130.26597228

 SCS-MP2 correlation energy:           -0.42847693   (PS=  1.200000  PT=  0.333333)
 SCS-MP2 total energy:               -130.25935149

 ITER.      SQ.NORM     CORR.ENERGY   TOTAL ENERGY   ENERGY CHANGE        DEN1      VAR(S)    VAR(P)  DIIS     TIME  TIME/IT
   1      1.11787069    -0.44043043  -130.27130499    -0.00533271     0.01022441  0.29D-02  0.29D-02  1  1     0.10     0.05
   2      1.12858799    -0.44072800  -130.27160256    -0.00029757    -0.01214782  0.85D-04  0.50D-03  2  2     0.15     0.05
   3      1.13476379    -0.44110652  -130.27198108    -0.00037852    -0.00294210  0.46D-04  0.50D-04  3  3     0.19     0.05
   4      1.13751052    -0.44113213  -130.27200669    -0.00002561    -0.00094216  0.39D-05  0.87D-05  4  4     0.24     0.05
   5      1.13848067    -0.44116068  -130.27203524    -0.00002855    -0.00020080  0.13D-05  0.17D-05  5  5     0.28     0.05
   6      1.13883409    -0.44114475  -130.27201931     0.00001594    -0.00003990  0.96D-07  0.41D-06  6  6     0.32     0.05
   7      1.13892038    -0.44114668  -130.27202124    -0.00000193    -0.00000232  0.12D-07  0.86D-07  6  1     0.37     0.05
   8      1.13895084    -0.44114675  -130.27202131    -0.00000007     0.00000191  0.44D-08  0.10D-07  6  2     0.41     0.05
   9      1.13895849    -0.44114655  -130.27202111     0.00000020    -0.00000226  0.25D-08  0.11D-08  6  3     0.46     0.05
  10      1.13895725    -0.44114705  -130.27202161    -0.00000050     0.00000061  0.48D-09  0.20D-09  6  4     0.51     0.05
  11      1.13895552    -0.44114711  -130.27202167    -0.00000006     0.00000019  0.15D-09  0.22D-10  6  5     0.56     0.05
  12      1.13895414    -0.44114728  -130.27202184    -0.00000017     0.00000043  0.15D-10  0.74D-11  6  6     0.61     0.05
  13      1.13895354    -0.44114729  -130.27202185    -0.00000001     0.00000012  0.66D-11  0.12D-11  6  1     0.67     0.05
  14      1.13895316    -0.44114731  -130.27202187    -0.00000002     0.00000007  0.92D-12  0.42D-12  6  2     0.71     0.05
  15      1.13895302    -0.44114731  -130.27202187    -0.00000000     0.00000001  0.23D-12  0.14D-12  6  3     0.76     0.05
  16      1.13895293    -0.44114731  -130.27202187    -0.00000000     0.00000001  0.25D-13  0.16D-13  6  5     0.80     0.05
  17      1.13895290    -0.44114731  -130.27202187    -0.00000000     0.00000000  0.77D-15  0.22D-14  6  4     0.85     0.05
  18      1.13895290    -0.44114731  -130.27202187     0.00000000    -0.00000000  0.50D-15  0.31D-15  6  1     0.90     0.05
  19      1.13895289    -0.44114731  -130.27202187    -0.00000000     0.00000000  0.46D-16  0.56D-16  6  6     0.95     0.05
  20      1.13895289    -0.44114731  -130.27202187    -0.00000000     0.00000000  0.98D-17  0.14D-16  6  2     1.01     0.05
  21      1.13895289    -0.44114731  -130.27202187    -0.00000000     0.00000000  0.18D-17  0.10D-17  6  5     1.06     0.05
  22      1.13895289    -0.44114731  -130.27202187     0.00000000     0.00000000  0.11D-18  0.78D-19  6  3     1.10     0.05
  23      1.13895289    -0.44114731  -130.27202187     0.00000000    -0.00000000  0.30D-19  0.17D-19  6  4     1.15     0.05
  24      1.13895289    -0.44114731  -130.27202187     0.00000000    -0.00000000  0.44D-20  0.46D-20  6  1     1.19     0.05
  25      1.13895289    -0.44114731  -130.27202187     0.00000000    -0.00000000  0.52D-21  0.81D-21  6  6     1.24     0.05

 Norm of t1 vector:      0.07431744      S-energy:     0.00000000      T1 diagnostic:  0.01516998
                                                                       D1 diagnostic:  0.04181779

 Doubles amplitudes (print threshold =  0.500E-01):

         I         J         SYM. A    SYM. B    A         B      T(IJ, AB)

         6         6         2         2         1         1     -0.14235972


 Total CPU time for triples:      0.34 sec


 RESULTS
 =======

  Reference energy                   -129.830874560801
  CCSD singlet pair energy             -0.302361160206
  CCSD triplet pair energy             -0.138786150218
  CCSD correlation energy              -0.441147310423

  Triples (T) contribution             -0.019616208072
  Total correlation energy             -0.460763518495

  CCSD total energy                  -130.272021871224
  CCSD[T] energy                     -130.292635636251
  CCSD-T energy                      -130.291245534965
 !CCSD(T) total energy               -130.291638079296

 Timing summary (sec):

 STEP                 CPU(USER)    SYS     CPU(TOT)    WALL
 Transformation          0.04      0.01      0.05      0.06
 CCSD iterations         1.20      0.14      1.34      1.34
 Triples                 0.34      0.01      0.35      0.35

 Program statistics:

 Available memory in ccsd:               994999756
 Min. memory needed in ccsd:                154850
 Max. memory used in ccsd:                  184802
 Max. memory used in cckext:                238416 (25 integral passes)



 **********************************************************************************************************************************
 DATASETS  * FILE   NREC   LENGTH (MB)   RECORD NAMES
              1      20       40.28       500      610      700      900      950      970     1000      129      960     1100   
                                          VAR    BASINP    GEOM    SYMINP    ZMAT    AOBASIS   BASIS     P2S    ABASIS      S 
                                         1400     1410     1200     1210     1080     1600     1650     1300     1700     1380   
                                           T        V       H0       H01     AOSYM     SMH    MOLCAS    ERIS     OPER     JKOP   

              2       4        2.85       700     1000      520     2100   
                                         GEOM     BASIS   MCVARS     RHF  

 PROGRAMS   *        TOTAL   CCSD(T)        HF       INT
 CPU TIMES  *         2.50      1.61      0.24      0.55
 REAL TIME  *         3.30 SEC
 DISK USED  *        75.59 MB      
 **********************************************************************************************************************************

 CCSD(T)/cc-pVTZ-DK energy=   -130.291638079296

        CCSD(T)         HF-SCF  
   -130.29163808   -129.83087456
 **********************************************************************************************************************************
 Molpro calculation terminated
 Variable memory released
