
 Primary working directories    : /tmp/r2666/235083.maple
 Secondary working directories  : /tmp/r2666/235083.maple
 Wavefunction directory         : /ddn/home4/r2666/wfu/
 Main file repository           : /tmp/r2666/235083.maple/

 SHA1      : d5ffa45e93fdbca01ffc919aa182cfdae0147319
 NAME      : 2015.1.35
 ARCHNAME  : linux/x86_64
 FC        : /opt/intel/composer_xe_2015.1.133/bin/intel64/ifort
 BLASLIB   : -Wl,-_start-group /opt/intel/mkl/lib/intel64/libmkl_intel_ilp64.a /opt/intel/mkl/lib/intel64/libmkl_intel_thread.a /opt/intel/mkl/lib/intel64/libmkl_core.a -Wl,-_end-group
 id        : olemiss

 Nodes     nprocs
 cn076        1

 Using customized tuning parameters: mindgm=1; mindgv=20; mindgc=4; mindgr=1; noblas=0; minvec=7
 default implementation of scratch files=df  

 ***,hno CCSD(T)/TZ-F12 QFF
 memory, 995, m;
 gthresh,energy=1.d-12,zero=1.d-22,oneint=1.d-22,twoint=1.d-22;
 gthresh,optgrad=1.d-8,optstep=1.d-8;
 nocompress;
 geomtyp=xyz
 bohr
 geometry={
 3
         68        68
 N        0.0000000000       -0.1697829235       -1.1648000114
 H        0.0000000000        1.6683818827       -1.9221098321
 O        0.0000000000        0.0431688307        1.1363202525
 }
 
 basis=vtz-dk
 dkroll=0
   {hf,maxit=500;accu,20;}
 {ccsd(t),nocheck,maxit=250;orbital,IGNORE_ERROR;}

 Variables initialized (889), CPU time= 0.01 sec
 Commands  initialized (702), CPU time= 0.01 sec, 572 directives.
 Default parameters read. Elapsed time= 0.04 sec

 Checking input...
 Passed
1


                                         ***  PROGRAM SYSTEM MOLPRO  ***
                                       Copyright, TTI GmbH Stuttgart, 2015
                                    Version 2015.1 linked Jul  9 2018 13:16:40


 **********************************************************************************************************************************
 LABEL *   hno CCSD(T)/TZ-F12 QFF                                                        
  64 bit serial version                                                                  DATE: 08-Feb-20          TIME: 17:57:06  
 **********************************************************************************************************************************

 SHA1:             d5ffa45e93fdbca01ffc919aa182cfdae0147319
 **********************************************************************************************************************************

 THRESHOLDS:

 ZERO    =  1.00D-22  ONEINT  =  1.00D-22  TWOINT  =  1.00D-22  PREFAC  =  1.00D-14  LOCALI  =  1.00D-09  EORDER  =  1.00D-04
 ENERGY  =  1.00D-12  ETEST   =  0.00D+00  EDENS   =  0.00D+00  THRDEDEF=  1.00D-06  GRADIENT=  1.00D-02  STEP    =  1.00D-03
 ORBITAL =  1.00D-05  CIVEC   =  1.00D-05  COEFF   =  1.00D-04  PRINTCI =  5.00D-02  PUNCHCI =  9.90D+01  OPTGRAD =  3.00D-04
 OPTENERG=  1.00D-06  OPTSTEP =  3.00D-04  THRGRAD =  1.00D-10  COMPRESS=  1.00D-11  VARMIN  =  1.00D-07  VARMAX  =  1.00D-03
 THRDOUB =  0.00D+00  THRDIV  =  1.00D-05  THRRED  =  1.00D-07  THRPSP  =  1.00D+00  THRDC   =  1.00D-10  THRCS   =  1.00D-10
 THRNRM  =  1.00D-08  THREQ   =  0.00D+00  THRDE   =  1.00D+00  THRREF  =  1.00D-05  SPARFAC =  1.00D+00  THRDLP  =  1.00D-07
 THRDIA  =  1.00D-10  THRDLS  =  1.00D-07  THRGPS  =  0.00D+00  THRKEX  =  0.00D+00  THRDIS  =  2.00D-01  THRVAR  =  1.00D-10
 THRLOC  =  1.00D-06  THRGAP  =  1.00D-06  THRLOCT = -1.00D+00  THRGAPT = -1.00D+00  THRORB  =  1.00D-06  THRMLTP =  0.00D+00
 THRCPQCI=  1.00D-10  KEXTA   =  0.00D+00  THRCOARS=  0.00D+00  SYMTOL  =  1.00D-06  GRADTOL =  1.00D-06  THROVL  =  1.00D-08
 THRORTH =  1.00D-08  GRID    =  1.00D-06  GRIDMAX =  1.00D-03  DTMAX   =  0.00D+00  THROCCDE=  1.00D-01  THROCCDE=  1.00D-01



 THRESHOLDS:

 ZERO    =  1.00D-22  ONEINT  =  1.00D-22  TWOINT  =  1.00D-22  PREFAC  =  1.00D-14  LOCALI  =  1.00D-09  EORDER  =  1.00D-04
 ENERGY  =  1.00D-12  ETEST   =  0.00D+00  EDENS   =  0.00D+00  THRDEDEF=  1.00D-06  GRADIENT=  1.00D-02  STEP    =  1.00D-03
 ORBITAL =  1.00D-05  CIVEC   =  1.00D-05  COEFF   =  1.00D-04  PRINTCI =  5.00D-02  PUNCHCI =  9.90D+01  OPTGRAD =  1.00D-08
 OPTENERG=  1.00D-06  OPTSTEP =  1.00D-08  THRGRAD =  1.00D-10  COMPRESS=  1.00D-11  VARMIN  =  1.00D-07  VARMAX  =  1.00D-03
 THRDOUB =  0.00D+00  THRDIV  =  1.00D-05  THRRED  =  1.00D-07  THRPSP  =  1.00D+00  THRDC   =  1.00D-10  THRCS   =  1.00D-10
 THRNRM  =  1.00D-08  THREQ   =  0.00D+00  THRDE   =  1.00D+00  THRREF  =  1.00D-05  SPARFAC =  1.00D+00  THRDLP  =  1.00D-07
 THRDIA  =  1.00D-10  THRDLS  =  1.00D-07  THRGPS  =  0.00D+00  THRKEX  =  0.00D+00  THRDIS  =  2.00D-01  THRVAR  =  1.00D-10
 THRLOC  =  1.00D-06  THRGAP  =  1.00D-06  THRLOCT = -1.00D+00  THRGAPT = -1.00D+00  THRORB  =  1.00D-06  THRMLTP =  0.00D+00
 THRCPQCI=  1.00D-10  KEXTA   =  0.00D+00  THRCOARS=  0.00D+00  SYMTOL  =  1.00D-06  GRADTOL =  1.00D-06  THROVL  =  1.00D-08
 THRORTH =  1.00D-08  GRID    =  1.00D-06  GRIDMAX =  1.00D-03  DTMAX   =  0.00D+00  THROCCDE=  1.00D-01  THROCCDE=  1.00D-01



 Input parameters for SORTINT:

 COMPRESS =    0.000000
 C_FINAL  =    1.000000
 DEBUG    =   -1.000000
 C_SORT1  =    0.000000
 C_SEWARD =    0.000000
 THRESH   =    0.000000
 IO       =  molpro                                                          
 SPRI     =    0.000000
 SETTING GEOMTYP        =    XYZ
 ZUNIT=BOHR
 

 Variable memory set to  995000000 words,  buffer space   230000 words

 SETTING BASIS          =    VTZ-DK
 SETTING DKROLL         =     0.00000000D+00                                  


 Recomputing integrals since basis changed


 Using spherical harmonics

 Library entry N      S cc-pVTZ-DK           selected for orbital group  1
 Library entry N      P cc-pVTZ-DK           selected for orbital group  1
 Library entry N      D cc-pVTZ-DK           selected for orbital group  1
 Library entry N      F cc-pVTZ-DK           selected for orbital group  1
 Library entry H      S cc-pVTZ-DK           selected for orbital group  2
 Library entry H      P cc-pVTZ-DK           selected for orbital group  2
 Library entry H      D cc-pVTZ-DK           selected for orbital group  2
 Library entry O      S cc-pVTZ-DK           selected for orbital group  3
 Library entry O      P cc-pVTZ-DK           selected for orbital group  3
 Library entry O      D cc-pVTZ-DK           selected for orbital group  3
 Library entry O      F cc-pVTZ-DK           selected for orbital group  3


 PROGRAM * SEWARD (Integral evaluation for generally contracted gaussian basis sets)     Author: Roland Lindh, 1990

 Geometry written to block  1 of record 700


 Point group  Cs  



 ATOMIC COORDINATES

 NR  ATOM    CHARGE       X              Y              Z

   1  N       7.00    0.000000000   -0.169782923   -1.164800011
   2  H       1.00    0.000000000    1.668381883   -1.922109832
   3  O       8.00    0.000000000    0.043168831    1.136320253

 Bond lengths in Bohr (Angstrom)

 1-2  1.988056342  1-3  2.310952816
     ( 1.052034110)     ( 1.222903566)

 Bond angles

  2-1-3  107.10404219

 NUCLEAR CHARGE:                   16
 NUMBER OF PRIMITIVE AOS:         111
 NUMBER OF SYMMETRY AOS:          100
 NUMBER OF CONTRACTIONS:           74   (  50A'  +  24A"  )
 NUMBER OF CORE ORBITALS:           2   (   2A'  +   0A"  )
 NUMBER OF VALENCE ORBITALS:        9   (   7A'  +   2A"  )


 NUCLEAR REPULSION ENERGY   30.06330826

 Eigenvalues of metric

         1 0.250E-02 0.401E-02 0.440E-02 0.842E-02 0.130E-01 0.336E-01 0.433E-01 0.466E-01
         2 0.349E-01 0.467E-01 0.103E+00 0.114E+00 0.239E+00 0.342E+00 0.400E+00 0.454E+00


 Contracted 2-electron integrals neglected if value below      1.0D-22

        1874283. INTEGRALS WRITTEN OUT IN     458 BLOCKS ON RECORD 1290 OF FILE 1


 NUMBER OF SORTED TWO-ELECTRON INTEGRALS:    2006100.     BUFFER LENGTH:  32768
 NUMBER OF SEGMENTS:   1  SEGMENT LENGTH:    2006100      RECORD LENGTH: 524288

 Memory used in sort:       2.56 MW

 SORT1 READ     1874283. AND WROTE     1914195. INTEGRALS IN      6 RECORDS. CPU TIME:     0.03 SEC, REAL TIME:     0.04 SEC
 SORT2 READ     1914195. AND WROTE     2006100. INTEGRALS IN      1 RECORDS. CPU TIME:     0.04 SEC, REAL TIME:     0.06 SEC

 FILE SIZES:   FILE 1:    50.1 MBYTE,  FILE 4:    25.2 MBYTE,   TOTAL:     75.3 MBYTE

 OPERATOR DM      FOR CENTER  0  COORDINATES:    0.000000    0.000000    0.000000


 **********************************************************************************************************************************
 DATASETS  * FILE   NREC   LENGTH (MB)   RECORD NAMES
              1      19       35.89       500      610      700      900      950      970     1000      129      960     1100   
                                          VAR    BASINP    GEOM    SYMINP    ZMAT    AOBASIS   BASIS     P2S    ABASIS      S 
                                         1400     1410     1200     1210     1080     1600     1650     1300     1700   
                                           T        V       H0       H01     AOSYM     SMH    MOLCAS    ERIS     OPER   

 PROGRAMS   *        TOTAL       INT
 CPU TIMES  *         0.60      0.51
 REAL TIME  *         1.19 SEC
 DISK USED  *        75.59 MB      
 **********************************************************************************************************************************


 PROGRAM * RHF-SCF (CLOSED SHELL)       Authors: W. Meyer, H.-J. Werner


 NUMBER OF ELECTRONS:       8+    8-
 CONVERGENCE THRESHOLDS:    1.00E-10 (Density)    1.00E-13 (Energy)
 MAX. NUMBER OF ITERATIONS:      500
 INTERPOLATION TYPE:            DIIS
 INTERPOLATION STEPS:              2 (START)      1 (STEP)
 LEVEL SHIFTS:                  0.00 (CLOSED)  0.00 (OPEN) 



 Orbital guess generated from atomic densities. Full valence occupancy:    9   2

 Molecular orbital dump at record        2100.2

 Initial occupancy:   7   1

 ITERATION    DDIFF          GRAD             ENERGY        2-EL.EN.            DIPOLE MOMENTS         DIIS   ORB.
    1      0.000D+00      0.000D+00      -129.77558925    153.590099    0.00000    0.58717   -1.08340    0    start
    2      0.000D+00      0.138D-01      -129.80198325    154.708090    0.00000    0.62615   -0.21048    1    diag
    3      0.191D-01      0.109D-01      -129.82680247    154.859373    0.00000    0.56676   -0.61841    2    diag
    4      0.941D-02      0.158D-02      -129.82756728    154.582607    0.00000    0.57546   -0.55663    3    diag
    5      0.168D-02      0.529D-03      -129.82768800    154.669293    0.00000    0.58078   -0.55742    4    diag
    6      0.737D-03      0.157D-03      -129.82770806    154.654263    0.00000    0.58124   -0.55295    5    diag
    7      0.285D-03      0.800D-04      -129.82771422    154.656363    0.00000    0.58242   -0.55022    6    diag
    8      0.200D-03      0.269D-04      -129.82771489    154.655594    0.00000    0.58242   -0.54929    7    diag
    9      0.737D-04      0.492D-05      -129.82771492    154.655462    0.00000    0.58237   -0.54911    8    diag
   10      0.144D-04      0.104D-05      -129.82771492    154.655446    0.00000    0.58233   -0.54909    9    orth
   11      0.292D-05      0.204D-06      -129.82771492    154.655442    0.00000    0.58233   -0.54909    9    diag
   12      0.527D-06      0.448D-07      -129.82771492    154.655440    0.00000    0.58233   -0.54908    9    diag
   13      0.118D-06      0.117D-07      -129.82771492    154.655440    0.00000    0.58233   -0.54908    9    diag
   14      0.305D-07      0.210D-08      -129.82771492    154.655440    0.00000    0.58233   -0.54908    9    diag
   15      0.446D-08      0.538D-09      -129.82771492    154.655440    0.00000    0.58233   -0.54908    9    diag
   16      0.115D-08      0.137D-09      -129.82771492    154.655440    0.00000    0.58233   -0.54908    9    diag
   17      0.199D-09      0.407D-10      -129.82771492    154.655440    0.00000    0.58233   -0.54908    9    diag
   18      0.672D-10      0.144D-10      -129.82771492    154.655440    0.00000    0.58233   -0.54908    0    orth

 Final occupancy:   7   1

 !RHF STATE 1.1 Energy               -129.827714917027
 Nuclear energy                        30.06330826
 One-electron energy                 -237.21874321
 Two-electron energy                   77.32772003
 Virial quotient                       -1.00005544
 !RHF STATE 1.1 Dipole moment           0.00000000     0.58232539    -0.54908404
 Dipole moment /Debye                   0.00000000     1.48002656    -1.39554101

 Orbital energies:

         1.1          2.1          3.1          4.1          5.1          6.1          7.1          8.1          9.1
    -20.649060   -15.710601    -1.514458    -0.993838    -0.738728    -0.657541    -0.432084     0.143452     0.367630

         1.2          2.2          3.2
     -0.585343     0.080902     0.614508

 HOMO      7.1    -0.432084 =     -11.7576eV
 LUMO      2.2     0.080902 =       2.2014eV
 LUMO-HOMO         0.512985 =      13.9590eV


 **********************************************************************************************************************************
 DATASETS  * FILE   NREC   LENGTH (MB)   RECORD NAMES
              1      19       35.89       500      610      700      900      950      970     1000      129      960     1100   
                                          VAR    BASINP    GEOM    SYMINP    ZMAT    AOBASIS   BASIS     P2S    ABASIS      S 
                                         1400     1410     1200     1210     1080     1600     1650     1300     1700   
                                           T        V       H0       H01     AOSYM     SMH    MOLCAS    ERIS     OPER   

              2       4        2.85       700     1000      520     2100   
                                         GEOM     BASIS   MCVARS     RHF  

 PROGRAMS   *        TOTAL        HF       INT
 CPU TIMES  *         0.77      0.17      0.51
 REAL TIME  *         1.42 SEC
 DISK USED  *        75.59 MB      
 **********************************************************************************************************************************


 PROGRAM * CCSD (Closed-shell coupled cluster)     Authors: C. Hampel, H.-J. Werner, 1991, M. Deegan, P.J. Knowles, 1992


 Convergence thresholds:  THRVAR = 1.00D-08  THRDEN = 1.00D-12

 CCSD(T)     terms to be evaluated (factor= 1.000)


 Number of core orbitals:           2 (   2   0 )
 Number of closed-shell orbitals:   6 (   5   1 )
 Number of external orbitals:      66 (  43  23 )

 Molecular orbitals read from record     2100.2  Type=RHF/CANONICAL (state 1.1)

 Number of N-1 electron functions:               6
 Number of N-2 electron functions:              21
 Number of singly external CSFs:               238
 Number of doubly external CSFs:             41002
 Total number of CSFs:                       41241

 Length of J-op  integral file:               0.00 MB
 Length of K-op  integral file:               0.25 MB
 Length of 3-ext integral record:             0.00 MB

 Memory could be reduced to 1.65 Mwords without degradation in triples

 Integral transformation finished. Total CPU:   0.02 sec, npass=  1  Memory used:   0.55 MW

 Reference energy:                   -129.82771492

 MP2 singlet pair energy:              -0.27516560
 MP2 triplet pair energy:              -0.16347205
 MP2 correlation energy:               -0.43863765
 MP2 total energy:                   -130.26635257

 SCS-MP2 correlation energy:           -0.43191467   (PS=  1.200000  PT=  0.333333)
 SCS-MP2 total energy:               -130.25962958

 ITER.      SQ.NORM     CORR.ENERGY   TOTAL ENERGY   ENERGY CHANGE        DEN1      VAR(S)    VAR(P)  DIIS     TIME  TIME/IT
   1      1.12002374    -0.44319449  -130.27090941    -0.00455684     0.01181614  0.31D-02  0.32D-02  1  1     0.06     0.04
   2      1.13122043    -0.44334050  -130.27105542    -0.00014601    -0.01262285  0.96D-04  0.52D-03  2  2     0.10     0.04
   3      1.13779709    -0.44374688  -130.27146180    -0.00040638    -0.00307781  0.50D-04  0.54D-04  3  3     0.14     0.04
   4      1.14076962    -0.44377545  -130.27149037    -0.00002857    -0.00100406  0.43D-05  0.94D-05  4  4     0.18     0.04
   5      1.14184076    -0.44380746  -130.27152237    -0.00003200    -0.00022211  0.14D-05  0.17D-05  5  5     0.21     0.04
   6      1.14221467    -0.44378913  -130.27150405     0.00001833    -0.00004331  0.96D-07  0.41D-06  6  6     0.24     0.04
   7      1.14229728    -0.44379147  -130.27150639    -0.00000234    -0.00000134  0.11D-07  0.91D-07  6  1     0.28     0.04
   8      1.14232760    -0.44379124  -130.27150616     0.00000023     0.00000200  0.45D-08  0.11D-07  6  2     0.31     0.04
   9      1.14233561    -0.44379105  -130.27150597     0.00000019    -0.00000234  0.26D-08  0.13D-08  6  3     0.35     0.04
  10      1.14233431    -0.44379157  -130.27150649    -0.00000052     0.00000068  0.49D-09  0.22D-09  6  4     0.38     0.04
  11      1.14233263    -0.44379163  -130.27150654    -0.00000006     0.00000013  0.15D-09  0.24D-10  6  5     0.42     0.04
  12      1.14233124    -0.44379181  -130.27150673    -0.00000019     0.00000044  0.14D-10  0.74D-11  6  6     0.46     0.04
  13      1.14233064    -0.44379182  -130.27150674    -0.00000001     0.00000012  0.62D-11  0.12D-11  6  1     0.49     0.04
  14      1.14233024    -0.44379184  -130.27150676    -0.00000002     0.00000008  0.90D-12  0.43D-12  6  2     0.53     0.04
  15      1.14233009    -0.44379184  -130.27150676    -0.00000000     0.00000002  0.24D-12  0.13D-12  6  3     0.56     0.04
  16      1.14232997    -0.44379185  -130.27150676    -0.00000000     0.00000002  0.77D-14  0.34D-13  6  1     0.60     0.04
  17      1.14232996    -0.44379185  -130.27150676     0.00000000    -0.00000000  0.24D-14  0.22D-14  6  4     0.63     0.04
  18      1.14232995    -0.44379185  -130.27150676    -0.00000000     0.00000000  0.62D-15  0.36D-15  6  5     0.67     0.04
  19      1.14232995    -0.44379185  -130.27150676     0.00000000    -0.00000000  0.13D-15  0.71D-16  6  6     0.71     0.04
  20      1.14232995    -0.44379185  -130.27150676    -0.00000000     0.00000000  0.21D-16  0.19D-16  6  2     0.74     0.04
  21      1.14232995    -0.44379185  -130.27150676    -0.00000000     0.00000000  0.60D-18  0.13D-17  6  4     0.78     0.04
  22      1.14232995    -0.44379185  -130.27150676    -0.00000000     0.00000000  0.79D-19  0.14D-18  6  3     0.81     0.04
  23      1.14232995    -0.44379185  -130.27150676    -0.00000000     0.00000000  0.76D-20  0.15D-19  6  1     0.84     0.04
  24      1.14232995    -0.44379185  -130.27150676     0.00000000     0.00000000  0.39D-20  0.21D-20  6  6     0.88     0.04
  25      1.14232995    -0.44379185  -130.27150676     0.00000000     0.00000000  0.46D-21  0.46D-21  6  5     0.91     0.04

 Norm of t1 vector:      0.07706612      S-energy:     0.00000000      T1 diagnostic:  0.01573106
                                                                       D1 diagnostic:  0.04431465

 Doubles amplitudes (print threshold =  0.500E-01):

         I         J         SYM. A    SYM. B    A         B      T(IJ, AB)

         6         6         2         2         1         1     -0.14793642


 Total CPU time for triples:      0.23 sec


 RESULTS
 =======

  Reference energy                   -129.827714917027
  CCSD singlet pair energy             -0.304664193884
  CCSD triplet pair energy             -0.139127651691
  CCSD correlation energy              -0.443791845573

  Triples (T) contribution             -0.020213171818
  Total correlation energy             -0.464005017391

  CCSD total energy                  -130.271506762600
  CCSD[T] energy                     -130.292795738194
  CCSD-T energy                      -130.291308409055
 !CCSD(T) total energy               -130.291719934418

 Timing summary (sec):

 STEP                 CPU(USER)    SYS     CPU(TOT)    WALL
 Transformation          0.02      0.02      0.04      0.05
 CCSD iterations         0.90      0.09      0.99      0.97
 Triples                 0.23      0.01      0.24      0.24

 Program statistics:

 Available memory in ccsd:               994999756
 Min. memory needed in ccsd:                154850
 Max. memory used in ccsd:                  184802
 Max. memory used in cckext:                238416 (25 integral passes)



 **********************************************************************************************************************************
 DATASETS  * FILE   NREC   LENGTH (MB)   RECORD NAMES
              1      20       40.28       500      610      700      900      950      970     1000      129      960     1100   
                                          VAR    BASINP    GEOM    SYMINP    ZMAT    AOBASIS   BASIS     P2S    ABASIS      S 
                                         1400     1410     1200     1210     1080     1600     1650     1300     1700     1380   
                                           T        V       H0       H01     AOSYM     SMH    MOLCAS    ERIS     OPER     JKOP   

              2       4        2.85       700     1000      520     2100   
                                         GEOM     BASIS   MCVARS     RHF  

 PROGRAMS   *        TOTAL   CCSD(T)        HF       INT
 CPU TIMES  *         1.94      1.17      0.17      0.51
 REAL TIME  *         2.72 SEC
 DISK USED  *        75.59 MB      
 **********************************************************************************************************************************

 CCSD(T)/cc-pVTZ-DK energy=   -130.291719934418

        CCSD(T)         HF-SCF  
   -130.29171993   -129.82771492
 **********************************************************************************************************************************
 Molpro calculation terminated
 Variable memory released
