
 Primary working directories    : /tmp/r2666/235038.maple
 Secondary working directories  : /tmp/r2666/235038.maple
 Wavefunction directory         : /ddn/home4/r2666/wfu/
 Main file repository           : /tmp/r2666/235038.maple/

 SHA1      : d5ffa45e93fdbca01ffc919aa182cfdae0147319
 NAME      : 2015.1.35
 ARCHNAME  : linux/x86_64
 FC        : /opt/intel/composer_xe_2015.1.133/bin/intel64/ifort
 BLASLIB   : -Wl,-_start-group /opt/intel/mkl/lib/intel64/libmkl_intel_ilp64.a /opt/intel/mkl/lib/intel64/libmkl_intel_thread.a /opt/intel/mkl/lib/intel64/libmkl_core.a -Wl,-_end-group
 id        : olemiss

 Nodes     nprocs
 cn034        1

 Using customized tuning parameters: mindgm=1; mindgv=20; mindgc=4; mindgr=1; noblas=0; minvec=7
 default implementation of scratch files=df  

 ***,hno CCSD(T)/TZ-F12 QFF
 memory, 995, m;
 gthresh,energy=1.d-12,zero=1.d-22,oneint=1.d-22,twoint=1.d-22;
 gthresh,optgrad=1.d-8,optstep=1.d-8;
 nocompress;
 geomtyp=xyz
 bohr
 geometry={
 3
         23        23
 N        0.0000000000       -0.1582727576       -1.1447181986
 H        0.0000000000        1.6611719352       -1.9222202812
 O        0.0000000000        0.0388686123        1.1163488888
 }
 
 basis=vtz-dk
 dkroll=0
   {hf,maxit=500;accu,20;}
 {ccsd(t),nocheck,maxit=250;orbital,IGNORE_ERROR;}

 Variables initialized (889), CPU time= 0.00 sec
 Commands  initialized (702), CPU time= 0.01 sec, 572 directives.
 Default parameters read. Elapsed time= 0.04 sec

 Checking input...
 Passed
1


                                         ***  PROGRAM SYSTEM MOLPRO  ***
                                       Copyright, TTI GmbH Stuttgart, 2015
                                    Version 2015.1 linked Jul  9 2018 13:16:40


 **********************************************************************************************************************************
 LABEL *   hno CCSD(T)/TZ-F12 QFF                                                        
  64 bit serial version                                                                  DATE: 08-Feb-20          TIME: 17:57:00  
 **********************************************************************************************************************************

 SHA1:             d5ffa45e93fdbca01ffc919aa182cfdae0147319
 **********************************************************************************************************************************

 THRESHOLDS:

 ZERO    =  1.00D-22  ONEINT  =  1.00D-22  TWOINT  =  1.00D-22  PREFAC  =  1.00D-14  LOCALI  =  1.00D-09  EORDER  =  1.00D-04
 ENERGY  =  1.00D-12  ETEST   =  0.00D+00  EDENS   =  0.00D+00  THRDEDEF=  1.00D-06  GRADIENT=  1.00D-02  STEP    =  1.00D-03
 ORBITAL =  1.00D-05  CIVEC   =  1.00D-05  COEFF   =  1.00D-04  PRINTCI =  5.00D-02  PUNCHCI =  9.90D+01  OPTGRAD =  3.00D-04
 OPTENERG=  1.00D-06  OPTSTEP =  3.00D-04  THRGRAD =  1.00D-10  COMPRESS=  1.00D-11  VARMIN  =  1.00D-07  VARMAX  =  1.00D-03
 THRDOUB =  0.00D+00  THRDIV  =  1.00D-05  THRRED  =  1.00D-07  THRPSP  =  1.00D+00  THRDC   =  1.00D-10  THRCS   =  1.00D-10
 THRNRM  =  1.00D-08  THREQ   =  0.00D+00  THRDE   =  1.00D+00  THRREF  =  1.00D-05  SPARFAC =  1.00D+00  THRDLP  =  1.00D-07
 THRDIA  =  1.00D-10  THRDLS  =  1.00D-07  THRGPS  =  0.00D+00  THRKEX  =  0.00D+00  THRDIS  =  2.00D-01  THRVAR  =  1.00D-10
 THRLOC  =  1.00D-06  THRGAP  =  1.00D-06  THRLOCT = -1.00D+00  THRGAPT = -1.00D+00  THRORB  =  1.00D-06  THRMLTP =  0.00D+00
 THRCPQCI=  1.00D-10  KEXTA   =  0.00D+00  THRCOARS=  0.00D+00  SYMTOL  =  1.00D-06  GRADTOL =  1.00D-06  THROVL  =  1.00D-08
 THRORTH =  1.00D-08  GRID    =  1.00D-06  GRIDMAX =  1.00D-03  DTMAX   =  0.00D+00  THROCCDE=  1.00D-01  THROCCDE=  1.00D-01



 THRESHOLDS:

 ZERO    =  1.00D-22  ONEINT  =  1.00D-22  TWOINT  =  1.00D-22  PREFAC  =  1.00D-14  LOCALI  =  1.00D-09  EORDER  =  1.00D-04
 ENERGY  =  1.00D-12  ETEST   =  0.00D+00  EDENS   =  0.00D+00  THRDEDEF=  1.00D-06  GRADIENT=  1.00D-02  STEP    =  1.00D-03
 ORBITAL =  1.00D-05  CIVEC   =  1.00D-05  COEFF   =  1.00D-04  PRINTCI =  5.00D-02  PUNCHCI =  9.90D+01  OPTGRAD =  1.00D-08
 OPTENERG=  1.00D-06  OPTSTEP =  1.00D-08  THRGRAD =  1.00D-10  COMPRESS=  1.00D-11  VARMIN  =  1.00D-07  VARMAX  =  1.00D-03
 THRDOUB =  0.00D+00  THRDIV  =  1.00D-05  THRRED  =  1.00D-07  THRPSP  =  1.00D+00  THRDC   =  1.00D-10  THRCS   =  1.00D-10
 THRNRM  =  1.00D-08  THREQ   =  0.00D+00  THRDE   =  1.00D+00  THRREF  =  1.00D-05  SPARFAC =  1.00D+00  THRDLP  =  1.00D-07
 THRDIA  =  1.00D-10  THRDLS  =  1.00D-07  THRGPS  =  0.00D+00  THRKEX  =  0.00D+00  THRDIS  =  2.00D-01  THRVAR  =  1.00D-10
 THRLOC  =  1.00D-06  THRGAP  =  1.00D-06  THRLOCT = -1.00D+00  THRGAPT = -1.00D+00  THRORB  =  1.00D-06  THRMLTP =  0.00D+00
 THRCPQCI=  1.00D-10  KEXTA   =  0.00D+00  THRCOARS=  0.00D+00  SYMTOL  =  1.00D-06  GRADTOL =  1.00D-06  THROVL  =  1.00D-08
 THRORTH =  1.00D-08  GRID    =  1.00D-06  GRIDMAX =  1.00D-03  DTMAX   =  0.00D+00  THROCCDE=  1.00D-01  THROCCDE=  1.00D-01



 Input parameters for SORTINT:

 COMPRESS =    0.000000
 C_FINAL  =    1.000000
 DEBUG    =   -1.000000
 C_SORT1  =    0.000000
 C_SEWARD =    0.000000
 THRESH   =    0.000000
 IO       =  molpro                                                          
 SPRI     =    0.000000
 SETTING GEOMTYP        =    XYZ
 ZUNIT=BOHR
 

 Variable memory set to  995000000 words,  buffer space   230000 words

 SETTING BASIS          =    VTZ-DK
 SETTING DKROLL         =     0.00000000D+00                                  


 Recomputing integrals since basis changed


 Using spherical harmonics

 Library entry N      S cc-pVTZ-DK           selected for orbital group  1
 Library entry N      P cc-pVTZ-DK           selected for orbital group  1
 Library entry N      D cc-pVTZ-DK           selected for orbital group  1
 Library entry N      F cc-pVTZ-DK           selected for orbital group  1
 Library entry H      S cc-pVTZ-DK           selected for orbital group  2
 Library entry H      P cc-pVTZ-DK           selected for orbital group  2
 Library entry H      D cc-pVTZ-DK           selected for orbital group  2
 Library entry O      S cc-pVTZ-DK           selected for orbital group  3
 Library entry O      P cc-pVTZ-DK           selected for orbital group  3
 Library entry O      D cc-pVTZ-DK           selected for orbital group  3
 Library entry O      F cc-pVTZ-DK           selected for orbital group  3


 PROGRAM * SEWARD (Integral evaluation for generally contracted gaussian basis sets)     Author: Roland Lindh, 1990

 Geometry written to block  1 of record 700


 Point group  Cs  



 ATOMIC COORDINATES

 NR  ATOM    CHARGE       X              Y              Z

   1  N       7.00    0.000000000   -0.158272758   -1.144718199
   2  H       1.00    0.000000000    1.661171935   -1.922220281
   3  O       8.00    0.000000000    0.038868612    1.116348889

 Bond lengths in Bohr (Angstrom)

 1-2  1.978607712  1-3  2.269645147
     ( 1.047034111)     ( 1.201044489)

 Bond angles

  2-1-3  108.15544917

 NUCLEAR CHARGE:                   16
 NUMBER OF PRIMITIVE AOS:         111
 NUMBER OF SYMMETRY AOS:          100
 NUMBER OF CONTRACTIONS:           74   (  50A'  +  24A"  )
 NUMBER OF CORE ORBITALS:           2   (   2A'  +   0A"  )
 NUMBER OF VALENCE ORBITALS:        9   (   7A'  +   2A"  )


 NUCLEAR REPULSION ENERGY   30.53382636

 Eigenvalues of metric

         1 0.241E-02 0.392E-02 0.406E-02 0.822E-02 0.129E-01 0.322E-01 0.421E-01 0.463E-01
         2 0.339E-01 0.464E-01 0.101E+00 0.110E+00 0.231E+00 0.339E+00 0.392E+00 0.447E+00


 Contracted 2-electron integrals neglected if value below      1.0D-22

        1874283. INTEGRALS WRITTEN OUT IN     458 BLOCKS ON RECORD 1290 OF FILE 1


 NUMBER OF SORTED TWO-ELECTRON INTEGRALS:    2006100.     BUFFER LENGTH:  32768
 NUMBER OF SEGMENTS:   1  SEGMENT LENGTH:    2006100      RECORD LENGTH: 524288

 Memory used in sort:       2.56 MW

 SORT1 READ     1874283. AND WROTE     1914195. INTEGRALS IN      6 RECORDS. CPU TIME:     0.05 SEC, REAL TIME:     0.07 SEC
 SORT2 READ     1914195. AND WROTE     2006100. INTEGRALS IN      1 RECORDS. CPU TIME:     0.04 SEC, REAL TIME:     0.06 SEC

 FILE SIZES:   FILE 1:    50.1 MBYTE,  FILE 4:    25.2 MBYTE,   TOTAL:     75.3 MBYTE

 OPERATOR DM      FOR CENTER  0  COORDINATES:    0.000000    0.000000    0.000000


 **********************************************************************************************************************************
 DATASETS  * FILE   NREC   LENGTH (MB)   RECORD NAMES
              1      19       35.89       500      610      700      900      950      970     1000      129      960     1100   
                                          VAR    BASINP    GEOM    SYMINP    ZMAT    AOBASIS   BASIS     P2S    ABASIS      S 
                                         1400     1410     1200     1210     1080     1600     1650     1300     1700   
                                           T        V       H0       H01     AOSYM     SMH    MOLCAS    ERIS     OPER   

 PROGRAMS   *        TOTAL       INT
 CPU TIMES  *         0.56      0.47
 REAL TIME  *         1.17 SEC
 DISK USED  *        75.59 MB      
 **********************************************************************************************************************************


 PROGRAM * RHF-SCF (CLOSED SHELL)       Authors: W. Meyer, H.-J. Werner


 NUMBER OF ELECTRONS:       8+    8-
 CONVERGENCE THRESHOLDS:    1.00E-10 (Density)    1.00E-13 (Energy)
 MAX. NUMBER OF ITERATIONS:      500
 INTERPOLATION TYPE:            DIIS
 INTERPOLATION STEPS:              2 (START)      1 (STEP)
 LEVEL SHIFTS:                  0.00 (CLOSED)  0.00 (OPEN) 



 Orbital guess generated from atomic densities. Full valence occupancy:    9   2

 Molecular orbital dump at record        2100.2

 Initial occupancy:   7   1

 ITERATION    DDIFF          GRAD             ENERGY        2-EL.EN.            DIPOLE MOMENTS         DIIS   ORB.
    1      0.000D+00      0.000D+00      -129.78250900    154.433285    0.00000    0.59022   -1.01571    0    start
    2      0.000D+00      0.134D-01      -129.80960230    155.591843    0.00000    0.61159   -0.22977    1    diag
    3      0.183D-01      0.100D-01      -129.83041328    155.697947    0.00000    0.56207   -0.59257    2    diag
    4      0.879D-02      0.155D-02      -129.83113953    155.436295    0.00000    0.57073   -0.53398    3    diag
    5      0.166D-02      0.510D-03      -129.83125118    155.521104    0.00000    0.57606   -0.53527    4    diag
    6      0.711D-03      0.151D-03      -129.83126945    155.506521    0.00000    0.57664   -0.53123    5    diag
    7      0.274D-03      0.751D-04      -129.83127470    155.508840    0.00000    0.57787   -0.52882    6    diag
    8      0.188D-03      0.235D-04      -129.83127517    155.508183    0.00000    0.57788   -0.52805    7    diag
    9      0.614D-04      0.426D-05      -129.83127519    155.508074    0.00000    0.57783   -0.52791    8    diag
   10      0.118D-04      0.953D-06      -129.83127519    155.508057    0.00000    0.57780   -0.52788    9    orth
   11      0.273D-05      0.187D-06      -129.83127519    155.508053    0.00000    0.57779   -0.52788    9    diag
   12      0.499D-06      0.383D-07      -129.83127519    155.508052    0.00000    0.57779   -0.52788    9    diag
   13      0.107D-06      0.937D-08      -129.83127519    155.508052    0.00000    0.57779   -0.52788    9    diag
   14      0.264D-07      0.171D-08      -129.83127519    155.508052    0.00000    0.57779   -0.52788    9    diag
   15      0.434D-08      0.449D-09      -129.83127519    155.508052    0.00000    0.57779   -0.52788    9    diag
   16      0.104D-08      0.115D-09      -129.83127519    155.508052    0.00000    0.57779   -0.52788    9    diag
   17      0.197D-09      0.331D-10      -129.83127519    155.508052    0.00000    0.57779   -0.52788    9    diag
   18      0.627D-10      0.110D-10      -129.83127519    155.508052    0.00000    0.57779   -0.52788    9    diag
   19      0.262D-10      0.245D-11      -129.83127519    155.508052    0.00000    0.57779   -0.52788    9    fixocc
   20      0.626D-11      0.453D-12      -129.83127519    155.508052    0.00000    0.57779   -0.52788    0    orth

 Final occupancy:   7   1

 !RHF STATE 1.1 Energy               -129.831275190176
 Nuclear energy                        30.53382636
 One-electron energy                 -238.11912736
 Two-electron energy                   77.75402582
 Virial quotient                       -0.99941096
 !RHF STATE 1.1 Dipole moment           0.00000000     0.57779086    -0.52787693
 Dipole moment /Debye                   0.00000000     1.46850169    -1.34164145

 Orbital energies:

         1.1          2.1          3.1          4.1          5.1          6.1          7.1          8.1          9.1
    -20.647127   -15.705932    -1.531668    -0.990609    -0.745846    -0.663937    -0.425069     0.144800     0.370914

         1.2          2.2          3.2
     -0.595351     0.088891     0.612228

 HOMO      7.1    -0.425069 =     -11.5667eV
 LUMO      2.2     0.088891 =       2.4189eV
 LUMO-HOMO         0.513960 =      13.9856eV


 **********************************************************************************************************************************
 DATASETS  * FILE   NREC   LENGTH (MB)   RECORD NAMES
              1      19       35.89       500      610      700      900      950      970     1000      129      960     1100   
                                          VAR    BASINP    GEOM    SYMINP    ZMAT    AOBASIS   BASIS     P2S    ABASIS      S 
                                         1400     1410     1200     1210     1080     1600     1650     1300     1700   
                                           T        V       H0       H01     AOSYM     SMH    MOLCAS    ERIS     OPER   

              2       4        2.85       700     1000      520     2100   
                                         GEOM     BASIS   MCVARS     RHF  

 PROGRAMS   *        TOTAL        HF       INT
 CPU TIMES  *         0.79      0.24      0.47
 REAL TIME  *         1.44 SEC
 DISK USED  *        75.59 MB      
 **********************************************************************************************************************************


 PROGRAM * CCSD (Closed-shell coupled cluster)     Authors: C. Hampel, H.-J. Werner, 1991, M. Deegan, P.J. Knowles, 1992


 Convergence thresholds:  THRVAR = 1.00D-08  THRDEN = 1.00D-12

 CCSD(T)     terms to be evaluated (factor= 1.000)


 Number of core orbitals:           2 (   2   0 )
 Number of closed-shell orbitals:   6 (   5   1 )
 Number of external orbitals:      66 (  43  23 )

 Molecular orbitals read from record     2100.2  Type=RHF/CANONICAL (state 1.1)

 Number of N-1 electron functions:               6
 Number of N-2 electron functions:              21
 Number of singly external CSFs:               238
 Number of doubly external CSFs:             41002
 Total number of CSFs:                       41241

 Length of J-op  integral file:               0.00 MB
 Length of K-op  integral file:               0.25 MB
 Length of 3-ext integral record:             0.00 MB

 Memory could be reduced to 1.65 Mwords without degradation in triples

 Integral transformation finished. Total CPU:   0.04 sec, npass=  1  Memory used:   0.55 MW

 Reference energy:                   -129.83127519

 MP2 singlet pair energy:              -0.27271968
 MP2 triplet pair energy:              -0.16187737
 MP2 correlation energy:               -0.43459704
 MP2 total energy:                   -130.26587223

 SCS-MP2 correlation energy:           -0.42798731   (PS=  1.200000  PT=  0.333333)
 SCS-MP2 total energy:               -130.25926250

 ITER.      SQ.NORM     CORR.ENERGY   TOTAL ENERGY   ENERGY CHANGE        DEN1      VAR(S)    VAR(P)  DIIS     TIME  TIME/IT
   1      1.11749425    -0.44000766  -130.27128285    -0.00541062     0.01002073  0.28D-02  0.29D-02  1  1     0.10     0.05
   2      1.12812734    -0.44032201  -130.27159720    -0.00031435    -0.01207376  0.84D-04  0.49D-03  2  2     0.15     0.05
   3      1.13422463    -0.44069303  -130.27196822    -0.00037102    -0.00291673  0.44D-04  0.49D-04  3  3     0.20     0.05
   4      1.13693369    -0.44071937  -130.27199456    -0.00002634    -0.00093154  0.37D-05  0.86D-05  4  4     0.25     0.05
   5      1.13787942    -0.44074714  -130.27202233    -0.00002777    -0.00019575  0.13D-05  0.17D-05  5  5     0.29     0.05
   6      1.13822489    -0.44073157  -130.27200676     0.00001557    -0.00003904  0.91D-07  0.41D-06  6  6     0.34     0.05
   7      1.13830932    -0.44073358  -130.27200877    -0.00000200    -0.00000225  0.11D-07  0.85D-07  6  1     0.39     0.05
   8      1.13833915    -0.44073365  -130.27200884    -0.00000007     0.00000199  0.45D-08  0.96D-08  6  2     0.45     0.05
   9      1.13834644    -0.44073349  -130.27200868     0.00000016    -0.00000226  0.24D-08  0.11D-08  6  3     0.49     0.05
  10      1.13834519    -0.44073397  -130.27200916    -0.00000048     0.00000063  0.47D-09  0.19D-09  6  4     0.54     0.05
  11      1.13834353    -0.44073403  -130.27200922    -0.00000006     0.00000017  0.14D-09  0.21D-10  6  5     0.59     0.05
  12      1.13834219    -0.44073419  -130.27200938    -0.00000017     0.00000041  0.14D-10  0.69D-11  6  6     0.63     0.05
  13      1.13834162    -0.44073420  -130.27200939    -0.00000001     0.00000012  0.62D-11  0.11D-11  6  1     0.68     0.05
  14      1.13834126    -0.44073422  -130.27200941    -0.00000002     0.00000007  0.86D-12  0.40D-12  6  2     0.73     0.05
  15      1.13834113    -0.44073422  -130.27200941    -0.00000000     0.00000001  0.21D-12  0.13D-12  6  3     0.77     0.05
  16      1.13834104    -0.44073422  -130.27200941    -0.00000000     0.00000001  0.23D-13  0.15D-13  6  5     0.81     0.05
  17      1.13834102    -0.44073422  -130.27200941    -0.00000000     0.00000000  0.77D-15  0.22D-14  6  4     0.85     0.05
  18      1.13834102    -0.44073422  -130.27200941     0.00000000    -0.00000000  0.49D-15  0.31D-15  6  1     0.90     0.05
  19      1.13834101    -0.44073422  -130.27200941    -0.00000000     0.00000000  0.44D-16  0.55D-16  6  6     0.95     0.05
  20      1.13834101    -0.44073422  -130.27200941    -0.00000000     0.00000000  0.93D-17  0.13D-16  6  2     1.00     0.05
  21      1.13834101    -0.44073422  -130.27200941    -0.00000000     0.00000000  0.17D-17  0.98D-18  6  5     1.04     0.05
  22      1.13834101    -0.44073422  -130.27200941     0.00000000     0.00000000  0.10D-18  0.75D-19  6  3     1.10     0.05
  23      1.13834101    -0.44073422  -130.27200941     0.00000000    -0.00000000  0.30D-19  0.16D-19  6  4     1.15     0.05
  24      1.13834101    -0.44073422  -130.27200941     0.00000000    -0.00000000  0.44D-20  0.46D-20  6  1     1.19     0.05
  25      1.13834101    -0.44073422  -130.27200941     0.00000000    -0.00000000  0.49D-21  0.79D-21  6  6     1.23     0.05

 Norm of t1 vector:      0.07363748      S-energy:     0.00000000      T1 diagnostic:  0.01503119
                                                                       D1 diagnostic:  0.04153432

 Doubles amplitudes (print threshold =  0.500E-01):

         I         J         SYM. A    SYM. B    A         B      T(IJ, AB)

         6         6         2         2         1         1     -0.14189455


 Total CPU time for triples:      0.34 sec


 RESULTS
 =======

  Reference energy                   -129.831275190176
  CCSD singlet pair energy             -0.302003007041
  CCSD triplet pair energy             -0.138731215885
  CCSD correlation energy              -0.440734222926

  Triples (T) contribution             -0.019525943512
  Total correlation energy             -0.460260166438

  CCSD total energy                  -130.272009413102
  CCSD[T] energy                     -130.292517633134
  CCSD-T energy                      -130.291147405698
 !CCSD(T) total energy               -130.291535356614

 Timing summary (sec):

 STEP                 CPU(USER)    SYS     CPU(TOT)    WALL
 Transformation          0.04      0.00      0.04      0.05
 CCSD iterations         1.19      0.13      1.32      1.32
 Triples                 0.34      0.01      0.35      0.35

 Program statistics:

 Available memory in ccsd:               994999756
 Min. memory needed in ccsd:                154850
 Max. memory used in ccsd:                  184802
 Max. memory used in cckext:                238416 (25 integral passes)



 **********************************************************************************************************************************
 DATASETS  * FILE   NREC   LENGTH (MB)   RECORD NAMES
              1      20       40.28       500      610      700      900      950      970     1000      129      960     1100   
                                          VAR    BASINP    GEOM    SYMINP    ZMAT    AOBASIS   BASIS     P2S    ABASIS      S 
                                         1400     1410     1200     1210     1080     1600     1650     1300     1700     1380   
                                           T        V       H0       H01     AOSYM     SMH    MOLCAS    ERIS     OPER     JKOP   

              2       4        2.85       700     1000      520     2100   
                                         GEOM     BASIS   MCVARS     RHF  

 PROGRAMS   *        TOTAL   CCSD(T)        HF       INT
 CPU TIMES  *         2.39      1.59      0.24      0.47
 REAL TIME  *         3.20 SEC
 DISK USED  *        75.59 MB      
 **********************************************************************************************************************************

 CCSD(T)/cc-pVTZ-DK energy=   -130.291535356614

        CCSD(T)         HF-SCF  
   -130.29153536   -129.83127519
 **********************************************************************************************************************************
 Molpro calculation terminated
 Variable memory released
