
 Primary working directories    : /tmp/r2666/235133.maple
 Secondary working directories  : /tmp/r2666/235133.maple
 Wavefunction directory         : /ddn/home4/r2666/wfu/
 Main file repository           : /tmp/r2666/235133.maple/

 SHA1      : d5ffa45e93fdbca01ffc919aa182cfdae0147319
 NAME      : 2015.1.35
 ARCHNAME  : linux/x86_64
 FC        : /opt/intel/composer_xe_2015.1.133/bin/intel64/ifort
 BLASLIB   : -Wl,-_start-group /opt/intel/mkl/lib/intel64/libmkl_intel_ilp64.a /opt/intel/mkl/lib/intel64/libmkl_intel_thread.a /opt/intel/mkl/lib/intel64/libmkl_core.a -Wl,-_end-group
 id        : olemiss

 Nodes     nprocs
 cn089        1

 Using customized tuning parameters: mindgm=1; mindgv=20; mindgc=4; mindgr=1; noblas=0; minvec=7
 default implementation of scratch files=df  

 ***,hno CCSD(T)/TZ-F12 QFF
 memory, 995, m;
 gthresh,energy=1.d-12,zero=1.d-22,oneint=1.d-22,twoint=1.d-22;
 gthresh,optgrad=1.d-8,optstep=1.d-8;
 nocompress;
 geomtyp=xyz
 bohr
 geometry={
 3
        118       118
 N        0.0000000000       -0.1747064527       -1.1498217351
 H        0.0000000000        1.6756440532       -1.9270384139
 O        0.0000000000        0.0408301894        1.1262705579
 }
 
 basis=vtz-dk
 dkroll=0
   {hf,maxit=500;accu,20;}
 {ccsd(t),nocheck,maxit=250;orbital,IGNORE_ERROR;}

 Variables initialized (889), CPU time= 0.00 sec
 Commands  initialized (702), CPU time= 0.01 sec, 572 directives.
 Default parameters read. Elapsed time= 0.09 sec

 Checking input...
 Passed
1


                                         ***  PROGRAM SYSTEM MOLPRO  ***
                                       Copyright, TTI GmbH Stuttgart, 2015
                                    Version 2015.1 linked Jul  9 2018 13:16:40


 **********************************************************************************************************************************
 LABEL *   hno CCSD(T)/TZ-F12 QFF                                                        
  64 bit serial version                                                                  DATE: 08-Feb-20          TIME: 17:57:12  
 **********************************************************************************************************************************

 SHA1:             d5ffa45e93fdbca01ffc919aa182cfdae0147319
 **********************************************************************************************************************************

 THRESHOLDS:

 ZERO    =  1.00D-22  ONEINT  =  1.00D-22  TWOINT  =  1.00D-22  PREFAC  =  1.00D-14  LOCALI  =  1.00D-09  EORDER  =  1.00D-04
 ENERGY  =  1.00D-12  ETEST   =  0.00D+00  EDENS   =  0.00D+00  THRDEDEF=  1.00D-06  GRADIENT=  1.00D-02  STEP    =  1.00D-03
 ORBITAL =  1.00D-05  CIVEC   =  1.00D-05  COEFF   =  1.00D-04  PRINTCI =  5.00D-02  PUNCHCI =  9.90D+01  OPTGRAD =  3.00D-04
 OPTENERG=  1.00D-06  OPTSTEP =  3.00D-04  THRGRAD =  1.00D-10  COMPRESS=  1.00D-11  VARMIN  =  1.00D-07  VARMAX  =  1.00D-03
 THRDOUB =  0.00D+00  THRDIV  =  1.00D-05  THRRED  =  1.00D-07  THRPSP  =  1.00D+00  THRDC   =  1.00D-10  THRCS   =  1.00D-10
 THRNRM  =  1.00D-08  THREQ   =  0.00D+00  THRDE   =  1.00D+00  THRREF  =  1.00D-05  SPARFAC =  1.00D+00  THRDLP  =  1.00D-07
 THRDIA  =  1.00D-10  THRDLS  =  1.00D-07  THRGPS  =  0.00D+00  THRKEX  =  0.00D+00  THRDIS  =  2.00D-01  THRVAR  =  1.00D-10
 THRLOC  =  1.00D-06  THRGAP  =  1.00D-06  THRLOCT = -1.00D+00  THRGAPT = -1.00D+00  THRORB  =  1.00D-06  THRMLTP =  0.00D+00
 THRCPQCI=  1.00D-10  KEXTA   =  0.00D+00  THRCOARS=  0.00D+00  SYMTOL  =  1.00D-06  GRADTOL =  1.00D-06  THROVL  =  1.00D-08
 THRORTH =  1.00D-08  GRID    =  1.00D-06  GRIDMAX =  1.00D-03  DTMAX   =  0.00D+00  THROCCDE=  1.00D-01  THROCCDE=  1.00D-01



 THRESHOLDS:

 ZERO    =  1.00D-22  ONEINT  =  1.00D-22  TWOINT  =  1.00D-22  PREFAC  =  1.00D-14  LOCALI  =  1.00D-09  EORDER  =  1.00D-04
 ENERGY  =  1.00D-12  ETEST   =  0.00D+00  EDENS   =  0.00D+00  THRDEDEF=  1.00D-06  GRADIENT=  1.00D-02  STEP    =  1.00D-03
 ORBITAL =  1.00D-05  CIVEC   =  1.00D-05  COEFF   =  1.00D-04  PRINTCI =  5.00D-02  PUNCHCI =  9.90D+01  OPTGRAD =  1.00D-08
 OPTENERG=  1.00D-06  OPTSTEP =  1.00D-08  THRGRAD =  1.00D-10  COMPRESS=  1.00D-11  VARMIN  =  1.00D-07  VARMAX  =  1.00D-03
 THRDOUB =  0.00D+00  THRDIV  =  1.00D-05  THRRED  =  1.00D-07  THRPSP  =  1.00D+00  THRDC   =  1.00D-10  THRCS   =  1.00D-10
 THRNRM  =  1.00D-08  THREQ   =  0.00D+00  THRDE   =  1.00D+00  THRREF  =  1.00D-05  SPARFAC =  1.00D+00  THRDLP  =  1.00D-07
 THRDIA  =  1.00D-10  THRDLS  =  1.00D-07  THRGPS  =  0.00D+00  THRKEX  =  0.00D+00  THRDIS  =  2.00D-01  THRVAR  =  1.00D-10
 THRLOC  =  1.00D-06  THRGAP  =  1.00D-06  THRLOCT = -1.00D+00  THRGAPT = -1.00D+00  THRORB  =  1.00D-06  THRMLTP =  0.00D+00
 THRCPQCI=  1.00D-10  KEXTA   =  0.00D+00  THRCOARS=  0.00D+00  SYMTOL  =  1.00D-06  GRADTOL =  1.00D-06  THROVL  =  1.00D-08
 THRORTH =  1.00D-08  GRID    =  1.00D-06  GRIDMAX =  1.00D-03  DTMAX   =  0.00D+00  THROCCDE=  1.00D-01  THROCCDE=  1.00D-01



 Input parameters for SORTINT:

 COMPRESS =    0.000000
 C_FINAL  =    1.000000
 DEBUG    =   -1.000000
 C_SORT1  =    0.000000
 C_SEWARD =    0.000000
 THRESH   =    0.000000
 IO       =  molpro                                                          
 SPRI     =    0.000000
 SETTING GEOMTYP        =    XYZ
 ZUNIT=BOHR
 

 Variable memory set to  995000000 words,  buffer space   230000 words

 SETTING BASIS          =    VTZ-DK
 SETTING DKROLL         =     0.00000000D+00                                  


 Recomputing integrals since basis changed


 Using spherical harmonics

 Library entry N      S cc-pVTZ-DK           selected for orbital group  1
 Library entry N      P cc-pVTZ-DK           selected for orbital group  1
 Library entry N      D cc-pVTZ-DK           selected for orbital group  1
 Library entry N      F cc-pVTZ-DK           selected for orbital group  1
 Library entry H      S cc-pVTZ-DK           selected for orbital group  2
 Library entry H      P cc-pVTZ-DK           selected for orbital group  2
 Library entry H      D cc-pVTZ-DK           selected for orbital group  2
 Library entry O      S cc-pVTZ-DK           selected for orbital group  3
 Library entry O      P cc-pVTZ-DK           selected for orbital group  3
 Library entry O      D cc-pVTZ-DK           selected for orbital group  3
 Library entry O      F cc-pVTZ-DK           selected for orbital group  3


 PROGRAM * SEWARD (Integral evaluation for generally contracted gaussian basis sets)     Author: Roland Lindh, 1990

 Geometry written to block  1 of record 700


 Point group  Cs  



 ATOMIC COORDINATES

 NR  ATOM    CHARGE       X              Y              Z

   1  N       7.00    0.000000000   -0.174706453   -1.149821735
   2  H       1.00    0.000000000    1.675644053   -1.927038414
   3  O       8.00    0.000000000    0.040830189    1.126270558

 Bond lengths in Bohr (Angstrom)

 1-2  2.006953602  1-3  2.286274736
     ( 1.062034110)     ( 1.209844488)

 Bond angles

  2-1-3  107.37468913

 NUCLEAR CHARGE:                   16
 NUMBER OF PRIMITIVE AOS:         111
 NUMBER OF SYMMETRY AOS:          100
 NUMBER OF CONTRACTIONS:           74   (  50A'  +  24A"  )
 NUMBER OF CORE ORBITALS:           2   (   2A'  +   0A"  )
 NUMBER OF VALENCE ORBITALS:        9   (   7A'  +   2A"  )


 NUCLEAR REPULSION ENERGY   30.29171981

 Eigenvalues of metric

         1 0.249E-02 0.402E-02 0.419E-02 0.853E-02 0.132E-01 0.330E-01 0.427E-01 0.465E-01
         2 0.344E-01 0.466E-01 0.102E+00 0.115E+00 0.236E+00 0.345E+00 0.398E+00 0.451E+00


 Contracted 2-electron integrals neglected if value below      1.0D-22

        1874283. INTEGRALS WRITTEN OUT IN     458 BLOCKS ON RECORD 1290 OF FILE 1


 NUMBER OF SORTED TWO-ELECTRON INTEGRALS:    2006100.     BUFFER LENGTH:  32768
 NUMBER OF SEGMENTS:   1  SEGMENT LENGTH:    2006100      RECORD LENGTH: 524288

 Memory used in sort:       2.56 MW

 SORT1 READ     1874283. AND WROTE     1914195. INTEGRALS IN      6 RECORDS. CPU TIME:     0.03 SEC, REAL TIME:     0.05 SEC
 SORT2 READ     1914195. AND WROTE     2006100. INTEGRALS IN      1 RECORDS. CPU TIME:     0.04 SEC, REAL TIME:     0.05 SEC

 FILE SIZES:   FILE 1:    50.1 MBYTE,  FILE 4:    25.2 MBYTE,   TOTAL:     75.3 MBYTE

 OPERATOR DM      FOR CENTER  0  COORDINATES:    0.000000    0.000000    0.000000


 **********************************************************************************************************************************
 DATASETS  * FILE   NREC   LENGTH (MB)   RECORD NAMES
              1      19       35.89       500      610      700      900      950      970     1000      129      960     1100   
                                          VAR    BASINP    GEOM    SYMINP    ZMAT    AOBASIS   BASIS     P2S    ABASIS      S 
                                         1400     1410     1200     1210     1080     1600     1650     1300     1700   
                                           T        V       H0       H01     AOSYM     SMH    MOLCAS    ERIS     OPER   

 PROGRAMS   *        TOTAL       INT
 CPU TIMES  *         0.63      0.53
 REAL TIME  *         1.37 SEC
 DISK USED  *        75.59 MB      
 **********************************************************************************************************************************


 PROGRAM * RHF-SCF (CLOSED SHELL)       Authors: W. Meyer, H.-J. Werner


 NUMBER OF ELECTRONS:       8+    8-
 CONVERGENCE THRESHOLDS:    1.00E-10 (Density)    1.00E-13 (Energy)
 MAX. NUMBER OF ITERATIONS:      500
 INTERPOLATION TYPE:            DIIS
 INTERPOLATION STEPS:              2 (START)      1 (STEP)
 LEVEL SHIFTS:                  0.00 (CLOSED)  0.00 (OPEN) 



 Orbital guess generated from atomic densities. Full valence occupancy:    9   2

 Molecular orbital dump at record        2100.2

 Initial occupancy:   7   1

 ITERATION    DDIFF          GRAD             ENERGY        2-EL.EN.            DIPOLE MOMENTS         DIIS   ORB.
    1      0.000D+00      0.000D+00      -129.77876330    153.990714    0.00000    0.57757   -1.04373    0    start
    2      0.000D+00      0.137D-01      -129.80562277    155.147453    0.00000    0.61627   -0.21600    1    diag
    3      0.187D-01      0.105D-01      -129.82857987    155.267838    0.00000    0.55791   -0.60031    2    diag
    4      0.913D-02      0.156D-02      -129.82932400    154.998392    0.00000    0.56663   -0.54051    3    diag
    5      0.166D-02      0.521D-03      -129.82944195    155.084806    0.00000    0.57209   -0.54159    4    diag
    6      0.727D-03      0.156D-03      -129.82946154    155.069831    0.00000    0.57260   -0.53731    5    diag
    7      0.283D-03      0.780D-04      -129.82946730    155.072112    0.00000    0.57385   -0.53476    6    diag
    8      0.195D-03      0.252D-04      -129.82946786    155.071398    0.00000    0.57386   -0.53393    7    diag
    9      0.670D-04      0.460D-05      -129.82946788    155.071277    0.00000    0.57381   -0.53377    8    diag
   10      0.130D-04      0.100D-05      -129.82946788    155.071260    0.00000    0.57377   -0.53375    9    orth
   11      0.283D-05      0.198D-06      -129.82946788    155.071255    0.00000    0.57377   -0.53374    9    diag
   12      0.519D-06      0.417D-07      -129.82946788    155.071254    0.00000    0.57376   -0.53374    9    diag
   13      0.116D-06      0.105D-07      -129.82946788    155.071254    0.00000    0.57376   -0.53374    9    diag
   14      0.291D-07      0.187D-08      -129.82946788    155.071253    0.00000    0.57376   -0.53374    9    diag
   15      0.456D-08      0.480D-09      -129.82946788    155.071253    0.00000    0.57376   -0.53374    9    diag
   16      0.109D-08      0.115D-09      -129.82946788    155.071253    0.00000    0.57376   -0.53374    9    diag
   17      0.186D-09      0.327D-10      -129.82946788    155.071253    0.00000    0.57376   -0.53374    9    diag
   18      0.564D-10      0.109D-10      -129.82946788    155.071253    0.00000    0.57376   -0.53374    0    orth

 Final occupancy:   7   1

 !RHF STATE 1.1 Energy               -129.829467880343
 Nuclear energy                        30.29171981
 One-electron energy                 -237.65681441
 Two-electron energy                   77.53562672
 Virial quotient                       -0.99981467
 !RHF STATE 1.1 Dipole moment           0.00000000     0.57376356    -0.53374029
 Dipole moment /Debye                   0.00000000     1.45826598    -1.35654365

 Orbital energies:

         1.1          2.1          3.1          4.1          5.1          6.1          7.1          8.1          9.1
    -20.648108   -15.709671    -1.524706    -0.988482    -0.741581    -0.661299    -0.427407     0.143469     0.369724

         1.2          2.2          3.2
     -0.591526     0.085664     0.613083

 HOMO      7.1    -0.427407 =     -11.6303eV
 LUMO      2.2     0.085664 =       2.3310eV
 LUMO-HOMO         0.513071 =      13.9614eV


 **********************************************************************************************************************************
 DATASETS  * FILE   NREC   LENGTH (MB)   RECORD NAMES
              1      19       35.89       500      610      700      900      950      970     1000      129      960     1100   
                                          VAR    BASINP    GEOM    SYMINP    ZMAT    AOBASIS   BASIS     P2S    ABASIS      S 
                                         1400     1410     1200     1210     1080     1600     1650     1300     1700   
                                           T        V       H0       H01     AOSYM     SMH    MOLCAS    ERIS     OPER   

              2       4        2.85       700     1000      520     2100   
                                         GEOM     BASIS   MCVARS     RHF  

 PROGRAMS   *        TOTAL        HF       INT
 CPU TIMES  *         0.82      0.19      0.53
 REAL TIME  *         1.61 SEC
 DISK USED  *        75.59 MB      
 **********************************************************************************************************************************


 PROGRAM * CCSD (Closed-shell coupled cluster)     Authors: C. Hampel, H.-J. Werner, 1991, M. Deegan, P.J. Knowles, 1992


 Convergence thresholds:  THRVAR = 1.00D-08  THRDEN = 1.00D-12

 CCSD(T)     terms to be evaluated (factor= 1.000)


 Number of core orbitals:           2 (   2   0 )
 Number of closed-shell orbitals:   6 (   5   1 )
 Number of external orbitals:      66 (  43  23 )

 Molecular orbitals read from record     2100.2  Type=RHF/CANONICAL (state 1.1)

 Number of N-1 electron functions:               6
 Number of N-2 electron functions:              21
 Number of singly external CSFs:               238
 Number of doubly external CSFs:             41002
 Total number of CSFs:                       41241

 Length of J-op  integral file:               0.00 MB
 Length of K-op  integral file:               0.25 MB
 Length of 3-ext integral record:             0.00 MB

 Memory could be reduced to 1.65 Mwords without degradation in triples

 Integral transformation finished. Total CPU:   0.03 sec, npass=  1  Memory used:   0.55 MW

 Reference energy:                   -129.82946788

 MP2 singlet pair energy:              -0.27400354
 MP2 triplet pair energy:              -0.16268567
 MP2 correlation energy:               -0.43668920
 MP2 total energy:                   -130.26615708

 SCS-MP2 correlation energy:           -0.43003088   (PS=  1.200000  PT=  0.333333)
 SCS-MP2 total energy:               -130.25949876

 ITER.      SQ.NORM     CORR.ENERGY   TOTAL ENERGY   ENERGY CHANGE        DEN1      VAR(S)    VAR(P)  DIIS     TIME  TIME/IT
   1      1.11893920    -0.44173352  -130.27120140    -0.00504432     0.01086345  0.30D-02  0.30D-02  1  1     0.07     0.04
   2      1.12987691    -0.44197903  -130.27144691    -0.00024551    -0.01235689  0.90D-04  0.51D-03  2  2     0.11     0.04
   3      1.13624211    -0.44237273  -130.27184061    -0.00039370    -0.00301106  0.48D-04  0.51D-04  3  3     0.13     0.04
   4      1.13907853    -0.44239864  -130.27186652    -0.00002591    -0.00096858  0.41D-05  0.89D-05  4  4     0.17     0.04
   5      1.14008976    -0.44242888  -130.27189676    -0.00003024    -0.00020975  0.14D-05  0.16D-05  5  5     0.20     0.04
   6      1.14045142    -0.44241199  -130.27187987     0.00001688    -0.00004128  0.10D-06  0.40D-06  6  6     0.23     0.04
   7      1.14053673    -0.44241388  -130.27188176    -0.00000189    -0.00000203  0.13D-07  0.85D-07  6  1     0.27     0.04
   8      1.14056757    -0.44241380  -130.27188168     0.00000009     0.00000179  0.41D-08  0.11D-07  6  2     0.31     0.04
   9      1.14057551    -0.44241357  -130.27188145     0.00000022    -0.00000223  0.24D-08  0.12D-08  6  3     0.35     0.04
  10      1.14057434    -0.44241408  -130.27188196    -0.00000051     0.00000060  0.47D-09  0.21D-09  6  4     0.39     0.04
  11      1.14057261    -0.44241414  -130.27188202    -0.00000006     0.00000019  0.15D-09  0.23D-10  6  5     0.43     0.04
  12      1.14057121    -0.44241432  -130.27188220    -0.00000018     0.00000043  0.15D-10  0.76D-11  6  6     0.47     0.04
  13      1.14057060    -0.44241432  -130.27188220    -0.00000001     0.00000012  0.67D-11  0.12D-11  6  1     0.51     0.04
  14      1.14057020    -0.44241434  -130.27188222    -0.00000002     0.00000008  0.96D-12  0.42D-12  6  2     0.54     0.04
  15      1.14057006    -0.44241434  -130.27188222    -0.00000000     0.00000001  0.25D-12  0.13D-12  6  3     0.58     0.04
  16      1.14056996    -0.44241435  -130.27188223    -0.00000000     0.00000001  0.25D-13  0.15D-13  6  5     0.62     0.04
  17      1.14056993    -0.44241435  -130.27188223    -0.00000000     0.00000000  0.55D-15  0.18D-14  6  4     0.65     0.04
  18      1.14056993    -0.44241435  -130.27188223     0.00000000    -0.00000000  0.41D-15  0.26D-15  6  1     0.68     0.04
  19      1.14056992    -0.44241435  -130.27188223    -0.00000000     0.00000000  0.40D-16  0.47D-16  6  6     0.71     0.04
  20      1.14056992    -0.44241435  -130.27188223    -0.00000000     0.00000000  0.92D-17  0.12D-16  6  2     0.74     0.04
  21      1.14056992    -0.44241435  -130.27188223    -0.00000000     0.00000000  0.16D-17  0.99D-18  6  5     0.78     0.04
  22      1.14056992    -0.44241435  -130.27188223    -0.00000000     0.00000000  0.90D-19  0.75D-19  6  3     0.82     0.04
  23      1.14056992    -0.44241435  -130.27188223     0.00000000    -0.00000000  0.25D-19  0.16D-19  6  4     0.85     0.04
  24      1.14056992    -0.44241435  -130.27188223     0.00000000    -0.00000000  0.37D-20  0.41D-20  6  1     0.88     0.04
  25      1.14056992    -0.44241435  -130.27188223     0.00000000    -0.00000000  0.56D-21  0.69D-21  6  6     0.92     0.04

 Norm of t1 vector:      0.07558200      S-energy:     0.00000000      T1 diagnostic:  0.01542811
                                                                       D1 diagnostic:  0.04263950

 Doubles amplitudes (print threshold =  0.500E-01):

         I         J         SYM. A    SYM. B    A         B      T(IJ, AB)

         6         6         2         2         1         1     -0.14416113


 Total CPU time for triples:      0.23 sec


 RESULTS
 =======

  Reference energy                   -129.829467880343
  CCSD singlet pair energy             -0.303460694188
  CCSD triplet pair energy             -0.138953653670
  CCSD correlation energy              -0.442414347856

  Triples (T) contribution             -0.019878932161
  Total correlation energy             -0.462293280017

  CCSD total energy                  -130.271882228199
  CCSD[T] energy                     -130.292792058149
  CCSD-T energy                      -130.291358884466
 !CCSD(T) total energy               -130.291761160360

 Timing summary (sec):

 STEP                 CPU(USER)    SYS     CPU(TOT)    WALL
 Transformation          0.03      0.01      0.04      0.05
 CCSD iterations         0.89      0.15      1.04      1.05
 Triples                 0.23      0.00      0.23      0.23

 Program statistics:

 Available memory in ccsd:               994999756
 Min. memory needed in ccsd:                154850
 Max. memory used in ccsd:                  184802
 Max. memory used in cckext:                238416 (25 integral passes)



 **********************************************************************************************************************************
 DATASETS  * FILE   NREC   LENGTH (MB)   RECORD NAMES
              1      20       40.28       500      610      700      900      950      970     1000      129      960     1100   
                                          VAR    BASINP    GEOM    SYMINP    ZMAT    AOBASIS   BASIS     P2S    ABASIS      S 
                                         1400     1410     1200     1210     1080     1600     1650     1300     1700     1380   
                                           T        V       H0       H01     AOSYM     SMH    MOLCAS    ERIS     OPER     JKOP   

              2       4        2.85       700     1000      520     2100   
                                         GEOM     BASIS   MCVARS     RHF  

 PROGRAMS   *        TOTAL   CCSD(T)        HF       INT
 CPU TIMES  *         1.99      1.17      0.19      0.53
 REAL TIME  *         2.97 SEC
 DISK USED  *        75.59 MB      
 **********************************************************************************************************************************

 CCSD(T)/cc-pVTZ-DK energy=   -130.291761160360

        CCSD(T)         HF-SCF  
   -130.29176116   -129.82946788
 **********************************************************************************************************************************
 Molpro calculation terminated
 Variable memory released
