
 Primary working directories    : /tmp/r2666/235071.maple
 Secondary working directories  : /tmp/r2666/235071.maple
 Wavefunction directory         : /ddn/home4/r2666/wfu/
 Main file repository           : /tmp/r2666/235071.maple/

 SHA1      : d5ffa45e93fdbca01ffc919aa182cfdae0147319
 NAME      : 2015.1.35
 ARCHNAME  : linux/x86_64
 FC        : /opt/intel/composer_xe_2015.1.133/bin/intel64/ifort
 BLASLIB   : -Wl,-_start-group /opt/intel/mkl/lib/intel64/libmkl_intel_ilp64.a /opt/intel/mkl/lib/intel64/libmkl_intel_thread.a /opt/intel/mkl/lib/intel64/libmkl_core.a -Wl,-_end-group
 id        : olemiss

 Nodes     nprocs
 cn034        1

 Using customized tuning parameters: mindgm=1; mindgv=20; mindgc=4; mindgr=1; noblas=0; minvec=7
 default implementation of scratch files=df  

 ***,hno CCSD(T)/TZ-F12 QFF
 memory, 995, m;
 gthresh,energy=1.d-12,zero=1.d-22,oneint=1.d-22,twoint=1.d-22;
 gthresh,optgrad=1.d-8,optstep=1.d-8;
 nocompress;
 geomtyp=xyz
 bohr
 geometry={
 3
         56        56
 N        0.0000000000       -0.1565358243       -1.1339387034
 H        0.0000000000        1.6649771753       -1.9304676807
 O        0.0000000000        0.0333264390        1.1138167931
 }
 
 basis=vtz-dk
 dkroll=0
   {hf,maxit=500;accu,20;}
 {ccsd(t),nocheck,maxit=250;orbital,IGNORE_ERROR;}

 Variables initialized (889), CPU time= 0.00 sec
 Commands  initialized (702), CPU time= 0.01 sec, 572 directives.
 Default parameters read. Elapsed time= 0.08 sec

 Checking input...
 Passed
1


                                         ***  PROGRAM SYSTEM MOLPRO  ***
                                       Copyright, TTI GmbH Stuttgart, 2015
                                    Version 2015.1 linked Jul  9 2018 13:16:40


 **********************************************************************************************************************************
 LABEL *   hno CCSD(T)/TZ-F12 QFF                                                        
  64 bit serial version                                                                  DATE: 08-Feb-20          TIME: 17:57:05  
 **********************************************************************************************************************************

 SHA1:             d5ffa45e93fdbca01ffc919aa182cfdae0147319
 **********************************************************************************************************************************

 THRESHOLDS:

 ZERO    =  1.00D-22  ONEINT  =  1.00D-22  TWOINT  =  1.00D-22  PREFAC  =  1.00D-14  LOCALI  =  1.00D-09  EORDER  =  1.00D-04
 ENERGY  =  1.00D-12  ETEST   =  0.00D+00  EDENS   =  0.00D+00  THRDEDEF=  1.00D-06  GRADIENT=  1.00D-02  STEP    =  1.00D-03
 ORBITAL =  1.00D-05  CIVEC   =  1.00D-05  COEFF   =  1.00D-04  PRINTCI =  5.00D-02  PUNCHCI =  9.90D+01  OPTGRAD =  3.00D-04
 OPTENERG=  1.00D-06  OPTSTEP =  3.00D-04  THRGRAD =  1.00D-10  COMPRESS=  1.00D-11  VARMIN  =  1.00D-07  VARMAX  =  1.00D-03
 THRDOUB =  0.00D+00  THRDIV  =  1.00D-05  THRRED  =  1.00D-07  THRPSP  =  1.00D+00  THRDC   =  1.00D-10  THRCS   =  1.00D-10
 THRNRM  =  1.00D-08  THREQ   =  0.00D+00  THRDE   =  1.00D+00  THRREF  =  1.00D-05  SPARFAC =  1.00D+00  THRDLP  =  1.00D-07
 THRDIA  =  1.00D-10  THRDLS  =  1.00D-07  THRGPS  =  0.00D+00  THRKEX  =  0.00D+00  THRDIS  =  2.00D-01  THRVAR  =  1.00D-10
 THRLOC  =  1.00D-06  THRGAP  =  1.00D-06  THRLOCT = -1.00D+00  THRGAPT = -1.00D+00  THRORB  =  1.00D-06  THRMLTP =  0.00D+00
 THRCPQCI=  1.00D-10  KEXTA   =  0.00D+00  THRCOARS=  0.00D+00  SYMTOL  =  1.00D-06  GRADTOL =  1.00D-06  THROVL  =  1.00D-08
 THRORTH =  1.00D-08  GRID    =  1.00D-06  GRIDMAX =  1.00D-03  DTMAX   =  0.00D+00  THROCCDE=  1.00D-01  THROCCDE=  1.00D-01



 THRESHOLDS:

 ZERO    =  1.00D-22  ONEINT  =  1.00D-22  TWOINT  =  1.00D-22  PREFAC  =  1.00D-14  LOCALI  =  1.00D-09  EORDER  =  1.00D-04
 ENERGY  =  1.00D-12  ETEST   =  0.00D+00  EDENS   =  0.00D+00  THRDEDEF=  1.00D-06  GRADIENT=  1.00D-02  STEP    =  1.00D-03
 ORBITAL =  1.00D-05  CIVEC   =  1.00D-05  COEFF   =  1.00D-04  PRINTCI =  5.00D-02  PUNCHCI =  9.90D+01  OPTGRAD =  1.00D-08
 OPTENERG=  1.00D-06  OPTSTEP =  1.00D-08  THRGRAD =  1.00D-10  COMPRESS=  1.00D-11  VARMIN  =  1.00D-07  VARMAX  =  1.00D-03
 THRDOUB =  0.00D+00  THRDIV  =  1.00D-05  THRRED  =  1.00D-07  THRPSP  =  1.00D+00  THRDC   =  1.00D-10  THRCS   =  1.00D-10
 THRNRM  =  1.00D-08  THREQ   =  0.00D+00  THRDE   =  1.00D+00  THRREF  =  1.00D-05  SPARFAC =  1.00D+00  THRDLP  =  1.00D-07
 THRDIA  =  1.00D-10  THRDLS  =  1.00D-07  THRGPS  =  0.00D+00  THRKEX  =  0.00D+00  THRDIS  =  2.00D-01  THRVAR  =  1.00D-10
 THRLOC  =  1.00D-06  THRGAP  =  1.00D-06  THRLOCT = -1.00D+00  THRGAPT = -1.00D+00  THRORB  =  1.00D-06  THRMLTP =  0.00D+00
 THRCPQCI=  1.00D-10  KEXTA   =  0.00D+00  THRCOARS=  0.00D+00  SYMTOL  =  1.00D-06  GRADTOL =  1.00D-06  THROVL  =  1.00D-08
 THRORTH =  1.00D-08  GRID    =  1.00D-06  GRIDMAX =  1.00D-03  DTMAX   =  0.00D+00  THROCCDE=  1.00D-01  THROCCDE=  1.00D-01



 Input parameters for SORTINT:

 COMPRESS =    0.000000
 C_FINAL  =    1.000000
 DEBUG    =   -1.000000
 C_SORT1  =    0.000000
 C_SEWARD =    0.000000
 THRESH   =    0.000000
 IO       =  molpro                                                          
 SPRI     =    0.000000
 SETTING GEOMTYP        =    XYZ
 ZUNIT=BOHR
 

 Variable memory set to  995000000 words,  buffer space   230000 words

 SETTING BASIS          =    VTZ-DK
 SETTING DKROLL         =     0.00000000D+00                                  


 Recomputing integrals since basis changed


 Using spherical harmonics

 Library entry N      S cc-pVTZ-DK           selected for orbital group  1
 Library entry N      P cc-pVTZ-DK           selected for orbital group  1
 Library entry N      D cc-pVTZ-DK           selected for orbital group  1
 Library entry N      F cc-pVTZ-DK           selected for orbital group  1
 Library entry H      S cc-pVTZ-DK           selected for orbital group  2
 Library entry H      P cc-pVTZ-DK           selected for orbital group  2
 Library entry H      D cc-pVTZ-DK           selected for orbital group  2
 Library entry O      S cc-pVTZ-DK           selected for orbital group  3
 Library entry O      P cc-pVTZ-DK           selected for orbital group  3
 Library entry O      D cc-pVTZ-DK           selected for orbital group  3
 Library entry O      F cc-pVTZ-DK           selected for orbital group  3


 PROGRAM * SEWARD (Integral evaluation for generally contracted gaussian basis sets)     Author: Roland Lindh, 1990

 Geometry written to block  1 of record 700


 Point group  Cs  



 ATOMIC COORDINATES

 NR  ATOM    CHARGE       X              Y              Z

   1  N       7.00    0.000000000   -0.156535824   -1.133938703
   2  H       1.00    0.000000000    1.664977175   -1.930467681
   3  O       8.00    0.000000000    0.033326439    1.113816793

 Bond lengths in Bohr (Angstrom)

 1-2  1.988056342  1-3  2.255759839
     ( 1.052034110)     ( 1.193696700)

 Bond angles

  2-1-3  108.79109639

 NUCLEAR CHARGE:                   16
 NUMBER OF PRIMITIVE AOS:         111
 NUMBER OF SYMMETRY AOS:          100
 NUMBER OF CONTRACTIONS:           74   (  50A'  +  24A"  )
 NUMBER OF CORE ORBITALS:           2   (   2A'  +   0A"  )
 NUMBER OF VALENCE ORBITALS:        9   (   7A'  +   2A"  )


 NUCLEAR REPULSION ENERGY   30.66253587

 Eigenvalues of metric

         1 0.239E-02 0.387E-02 0.400E-02 0.829E-02 0.130E-01 0.318E-01 0.417E-01 0.462E-01
         2 0.336E-01 0.463E-01 0.999E-01 0.110E+00 0.229E+00 0.341E+00 0.391E+00 0.446E+00


 Contracted 2-electron integrals neglected if value below      1.0D-22

        1874283. INTEGRALS WRITTEN OUT IN     458 BLOCKS ON RECORD 1290 OF FILE 1


 NUMBER OF SORTED TWO-ELECTRON INTEGRALS:    2006100.     BUFFER LENGTH:  32768
 NUMBER OF SEGMENTS:   1  SEGMENT LENGTH:    2006100      RECORD LENGTH: 524288

 Memory used in sort:       2.56 MW

 SORT1 READ     1874283. AND WROTE     1914195. INTEGRALS IN      6 RECORDS. CPU TIME:     0.05 SEC, REAL TIME:     0.06 SEC
 SORT2 READ     1914195. AND WROTE     2006100. INTEGRALS IN      1 RECORDS. CPU TIME:     0.05 SEC, REAL TIME:     0.06 SEC

 FILE SIZES:   FILE 1:    50.1 MBYTE,  FILE 4:    25.2 MBYTE,   TOTAL:     75.3 MBYTE

 OPERATOR DM      FOR CENTER  0  COORDINATES:    0.000000    0.000000    0.000000


 **********************************************************************************************************************************
 DATASETS  * FILE   NREC   LENGTH (MB)   RECORD NAMES
              1      19       35.89       500      610      700      900      950      970     1000      129      960     1100   
                                          VAR    BASINP    GEOM    SYMINP    ZMAT    AOBASIS   BASIS     P2S    ABASIS      S 
                                         1400     1410     1200     1210     1080     1600     1650     1300     1700   
                                           T        V       H0       H01     AOSYM     SMH    MOLCAS    ERIS     OPER   

 PROGRAMS   *        TOTAL       INT
 CPU TIMES  *         0.62      0.54
 REAL TIME  *         1.30 SEC
 DISK USED  *        75.59 MB      
 **********************************************************************************************************************************


 PROGRAM * RHF-SCF (CLOSED SHELL)       Authors: W. Meyer, H.-J. Werner


 NUMBER OF ELECTRONS:       8+    8-
 CONVERGENCE THRESHOLDS:    1.00E-10 (Density)    1.00E-13 (Energy)
 MAX. NUMBER OF ITERATIONS:      500
 INTERPOLATION TYPE:            DIIS
 INTERPOLATION STEPS:              2 (START)      1 (STEP)
 LEVEL SHIFTS:                  0.00 (CLOSED)  0.00 (OPEN) 



 Orbital guess generated from atomic densities. Full valence occupancy:    9   2

 Molecular orbital dump at record        2100.2

 Initial occupancy:   7   1

 ITERATION    DDIFF          GRAD             ENERGY        2-EL.EN.            DIPOLE MOMENTS         DIIS   ORB.
    1      0.000D+00      0.000D+00      -129.78399800    154.658011    0.00000    0.58893   -0.99463    0    start
    2      0.000D+00      0.133D-01      -129.81122532    155.836366    0.00000    0.60561   -0.23325    1    diag
    3      0.180D-01      0.982D-02      -129.83108543    155.926004    0.00000    0.55876   -0.58379    2    diag
    4      0.863D-02      0.154D-02      -129.83179984    155.668642    0.00000    0.56720   -0.52626    3    diag
    5      0.165D-02      0.504D-03      -129.83190955    155.753396    0.00000    0.57264   -0.52778    4    diag
    6      0.704D-03      0.149D-03      -129.83192746    155.738877    0.00000    0.57326   -0.52386    5    diag
    7      0.272D-03      0.737D-04      -129.83193249    155.741300    0.00000    0.57453   -0.52157    6    diag
    8      0.185D-03      0.227D-04      -129.83193292    155.740674    0.00000    0.57455   -0.52085    7    diag
    9      0.581D-04      0.409D-05      -129.83193294    155.740570    0.00000    0.57451   -0.52071    8    diag
   10      0.111D-04      0.936D-06      -129.83193294    155.740552    0.00000    0.57447   -0.52069    9    orth
   11      0.269D-05      0.185D-06      -129.83193294    155.740548    0.00000    0.57447   -0.52068    9    diag
   12      0.499D-06      0.374D-07      -129.83193294    155.740547    0.00000    0.57446   -0.52068    9    diag
   13      0.107D-06      0.905D-08      -129.83193294    155.740546    0.00000    0.57446   -0.52068    9    diag
   14      0.262D-07      0.170D-08      -129.83193294    155.740546    0.00000    0.57446   -0.52068    9    diag
   15      0.453D-08      0.463D-09      -129.83193294    155.740546    0.00000    0.57446   -0.52068    9    diag
   16      0.109D-08      0.128D-09      -129.83193294    155.740546    0.00000    0.57446   -0.52068    9    diag
   17      0.231D-09      0.379D-10      -129.83193294    155.740546    0.00000    0.57446   -0.52068    9    diag
   18      0.782D-10      0.121D-10      -129.83193294    155.740546    0.00000    0.57446   -0.52068    9    diag
   19      0.283D-10      0.266D-11      -129.83193294    155.740546    0.00000    0.57446   -0.52068    9    fixocc
   20      0.653D-11      0.424D-12      -129.83193294    155.740546    0.00000    0.57446   -0.52068    9    orth
   21      0.827D-12      0.132D-12      -129.83193294    155.740546    0.00000    0.57446   -0.52068    9    diag
   22      0.353D-12      0.362D-13      -129.83193294    155.740546    0.00000    0.57446   -0.52068    9    diag
   23      0.899D-13      0.229D-13      -129.83193294    155.740546    0.00000    0.57446   -0.52068    9    diag
   24      0.407D-13      0.233D-13      -129.83193294    155.740546    0.00000    0.57446   -0.52068    0    orth

 Final occupancy:   7   1

 !RHF STATE 1.1 Energy               -129.831932936602
 Nuclear energy                        30.66253587
 One-electron energy                 -238.36474192
 Two-electron energy                   77.87027312
 Virial quotient                       -0.99926377
 !RHF STATE 1.1 Dipole moment           0.00000000     0.57446446    -0.52068005
 Dipole moment /Debye                   0.00000000     1.46004739    -1.32334999

 Orbital energies:

         1.1          2.1          3.1          4.1          5.1          6.1          7.1          8.1          9.1
    -20.646695   -15.705224    -1.537432    -0.988015    -0.747554    -0.666219    -0.422050     0.144795     0.371820

         1.2          2.2          3.2
     -0.598909     0.091583     0.611417

 HOMO      7.1    -0.422050 =     -11.4846eV
 LUMO      2.2     0.091583 =       2.4921eV
 LUMO-HOMO         0.513633 =      13.9767eV


 **********************************************************************************************************************************
 DATASETS  * FILE   NREC   LENGTH (MB)   RECORD NAMES
              1      19       35.89       500      610      700      900      950      970     1000      129      960     1100   
                                          VAR    BASINP    GEOM    SYMINP    ZMAT    AOBASIS   BASIS     P2S    ABASIS      S 
                                         1400     1410     1200     1210     1080     1600     1650     1300     1700   
                                           T        V       H0       H01     AOSYM     SMH    MOLCAS    ERIS     OPER   

              2       4        2.85       700     1000      520     2100   
                                         GEOM     BASIS   MCVARS     RHF  

 PROGRAMS   *        TOTAL        HF       INT
 CPU TIMES  *         0.92      0.30      0.54
 REAL TIME  *         1.63 SEC
 DISK USED  *        75.59 MB      
 **********************************************************************************************************************************


 PROGRAM * CCSD (Closed-shell coupled cluster)     Authors: C. Hampel, H.-J. Werner, 1991, M. Deegan, P.J. Knowles, 1992


 Convergence thresholds:  THRVAR = 1.00D-08  THRDEN = 1.00D-12

 CCSD(T)     terms to be evaluated (factor= 1.000)


 Number of core orbitals:           2 (   2   0 )
 Number of closed-shell orbitals:   6 (   5   1 )
 Number of external orbitals:      66 (  43  23 )

 Molecular orbitals read from record     2100.2  Type=RHF/CANONICAL (state 1.1)

 Number of N-1 electron functions:               6
 Number of N-2 electron functions:              21
 Number of singly external CSFs:               238
 Number of doubly external CSFs:             41002
 Total number of CSFs:                       41241

 Length of J-op  integral file:               0.00 MB
 Length of K-op  integral file:               0.25 MB
 Length of 3-ext integral record:             0.00 MB

 Memory could be reduced to 1.65 Mwords without degradation in triples

 Integral transformation finished. Total CPU:   0.04 sec, npass=  1  Memory used:   0.55 MW

 Reference energy:                   -129.83193294

 MP2 singlet pair energy:              -0.27207268
 MP2 triplet pair energy:              -0.16145084
 MP2 correlation energy:               -0.43352353
 MP2 total energy:                   -130.26545647

 SCS-MP2 correlation energy:           -0.42694552   (PS=  1.200000  PT=  0.333333)
 SCS-MP2 total energy:               -130.25887846

 ITER.      SQ.NORM     CORR.ENERGY   TOTAL ENERGY   ENERGY CHANGE        DEN1      VAR(S)    VAR(P)  DIIS     TIME  TIME/IT
   1      1.11689445    -0.43919230  -130.27112524    -0.00566877     0.00952830  0.28D-02  0.28D-02  1  1     0.09     0.05
   2      1.12739713    -0.43955359  -130.27148653    -0.00036129    -0.01193758  0.81D-04  0.48D-03  2  2     0.13     0.05
   3      1.13339073    -0.43991904  -130.27185198    -0.00036545    -0.00288021  0.44D-04  0.48D-04  3  3     0.19     0.05
   4      1.13603628    -0.43994372  -130.27187665    -0.00002467    -0.00091406  0.37D-05  0.84D-05  4  4     0.23     0.05
   5      1.13696144    -0.43997085  -130.27190379    -0.00002713    -0.00019131  0.13D-05  0.17D-05  5  5     0.28     0.05
   6      1.13730525    -0.43995594  -130.27188887     0.00001491    -0.00003840  0.96D-07  0.41D-06  6  6     0.33     0.05
   7      1.13739252    -0.43995770  -130.27189064    -0.00000176    -0.00000271  0.12D-07  0.82D-07  6  1     0.38     0.05
   8      1.13742277    -0.43995786  -130.27189080    -0.00000016     0.00000188  0.43D-08  0.92D-08  6  2     0.43     0.05
   9      1.13743010    -0.43995767  -130.27189061     0.00000019    -0.00000220  0.24D-08  0.10D-08  6  3     0.48     0.05
  10      1.13742888    -0.43995816  -130.27189109    -0.00000048     0.00000058  0.47D-09  0.18D-09  6  4     0.53     0.05
  11      1.13742716    -0.43995821  -130.27189115    -0.00000006     0.00000020  0.14D-09  0.21D-10  6  5     0.58     0.05
  12      1.13742581    -0.43995838  -130.27189132    -0.00000017     0.00000041  0.15D-10  0.72D-11  6  6     0.63     0.05
  13      1.13742522    -0.43995839  -130.27189132    -0.00000001     0.00000012  0.65D-11  0.11D-11  6  1     0.68     0.05
  14      1.13742486    -0.43995841  -130.27189134    -0.00000002     0.00000007  0.89D-12  0.40D-12  6  2     0.73     0.05
  15      1.13742473    -0.43995841  -130.27189134    -0.00000000     0.00000001  0.22D-12  0.14D-12  6  3     0.78     0.05
  16      1.13742464    -0.43995841  -130.27189134    -0.00000000     0.00000001  0.25D-13  0.15D-13  6  5     0.83     0.05
  17      1.13742461    -0.43995841  -130.27189135    -0.00000000     0.00000000  0.88D-15  0.24D-14  6  4     0.88     0.05
  18      1.13742461    -0.43995841  -130.27189135     0.00000000    -0.00000000  0.53D-15  0.35D-15  6  1     0.93     0.05
  19      1.13742461    -0.43995841  -130.27189135    -0.00000000     0.00000000  0.43D-16  0.59D-16  6  6     0.99     0.05
  20      1.13742461    -0.43995841  -130.27189135    -0.00000000     0.00000000  0.86D-17  0.13D-16  6  2     1.04     0.05
  21      1.13742460    -0.43995841  -130.27189135    -0.00000000     0.00000000  0.18D-17  0.10D-17  6  5     1.09     0.05
  22      1.13742460    -0.43995841  -130.27189135     0.00000000     0.00000000  0.11D-18  0.74D-19  6  3     1.14     0.05
  23      1.13742460    -0.43995841  -130.27189135     0.00000000    -0.00000000  0.32D-19  0.16D-19  6  4     1.19     0.05
  24      1.13742460    -0.43995841  -130.27189135     0.00000000    -0.00000000  0.47D-20  0.46D-20  6  1     1.24     0.05
  25      1.13742460    -0.43995841  -130.27189135     0.00000000    -0.00000000  0.47D-21  0.82D-21  6  6     1.29     0.05

 Norm of t1 vector:      0.07301558      S-energy:     0.00000000      T1 diagnostic:  0.01490424
                                                                       D1 diagnostic:  0.04067952

 Doubles amplitudes (print threshold =  0.500E-01):

         I         J         SYM. A    SYM. B    A         B      T(IJ, AB)

         6         6         2         2         1         1     -0.13980923


 Total CPU time for triples:      0.35 sec


 RESULTS
 =======

  Reference energy                   -129.831932936602
  CCSD singlet pair energy             -0.301324547448
  CCSD triplet pair energy             -0.138633861587
  CCSD correlation energy              -0.439958409035

  Triples (T) contribution             -0.019348825450
  Total correlation energy             -0.459307234486

  CCSD total energy                  -130.271891345638
  CCSD[T] energy                     -130.292202205107
  CCSD-T energy                      -130.290856806432
 !CCSD(T) total energy               -130.291240171088

 Timing summary (sec):

 STEP                 CPU(USER)    SYS     CPU(TOT)    WALL
 Transformation          0.04      0.01      0.05      0.08
 CCSD iterations         1.25      0.09      1.34      1.35
 Triples                 0.35      0.02      0.37      0.37

 Program statistics:

 Available memory in ccsd:               994999756
 Min. memory needed in ccsd:                154850
 Max. memory used in ccsd:                  184802
 Max. memory used in cckext:                238416 (25 integral passes)



 **********************************************************************************************************************************
 DATASETS  * FILE   NREC   LENGTH (MB)   RECORD NAMES
              1      20       40.28       500      610      700      900      950      970     1000      129      960     1100   
                                          VAR    BASINP    GEOM    SYMINP    ZMAT    AOBASIS   BASIS     P2S    ABASIS      S 
                                         1400     1410     1200     1210     1080     1600     1650     1300     1700     1380   
                                           T        V       H0       H01     AOSYM     SMH    MOLCAS    ERIS     OPER     JKOP   

              2       4        2.85       700     1000      520     2100   
                                         GEOM     BASIS   MCVARS     RHF  

 PROGRAMS   *        TOTAL   CCSD(T)        HF       INT
 CPU TIMES  *         2.59      1.67      0.30      0.54
 REAL TIME  *         3.48 SEC
 DISK USED  *        75.59 MB      
 **********************************************************************************************************************************

 CCSD(T)/cc-pVTZ-DK energy=   -130.291240171088

        CCSD(T)         HF-SCF  
   -130.29124017   -129.83193294
 **********************************************************************************************************************************
 Molpro calculation terminated
 Variable memory released
