
 Primary working directories    : /tmp/r2666/234699.maple
 Secondary working directories  : /tmp/r2666/234699.maple
 Wavefunction directory         : /ddn/home4/r2666/wfu/
 Main file repository           : /tmp/r2666/234699.maple/

 SHA1      : d5ffa45e93fdbca01ffc919aa182cfdae0147319
 NAME      : 2015.1.35
 ARCHNAME  : linux/x86_64
 FC        : /opt/intel/composer_xe_2015.1.133/bin/intel64/ifort
 BLASLIB   : -Wl,-_start-group /opt/intel/mkl/lib/intel64/libmkl_intel_ilp64.a /opt/intel/mkl/lib/intel64/libmkl_intel_thread.a /opt/intel/mkl/lib/intel64/libmkl_core.a -Wl,-_end-group
 id        : olemiss

 Nodes     nprocs
 cn043        1

 Using customized tuning parameters: mindgm=1; mindgv=20; mindgc=4; mindgr=1; noblas=0; minvec=7
 default implementation of scratch files=df  

 ***,hno CCSD(T)/TZ-F12 QFF
 memory, 995, m;
 gthresh,energy=1.d-12,zero=1.d-22,oneint=1.d-22,twoint=1.d-22;
 gthresh,optgrad=1.d-8,optstep=1.d-8;
 nocompress;
 geomtyp=xyz
 bohr
 geometry={
 3
         71        71
 N        0.0000000000       -0.1541076093       -1.1387429186
 H        0.0000000000        1.6665123497       -1.9373110021
 O        0.0000000000        0.0293630496        1.1254643297
 }
 
 basis=av5z
   {hf,maxit=500;accu,20;}
 {ccsd(t),nocheck,maxit=250;orbital,IGNORE_ERROR;}

 Variables initialized (889), CPU time= 0.00 sec
 Commands  initialized (702), CPU time= 0.01 sec, 572 directives.
 Default parameters read. Elapsed time= 0.05 sec

 Checking input...
 Passed
1


                                         ***  PROGRAM SYSTEM MOLPRO  ***
                                       Copyright, TTI GmbH Stuttgart, 2015
                                    Version 2015.1 linked Jul  9 2018 13:16:40


 **********************************************************************************************************************************
 LABEL *   hno CCSD(T)/TZ-F12 QFF                                                        
  64 bit serial version                                                                  DATE: 08-Feb-20          TIME: 17:36:59  
 **********************************************************************************************************************************

 SHA1:             d5ffa45e93fdbca01ffc919aa182cfdae0147319
 **********************************************************************************************************************************

 THRESHOLDS:

 ZERO    =  1.00D-22  ONEINT  =  1.00D-22  TWOINT  =  1.00D-22  PREFAC  =  1.00D-14  LOCALI  =  1.00D-09  EORDER  =  1.00D-04
 ENERGY  =  1.00D-12  ETEST   =  0.00D+00  EDENS   =  0.00D+00  THRDEDEF=  1.00D-06  GRADIENT=  1.00D-02  STEP    =  1.00D-03
 ORBITAL =  1.00D-05  CIVEC   =  1.00D-05  COEFF   =  1.00D-04  PRINTCI =  5.00D-02  PUNCHCI =  9.90D+01  OPTGRAD =  3.00D-04
 OPTENERG=  1.00D-06  OPTSTEP =  3.00D-04  THRGRAD =  1.00D-10  COMPRESS=  1.00D-11  VARMIN  =  1.00D-07  VARMAX  =  1.00D-03
 THRDOUB =  0.00D+00  THRDIV  =  1.00D-05  THRRED  =  1.00D-07  THRPSP  =  1.00D+00  THRDC   =  1.00D-10  THRCS   =  1.00D-10
 THRNRM  =  1.00D-08  THREQ   =  0.00D+00  THRDE   =  1.00D+00  THRREF  =  1.00D-05  SPARFAC =  1.00D+00  THRDLP  =  1.00D-07
 THRDIA  =  1.00D-10  THRDLS  =  1.00D-07  THRGPS  =  0.00D+00  THRKEX  =  0.00D+00  THRDIS  =  2.00D-01  THRVAR  =  1.00D-10
 THRLOC  =  1.00D-06  THRGAP  =  1.00D-06  THRLOCT = -1.00D+00  THRGAPT = -1.00D+00  THRORB  =  1.00D-06  THRMLTP =  0.00D+00
 THRCPQCI=  1.00D-10  KEXTA   =  0.00D+00  THRCOARS=  0.00D+00  SYMTOL  =  1.00D-06  GRADTOL =  1.00D-06  THROVL  =  1.00D-08
 THRORTH =  1.00D-08  GRID    =  1.00D-06  GRIDMAX =  1.00D-03  DTMAX   =  0.00D+00  THROCCDE=  1.00D-01  THROCCDE=  1.00D-01



 THRESHOLDS:

 ZERO    =  1.00D-22  ONEINT  =  1.00D-22  TWOINT  =  1.00D-22  PREFAC  =  1.00D-14  LOCALI  =  1.00D-09  EORDER  =  1.00D-04
 ENERGY  =  1.00D-12  ETEST   =  0.00D+00  EDENS   =  0.00D+00  THRDEDEF=  1.00D-06  GRADIENT=  1.00D-02  STEP    =  1.00D-03
 ORBITAL =  1.00D-05  CIVEC   =  1.00D-05  COEFF   =  1.00D-04  PRINTCI =  5.00D-02  PUNCHCI =  9.90D+01  OPTGRAD =  1.00D-08
 OPTENERG=  1.00D-06  OPTSTEP =  1.00D-08  THRGRAD =  1.00D-10  COMPRESS=  1.00D-11  VARMIN  =  1.00D-07  VARMAX  =  1.00D-03
 THRDOUB =  0.00D+00  THRDIV  =  1.00D-05  THRRED  =  1.00D-07  THRPSP  =  1.00D+00  THRDC   =  1.00D-10  THRCS   =  1.00D-10
 THRNRM  =  1.00D-08  THREQ   =  0.00D+00  THRDE   =  1.00D+00  THRREF  =  1.00D-05  SPARFAC =  1.00D+00  THRDLP  =  1.00D-07
 THRDIA  =  1.00D-10  THRDLS  =  1.00D-07  THRGPS  =  0.00D+00  THRKEX  =  0.00D+00  THRDIS  =  2.00D-01  THRVAR  =  1.00D-10
 THRLOC  =  1.00D-06  THRGAP  =  1.00D-06  THRLOCT = -1.00D+00  THRGAPT = -1.00D+00  THRORB  =  1.00D-06  THRMLTP =  0.00D+00
 THRCPQCI=  1.00D-10  KEXTA   =  0.00D+00  THRCOARS=  0.00D+00  SYMTOL  =  1.00D-06  GRADTOL =  1.00D-06  THROVL  =  1.00D-08
 THRORTH =  1.00D-08  GRID    =  1.00D-06  GRIDMAX =  1.00D-03  DTMAX   =  0.00D+00  THROCCDE=  1.00D-01  THROCCDE=  1.00D-01



 Input parameters for SORTINT:

 COMPRESS =    0.000000
 C_FINAL  =    1.000000
 DEBUG    =   -1.000000
 C_SORT1  =    0.000000
 C_SEWARD =    0.000000
 THRESH   =    0.000000
 IO       =  molpro                                                          
 SPRI     =    0.000000
 SETTING GEOMTYP        =    XYZ
 ZUNIT=BOHR
 

 Variable memory set to  995000000 words,  buffer space   230000 words

 SETTING BASIS          =    AV5Z


 Recomputing integrals since basis changed


 Using spherical harmonics

 Library entry N      S aug-cc-pV5Z          selected for orbital group  1
 Library entry N      P aug-cc-pV5Z          selected for orbital group  1
 Library entry N      D aug-cc-pV5Z          selected for orbital group  1
 Library entry N      F aug-cc-pV5Z          selected for orbital group  1
 Library entry N      G aug-cc-pV5Z          selected for orbital group  1
 Library entry N      H aug-cc-pV5Z          selected for orbital group  1
 Library entry H      S aug-cc-pV5Z          selected for orbital group  2
 Library entry H      P aug-cc-pV5Z          selected for orbital group  2
 Library entry H      D aug-cc-pV5Z          selected for orbital group  2
 Library entry H      F aug-cc-pV5Z          selected for orbital group  2
 Library entry H      G aug-cc-pV5Z          selected for orbital group  2
 Library entry O      S aug-cc-pV5Z          selected for orbital group  3
 Library entry O      P aug-cc-pV5Z          selected for orbital group  3
 Library entry O      D aug-cc-pV5Z          selected for orbital group  3
 Library entry O      F aug-cc-pV5Z          selected for orbital group  3
 Library entry O      G aug-cc-pV5Z          selected for orbital group  3
 Library entry O      H aug-cc-pV5Z          selected for orbital group  3


 PROGRAM * SEWARD (Integral evaluation for generally contracted gaussian basis sets)     Author: Roland Lindh, 1990

 Geometry written to block  1 of record 700


 Point group  Cs  



 ATOMIC COORDINATES

 NR  ATOM    CHARGE       X              Y              Z

   1  N       7.00    0.000000000   -0.154107609   -1.138742919
   2  H       1.00    0.000000000    1.666512350   -1.937311002
   3  O       8.00    0.000000000    0.029363050    1.125464330

 Bond lengths in Bohr (Angstrom)

 1-2  1.988056342  1-3  2.271628479
     ( 1.052034110)     ( 1.202094023)

 Bond angles

  2-1-3  109.05081738

 NUCLEAR CHARGE:                   16
 NUMBER OF PRIMITIVE AOS:         506
 NUMBER OF SYMMETRY AOS:          371
 NUMBER OF CONTRACTIONS:          334   ( 204A'  + 130A"  )
 NUMBER OF CORE ORBITALS:           2   (   2A'  +   0A"  )
 NUMBER OF VALENCE ORBITALS:        9   (   7A'  +   2A"  )


 NUCLEAR REPULSION ENERGY   30.47651332


 Eigenvalues of metric

         1 0.111E-04 0.168E-04 0.630E-04 0.982E-04 0.103E-03 0.134E-03 0.197E-03 0.224E-03
         2 0.125E-03 0.362E-03 0.110E-02 0.154E-02 0.192E-02 0.246E-02 0.325E-02 0.389E-02


 Contracted 2-electron integrals neglected if value below      1.0D-22

      756977041. INTEGRALS WRITTEN OUT IN  184854 BLOCKS ON RECORD 1290 OF FILE 1


 NUMBER OF SORTED TWO-ELECTRON INTEGRALS:  789027325.     BUFFER LENGTH:  32768
 NUMBER OF SEGMENTS:  25  SEGMENT LENGTH:   31997130      RECORD LENGTH: 524288

 Memory used in sort:      32.55 MW

 SORT1 READ   756977041. AND WROTE   760992923. INTEGRALS IN   2189 RECORDS. CPU TIME:    23.11 SEC, REAL TIME:    51.36 SEC
 SORT2 READ   760992923. AND WROTE   789027325. INTEGRALS IN     25 RECORDS. CPU TIME:    11.00 SEC, REAL TIME:    47.42 SEC

 FILE SIZES:   FILE 1: 12137.4 MBYTE,  FILE 4:  9181.4 MBYTE,   TOTAL:  21318.8 MBYTE

 OPERATOR DM      FOR CENTER  0  COORDINATES:    0.000000    0.000000    0.000000


 **********************************************************************************************************************************
 DATASETS  * FILE   NREC   LENGTH (MB)   RECORD NAMES
              1      19     6374.22       500      610      700      900      950      970     1000      129      960     1100   
                                          VAR    BASINP    GEOM    SYMINP    ZMAT    AOBASIS   BASIS     P2S    ABASIS      S 
                                         1400     1410     1200     1210     1080     1600     1650     1300     1700   
                                           T        V       H0       H01     AOSYM     SMH    MOLCAS    ERIS     OPER   

 PROGRAMS   *        TOTAL       INT
 CPU TIMES  *       136.33    136.26
 REAL TIME  *       208.77 SEC
 DISK USED  *        21.32 GB      
 **********************************************************************************************************************************


 PROGRAM * RHF-SCF (CLOSED SHELL)       Authors: W. Meyer, H.-J. Werner


 NUMBER OF ELECTRONS:       8+    8-
 CONVERGENCE THRESHOLDS:    1.00E-10 (Density)    1.00E-13 (Energy)
 MAX. NUMBER OF ITERATIONS:      500
 INTERPOLATION TYPE:            DIIS
 INTERPOLATION STEPS:              2 (START)      1 (STEP)
 LEVEL SHIFTS:                  0.00 (CLOSED)  0.00 (OPEN) 



 Orbital guess generated from atomic densities. Full valence occupancy:    9   2

 Molecular orbital dump at record        2100.2

 Initial occupancy:   7   1

 ITERATION    DDIFF          GRAD             ENERGY        2-EL.EN.            DIPOLE MOMENTS         DIIS   ORB.
    1      0.000D+00      0.000D+00      -129.80020611    154.167725    0.00000    0.60011   -1.01203    0    start
    2      0.000D+00      0.637D-02      -129.82758577    155.403463    0.00000    0.60623   -0.21370    1    diag
    3      0.395D-02      0.479D-02      -129.84955997    155.516717    0.00000    0.55713   -0.58895    2    diag
    4      0.203D-02      0.765D-03      -129.85035501    155.236156    0.00000    0.56420   -0.52807    3    diag
    5      0.376D-03      0.247D-03      -129.85047852    155.329616    0.00000    0.56953   -0.53075    4    diag
    6      0.155D-03      0.714D-04      -129.85049820    155.313389    0.00000    0.56984   -0.52664    5    diag
    7      0.593D-04      0.353D-04      -129.85050386    155.316231    0.00000    0.57109   -0.52411    6    diag
    8      0.404D-04      0.123D-04      -129.85050448    155.315549    0.00000    0.57115   -0.52313    7    diag
    9      0.152D-04      0.235D-05      -129.85050450    155.315441    0.00000    0.57111   -0.52291    8    diag
   10      0.304D-05      0.541D-06      -129.85050450    155.315423    0.00000    0.57108   -0.52288    9    orth
   11      0.615D-06      0.109D-06      -129.85050450    155.315419    0.00000    0.57107   -0.52288    9    diag
   12      0.117D-06      0.220D-07      -129.85050450    155.315419    0.00000    0.57107   -0.52288    9    diag
   13      0.250D-07      0.570D-08      -129.85050450    155.315419    0.00000    0.57107   -0.52288    9    diag
   14      0.666D-08      0.112D-08      -129.85050450    155.315419    0.00000    0.57107   -0.52288    9    diag
   15      0.123D-08      0.322D-09      -129.85050450    155.315419    0.00000    0.57107   -0.52288    9    diag
   16      0.366D-09      0.983D-10      -129.85050450    155.315419    0.00000    0.57107   -0.52288    9    diag
   17      0.763D-10      0.262D-10      -129.85050450    155.315419    0.00000    0.57107   -0.52288    9    diag
   18      0.283D-10      0.900D-11      -129.85050450    155.315419    0.00000    0.57107   -0.52288    9    diag
   19      0.229D-10      0.229D-11      -129.85050450    155.315419    0.00000    0.57107   -0.52288    9    fixocc
   20      0.171D-10      0.663D-12      -129.85050450    155.315419    0.00000    0.57107   -0.52288    9    orth
   21      0.720D-11      0.452D-12      -129.85050450    155.315419    0.00000    0.57107   -0.52288    9    diag
   22      0.985D-11      0.321D-12      -129.85050450    155.315419    0.00000    0.57107   -0.52288    9    diag
   23      0.523D-11      0.334D-12      -129.85050450    155.315419    0.00000    0.57107   -0.52288    9    diag
   24      0.224D-11      0.307D-12      -129.85050450    155.315419    0.00000    0.57107   -0.52288    9    diag
   25      0.109D-11      0.332D-12      -129.85050450    155.315419    0.00000    0.57107   -0.52288    9    diag
   26      0.252D-11      0.250D-12      -129.85050450    155.315419    0.00000    0.57107   -0.52288    9    diag
   27      0.208D-11      0.368D-12      -129.85050450    155.315419    0.00000    0.57107   -0.52288    9    diag
   28      0.766D-12      0.303D-12      -129.85050450    155.315419    0.00000    0.57107   -0.52288    9    diag
   29      0.105D-11      0.307D-12      -129.85050450    155.315419    0.00000    0.57107   -0.52288    9    diag
   30      0.460D-12      0.268D-12      -129.85050450    155.315419    0.00000    0.57107   -0.52288    9    orth
   31      0.909D-12      0.230D-12      -129.85050450    155.315419    0.00000    0.57107   -0.52288    9    diag
   32      0.918D-12      0.357D-12      -129.85050450    155.315419    0.00000    0.57107   -0.52288    9    diag
   33      0.797D-12      0.217D-12      -129.85050450    155.315419    0.00000    0.57107   -0.52288    9    diag
   34      0.812D-12      0.380D-12      -129.85050450    155.315419    0.00000    0.57107   -0.52288    9    diag
   35      0.650D-12      0.277D-12      -129.85050450    155.315419    0.00000    0.57107   -0.52288    0    orth

 Final occupancy:   7   1

 !RHF STATE 1.1 Energy               -129.850504504749
 Nuclear energy                        30.47651332
 One-electron energy                 -237.98472714
 Two-electron energy                   77.65770931
 Virial quotient                       -1.00154850
 !RHF STATE 1.1 Dipole moment           0.00000000     0.57106607    -0.52287714
 Dipole moment /Debye                   0.00000000     1.45141010    -1.32893409

 Orbital energies:

         1.1          2.1          3.1          4.1          5.1          6.1          7.1          8.1          9.1
    -20.652595   -15.711003    -1.533699    -0.993538    -0.748941    -0.667975    -0.428159     0.022861     0.065543

         1.2          2.2          3.2
     -0.598745     0.061225     0.092106

 HOMO      7.1    -0.428159 =     -11.6508eV
 LUMO      8.1     0.022861 =       0.6221eV
 LUMO-HOMO         0.451020 =      12.2729eV


 **********************************************************************************************************************************
 DATASETS  * FILE   NREC   LENGTH (MB)   RECORD NAMES
              1      19     6374.22       500      610      700      900      950      970     1000      129      960     1100   
                                          VAR    BASINP    GEOM    SYMINP    ZMAT    AOBASIS   BASIS     P2S    ABASIS      S 
                                         1400     1410     1200     1210     1080     1600     1650     1300     1700   
                                           T        V       H0       H01     AOSYM     SMH    MOLCAS    ERIS     OPER   

              2       4        4.02       700     1000      520     2100   
                                         GEOM     BASIS   MCVARS     RHF  

 PROGRAMS   *        TOTAL        HF       INT
 CPU TIMES  *       277.24    140.91    136.26
 REAL TIME  *       391.08 SEC
 DISK USED  *        21.32 GB      
 **********************************************************************************************************************************


 PROGRAM * CCSD (Closed-shell coupled cluster)     Authors: C. Hampel, H.-J. Werner, 1991, M. Deegan, P.J. Knowles, 1992


 Convergence thresholds:  THRVAR = 1.00D-08  THRDEN = 1.00D-12

 CCSD(T)     terms to be evaluated (factor= 1.000)


 Number of core orbitals:           2 (   2   0 )
 Number of closed-shell orbitals:   6 (   5   1 )
 Number of external orbitals:     326 ( 197 129 )

 Molecular orbitals read from record     2100.2  Type=RHF/CANONICAL (state 1.1)

 Number of N-1 electron functions:               6
 Number of N-2 electron functions:              21
 Number of singly external CSFs:              1114
 Number of doubly external CSFs:            975958
 Total number of CSFs:                      977073

 Length of J-op  integral file:               0.00 MB
 Length of K-op  integral file:               4.07 MB
 Length of 3-ext integral record:             0.00 MB

 Memory could be reduced to 151.33 Mwords without degradation in triples

 Integral transformation finished. Total CPU:  14.32 sec, npass=  1  Memory used:  41.21 MW

 Reference energy:                   -129.85050450

 MP2 singlet pair energy:              -0.31058031
 MP2 triplet pair energy:              -0.17161857
 MP2 correlation energy:               -0.48219888
 MP2 total energy:                   -130.33270338

 SCS-MP2 correlation energy:           -0.47948126   (PS=  1.200000  PT=  0.333333)
 SCS-MP2 total energy:               -130.32998577

 ITER.      SQ.NORM     CORR.ENERGY   TOTAL ENERGY   ENERGY CHANGE        DEN1      VAR(S)    VAR(P)  DIIS     TIME  TIME/IT
   1      1.11998481    -0.47942782  -130.32993232     0.00277106     0.01919719  0.31D-02  0.31D-02  1  1    25.39    12.12
   2      1.13047900    -0.47935946  -130.32986397     0.00006835    -0.01253261  0.10D-03  0.48D-03  2  2    36.87    12.44
   3      1.13653257    -0.47973383  -130.33023833    -0.00037436    -0.00296889  0.47D-04  0.55D-04  3  3    48.11    12.48
   4      1.13926433    -0.47973145  -130.33023596     0.00000237    -0.00095283  0.44D-05  0.98D-05  4  4    59.35    12.50
   5      1.14036538    -0.47975967  -130.33026417    -0.00002821    -0.00024440  0.11D-05  0.17D-05  5  5    70.58    12.50
   6      1.14071563    -0.47974861  -130.33025312     0.00001105    -0.00004917  0.12D-06  0.41D-06  6  6    81.78    12.51
   7      1.14079274    -0.47974819  -130.33025269     0.00000043     0.00000297  0.17D-07  0.93D-07  6  1    93.05    12.51
   8      1.14081810    -0.47974830  -130.33025281    -0.00000011    -0.00000300  0.37D-08  0.19D-07  6  2   104.43    12.52
   9      1.14082679    -0.47974776  -130.33025226     0.00000055    -0.00000022  0.22D-08  0.19D-08  6  3   115.64    12.53
  10      1.14082231    -0.47974848  -130.33025299    -0.00000073     0.00000153  0.35D-09  0.31D-09  6  5   127.00    12.53
  11      1.14082415    -0.47974847  -130.33025298     0.00000001    -0.00000032  0.98D-10  0.27D-10  6  4   138.30    12.54
  12      1.14082370    -0.47974854  -130.33025304    -0.00000007     0.00000005  0.18D-10  0.62D-11  6  6   149.58    12.54
  13      1.14082348    -0.47974854  -130.33025305    -0.00000000    -0.00000003  0.32D-11  0.94D-12  6  1   160.87    12.54
  14      1.14082322    -0.47974855  -130.33025306    -0.00000001     0.00000004  0.49D-12  0.17D-12  6  3   172.13    12.54
  15      1.14082314    -0.47974856  -130.33025306    -0.00000000     0.00000001  0.13D-12  0.23D-13  6  2   183.39    12.54
  16      1.14082312    -0.47974855  -130.33025306     0.00000000     0.00000000  0.33D-13  0.91D-14  6  4   194.67    12.54
  17      1.14082312    -0.47974856  -130.33025306    -0.00000000    -0.00000000  0.18D-14  0.12D-14  6  5   206.01    12.54
  18      1.14082313    -0.47974855  -130.33025306     0.00000000    -0.00000000  0.28D-15  0.31D-15  6  6   217.33    12.54
  19      1.14082314    -0.47974855  -130.33025306     0.00000000    -0.00000000  0.35D-16  0.46D-16  6  2   228.56    12.54
  20      1.14082314    -0.47974855  -130.33025306     0.00000000    -0.00000000  0.92D-17  0.66D-17  6  1   239.98    12.55
  21      1.14082314    -0.47974855  -130.33025306    -0.00000000     0.00000000  0.16D-17  0.94D-18  6  3   251.59    12.57
  22      1.14082314    -0.47974855  -130.33025306    -0.00000000     0.00000000  0.31D-18  0.14D-18  6  4   263.18    12.58
  23      1.14082314    -0.47974855  -130.33025306    -0.00000000     0.00000000  0.93D-19  0.47D-19  6  5   274.52    12.58
  24      1.14082314    -0.47974855  -130.33025306    -0.00000000     0.00000000  0.42D-19  0.22D-19  6  6   285.88    12.58
  25      1.14082314    -0.47974855  -130.33025306     0.00000000    -0.00000000  0.31D-19  0.16D-19  6  2   297.19    12.59

 Norm of t1 vector:      0.07550933      S-energy:    -0.00000000      T1 diagnostic:  0.01541328
                                                                       D1 diagnostic:  0.04150763

 Doubles amplitudes (print threshold =  0.500E-01):

         I         J         SYM. A    SYM. B    A         B      T(IJ, AB)

         6         6         2         2         1         1     -0.07478862
         6         6         2         2         1         2      0.05294893
         6         6         2         2         2         1      0.05294893


 Total CPU time for triples:    116.59 sec


 RESULTS
 =======

  Reference energy                   -129.850504504749
  CCSD singlet pair energy             -0.332666173966
  CCSD triplet pair energy             -0.147082380773
  CCSD correlation energy              -0.479748554742

  Triples (T) contribution             -0.022740788571
  Total correlation energy             -0.502489343312

  CCSD total energy                  -130.330253059491
  CCSD[T] energy                     -130.354051047275
  CCSD-T energy                      -130.352619698395
 !CCSD(T) total energy               -130.352993848062

 Timing summary (sec):

 STEP                 CPU(USER)    SYS     CPU(TOT)    WALL
 Transformation         14.38      1.72     16.10     16.12
 CCSD iterations       282.81     31.87    314.68    314.68
 Triples               116.59      2.14    118.73    118.73

 Program statistics:

 Available memory in ccsd:               994999756
 Min. memory needed in ccsd:               3348832
 Max. memory used in ccsd:                 4143652
 Max. memory used in cckext:               8340089 (25 integral passes)



 **********************************************************************************************************************************
 DATASETS  * FILE   NREC   LENGTH (MB)   RECORD NAMES
              1      20     6809.41       500      610      700      900      950      970     1000      129      960     1100   
                                          VAR    BASINP    GEOM    SYMINP    ZMAT    AOBASIS   BASIS     P2S    ABASIS      S 
                                         1400     1410     1200     1210     1080     1600     1650     1300     1700     1380   
                                           T        V       H0       H01     AOSYM     SMH    MOLCAS    ERIS     OPER     JKOP   

              2       4        4.02       700     1000      520     2100   
                                         GEOM     BASIS   MCVARS     RHF  

 PROGRAMS   *        TOTAL   CCSD(T)        HF       INT
 CPU TIMES  *       691.04    413.80    140.91    136.26
 REAL TIME  *       840.66 SEC
 DISK USED  *        21.32 GB      
 **********************************************************************************************************************************

 CCSD(T)/aug-cc-pV5Z energy=   -130.352993848062

        CCSD(T)         HF-SCF  
   -130.35299385   -129.85050450
 **********************************************************************************************************************************
 Molpro calculation terminated
 Variable memory released
