
 Primary working directories    : /tmp/r2666/234726.maple
 Secondary working directories  : /tmp/r2666/234726.maple
 Wavefunction directory         : /ddn/home4/r2666/wfu/
 Main file repository           : /tmp/r2666/234726.maple/

 SHA1      : d5ffa45e93fdbca01ffc919aa182cfdae0147319
 NAME      : 2015.1.35
 ARCHNAME  : linux/x86_64
 FC        : /opt/intel/composer_xe_2015.1.133/bin/intel64/ifort
 BLASLIB   : -Wl,-_start-group /opt/intel/mkl/lib/intel64/libmkl_intel_ilp64.a /opt/intel/mkl/lib/intel64/libmkl_intel_thread.a /opt/intel/mkl/lib/intel64/libmkl_core.a -Wl,-_end-group
 id        : olemiss

 Nodes     nprocs
 cn035        1

 Using customized tuning parameters: mindgm=1; mindgv=20; mindgc=4; mindgr=1; noblas=0; minvec=7
 default implementation of scratch files=df  

 ***,hno CCSD(T)/TZ-F12 QFF
 memory, 995, m;
 gthresh,energy=1.d-12,zero=1.d-22,oneint=1.d-22,twoint=1.d-22;
 gthresh,optgrad=1.d-8,optstep=1.d-8;
 nocompress;
 geomtyp=xyz
 bohr
 geometry={
 3
         98        98
 N        0.0000000000       -0.1664826883       -1.1458850272
 H        0.0000000000        1.6709850702       -1.9292995724
 O        0.0000000000        0.0372654081        1.1245950087
 }
 
 basis=av5z
   {hf,maxit=500;accu,20;}
 {ccsd(t),nocheck,maxit=250;orbital,IGNORE_ERROR;}

 Variables initialized (889), CPU time= 0.00 sec
 Commands  initialized (702), CPU time= 0.01 sec, 572 directives.
 Default parameters read. Elapsed time= 0.04 sec

 Checking input...
 Passed
1


                                         ***  PROGRAM SYSTEM MOLPRO  ***
                                       Copyright, TTI GmbH Stuttgart, 2015
                                    Version 2015.1 linked Jul  9 2018 13:16:40


 **********************************************************************************************************************************
 LABEL *   hno CCSD(T)/TZ-F12 QFF                                                        
  64 bit serial version                                                                  DATE: 08-Feb-20          TIME: 17:40:00  
 **********************************************************************************************************************************

 SHA1:             d5ffa45e93fdbca01ffc919aa182cfdae0147319
 **********************************************************************************************************************************

 THRESHOLDS:

 ZERO    =  1.00D-22  ONEINT  =  1.00D-22  TWOINT  =  1.00D-22  PREFAC  =  1.00D-14  LOCALI  =  1.00D-09  EORDER  =  1.00D-04
 ENERGY  =  1.00D-12  ETEST   =  0.00D+00  EDENS   =  0.00D+00  THRDEDEF=  1.00D-06  GRADIENT=  1.00D-02  STEP    =  1.00D-03
 ORBITAL =  1.00D-05  CIVEC   =  1.00D-05  COEFF   =  1.00D-04  PRINTCI =  5.00D-02  PUNCHCI =  9.90D+01  OPTGRAD =  3.00D-04
 OPTENERG=  1.00D-06  OPTSTEP =  3.00D-04  THRGRAD =  1.00D-10  COMPRESS=  1.00D-11  VARMIN  =  1.00D-07  VARMAX  =  1.00D-03
 THRDOUB =  0.00D+00  THRDIV  =  1.00D-05  THRRED  =  1.00D-07  THRPSP  =  1.00D+00  THRDC   =  1.00D-10  THRCS   =  1.00D-10
 THRNRM  =  1.00D-08  THREQ   =  0.00D+00  THRDE   =  1.00D+00  THRREF  =  1.00D-05  SPARFAC =  1.00D+00  THRDLP  =  1.00D-07
 THRDIA  =  1.00D-10  THRDLS  =  1.00D-07  THRGPS  =  0.00D+00  THRKEX  =  0.00D+00  THRDIS  =  2.00D-01  THRVAR  =  1.00D-10
 THRLOC  =  1.00D-06  THRGAP  =  1.00D-06  THRLOCT = -1.00D+00  THRGAPT = -1.00D+00  THRORB  =  1.00D-06  THRMLTP =  0.00D+00
 THRCPQCI=  1.00D-10  KEXTA   =  0.00D+00  THRCOARS=  0.00D+00  SYMTOL  =  1.00D-06  GRADTOL =  1.00D-06  THROVL  =  1.00D-08
 THRORTH =  1.00D-08  GRID    =  1.00D-06  GRIDMAX =  1.00D-03  DTMAX   =  0.00D+00  THROCCDE=  1.00D-01  THROCCDE=  1.00D-01



 THRESHOLDS:

 ZERO    =  1.00D-22  ONEINT  =  1.00D-22  TWOINT  =  1.00D-22  PREFAC  =  1.00D-14  LOCALI  =  1.00D-09  EORDER  =  1.00D-04
 ENERGY  =  1.00D-12  ETEST   =  0.00D+00  EDENS   =  0.00D+00  THRDEDEF=  1.00D-06  GRADIENT=  1.00D-02  STEP    =  1.00D-03
 ORBITAL =  1.00D-05  CIVEC   =  1.00D-05  COEFF   =  1.00D-04  PRINTCI =  5.00D-02  PUNCHCI =  9.90D+01  OPTGRAD =  1.00D-08
 OPTENERG=  1.00D-06  OPTSTEP =  1.00D-08  THRGRAD =  1.00D-10  COMPRESS=  1.00D-11  VARMIN  =  1.00D-07  VARMAX  =  1.00D-03
 THRDOUB =  0.00D+00  THRDIV  =  1.00D-05  THRRED  =  1.00D-07  THRPSP  =  1.00D+00  THRDC   =  1.00D-10  THRCS   =  1.00D-10
 THRNRM  =  1.00D-08  THREQ   =  0.00D+00  THRDE   =  1.00D+00  THRREF  =  1.00D-05  SPARFAC =  1.00D+00  THRDLP  =  1.00D-07
 THRDIA  =  1.00D-10  THRDLS  =  1.00D-07  THRGPS  =  0.00D+00  THRKEX  =  0.00D+00  THRDIS  =  2.00D-01  THRVAR  =  1.00D-10
 THRLOC  =  1.00D-06  THRGAP  =  1.00D-06  THRLOCT = -1.00D+00  THRGAPT = -1.00D+00  THRORB  =  1.00D-06  THRMLTP =  0.00D+00
 THRCPQCI=  1.00D-10  KEXTA   =  0.00D+00  THRCOARS=  0.00D+00  SYMTOL  =  1.00D-06  GRADTOL =  1.00D-06  THROVL  =  1.00D-08
 THRORTH =  1.00D-08  GRID    =  1.00D-06  GRIDMAX =  1.00D-03  DTMAX   =  0.00D+00  THROCCDE=  1.00D-01  THROCCDE=  1.00D-01



 Input parameters for SORTINT:

 COMPRESS =    0.000000
 C_FINAL  =    1.000000
 DEBUG    =   -1.000000
 C_SORT1  =    0.000000
 C_SEWARD =    0.000000
 THRESH   =    0.000000
 IO       =  molpro                                                          
 SPRI     =    0.000000
 SETTING GEOMTYP        =    XYZ
 ZUNIT=BOHR
 

 Variable memory set to  995000000 words,  buffer space   230000 words

 SETTING BASIS          =    AV5Z


 Recomputing integrals since basis changed


 Using spherical harmonics

 Library entry N      S aug-cc-pV5Z          selected for orbital group  1
 Library entry N      P aug-cc-pV5Z          selected for orbital group  1
 Library entry N      D aug-cc-pV5Z          selected for orbital group  1
 Library entry N      F aug-cc-pV5Z          selected for orbital group  1
 Library entry N      G aug-cc-pV5Z          selected for orbital group  1
 Library entry N      H aug-cc-pV5Z          selected for orbital group  1
 Library entry H      S aug-cc-pV5Z          selected for orbital group  2
 Library entry H      P aug-cc-pV5Z          selected for orbital group  2
 Library entry H      D aug-cc-pV5Z          selected for orbital group  2
 Library entry H      F aug-cc-pV5Z          selected for orbital group  2
 Library entry H      G aug-cc-pV5Z          selected for orbital group  2
 Library entry O      S aug-cc-pV5Z          selected for orbital group  3
 Library entry O      P aug-cc-pV5Z          selected for orbital group  3
 Library entry O      D aug-cc-pV5Z          selected for orbital group  3
 Library entry O      F aug-cc-pV5Z          selected for orbital group  3
 Library entry O      G aug-cc-pV5Z          selected for orbital group  3
 Library entry O      H aug-cc-pV5Z          selected for orbital group  3


 PROGRAM * SEWARD (Integral evaluation for generally contracted gaussian basis sets)     Author: Roland Lindh, 1990

 Geometry written to block  1 of record 700


 Point group  Cs  



 ATOMIC COORDINATES

 NR  ATOM    CHARGE       X              Y              Z

   1  N       7.00    0.000000000   -0.166482688   -1.145885027
   2  H       1.00    0.000000000    1.670985070   -1.929299572
   3  O       8.00    0.000000000    0.037265408    1.124595009

 Bond lengths in Bohr (Angstrom)

 1-2  1.997504972  1-3  2.279603667
     ( 1.057034110)     ( 1.206314311)

 Bond angles

  2-1-3  107.96337666

 NUCLEAR CHARGE:                   16
 NUMBER OF PRIMITIVE AOS:         506
 NUMBER OF SYMMETRY AOS:          371
 NUMBER OF CONTRACTIONS:          334   ( 204A'  + 130A"  )
 NUMBER OF CORE ORBITALS:           2   (   2A'  +   0A"  )
 NUMBER OF VALENCE ORBITALS:        9   (   7A'  +   2A"  )


 NUCLEAR REPULSION ENERGY   30.37989782


 Eigenvalues of metric

         1 0.113E-04 0.173E-04 0.642E-04 0.999E-04 0.104E-03 0.137E-03 0.201E-03 0.224E-03
         2 0.127E-03 0.370E-03 0.112E-02 0.157E-02 0.197E-02 0.252E-02 0.331E-02 0.395E-02


 Contracted 2-electron integrals neglected if value below      1.0D-22

      756977432. INTEGRALS WRITTEN OUT IN  184855 BLOCKS ON RECORD 1290 OF FILE 1


 NUMBER OF SORTED TWO-ELECTRON INTEGRALS:  789027325.     BUFFER LENGTH:  32768
 NUMBER OF SEGMENTS:  25  SEGMENT LENGTH:   31997130      RECORD LENGTH: 524288

 Memory used in sort:      32.55 MW

 SORT1 READ   756977432. AND WROTE   760993316. INTEGRALS IN   2189 RECORDS. CPU TIME:    27.06 SEC, REAL TIME:   169.68 SEC
 SORT2 READ   760993316. AND WROTE   789027325. INTEGRALS IN     25 RECORDS. CPU TIME:    10.14 SEC, REAL TIME:    31.29 SEC

 FILE SIZES:   FILE 1: 12137.5 MBYTE,  FILE 4:  9181.4 MBYTE,   TOTAL:  21318.9 MBYTE

 OPERATOR DM      FOR CENTER  0  COORDINATES:    0.000000    0.000000    0.000000


 **********************************************************************************************************************************
 DATASETS  * FILE   NREC   LENGTH (MB)   RECORD NAMES
              1      19     6374.22       500      610      700      900      950      970     1000      129      960     1100   
                                          VAR    BASINP    GEOM    SYMINP    ZMAT    AOBASIS   BASIS     P2S    ABASIS      S 
                                         1400     1410     1200     1210     1080     1600     1650     1300     1700   
                                           T        V       H0       H01     AOSYM     SMH    MOLCAS    ERIS     OPER   

 PROGRAMS   *        TOTAL       INT
 CPU TIMES  *       141.75    141.67
 REAL TIME  *       313.57 SEC
 DISK USED  *        21.32 GB      
 **********************************************************************************************************************************


 PROGRAM * RHF-SCF (CLOSED SHELL)       Authors: W. Meyer, H.-J. Werner


 NUMBER OF ELECTRONS:       8+    8-
 CONVERGENCE THRESHOLDS:    1.00E-10 (Density)    1.00E-13 (Energy)
 MAX. NUMBER OF ITERATIONS:      500
 INTERPOLATION TYPE:            DIIS
 INTERPOLATION STEPS:              2 (START)      1 (STEP)
 LEVEL SHIFTS:                  0.00 (CLOSED)  0.00 (OPEN) 



 Orbital guess generated from atomic densities. Full valence occupancy:    9   2

 Molecular orbital dump at record        2100.2

 Initial occupancy:   7   1

 ITERATION    DDIFF          GRAD             ENERGY        2-EL.EN.            DIPOLE MOMENTS         DIIS   ORB.
    1      0.000D+00      0.000D+00      -129.79854001    153.995742    0.00000    0.58941   -1.02387    0    start
    2      0.000D+00      0.642D-02      -129.82581451    155.224305    0.00000    0.60919   -0.20529    1    diag
    3      0.401D-02      0.489D-02      -129.84879600    155.346768    0.00000    0.55322   -0.59050    2    diag
    4      0.207D-02      0.767D-03      -129.84959892    155.062666    0.00000    0.56070   -0.52919    3    diag
    5      0.377D-03      0.249D-03      -129.84972546    155.156605    0.00000    0.56600   -0.53171    4    diag
    6      0.156D-03      0.725D-04      -129.84974579    155.140227    0.00000    0.56627   -0.52750    5    diag
    7      0.603D-04      0.360D-04      -129.84975168    155.143061    0.00000    0.56752   -0.52489    6    diag
    8      0.413D-04      0.126D-04      -129.84975235    155.142352    0.00000    0.56756   -0.52387    7    diag
    9      0.158D-04      0.244D-05      -129.84975238    155.142240    0.00000    0.56753   -0.52365    8    diag
   10      0.318D-05      0.551D-06      -129.84975238    155.142222    0.00000    0.56750   -0.52362    9    orth
   11      0.624D-06      0.111D-06      -129.84975238    155.142218    0.00000    0.56749   -0.52362    9    diag
   12      0.117D-06      0.226D-07      -129.84975238    155.142217    0.00000    0.56749   -0.52362    9    diag
   13      0.256D-07      0.593D-08      -129.84975238    155.142217    0.00000    0.56749   -0.52362    9    diag
   14      0.691D-08      0.116D-08      -129.84975238    155.142217    0.00000    0.56749   -0.52362    9    diag
   15      0.126D-08      0.331D-09      -129.84975238    155.142217    0.00000    0.56749   -0.52362    9    diag
   16      0.376D-09      0.100D-09      -129.84975238    155.142217    0.00000    0.56749   -0.52362    9    diag
   17      0.757D-10      0.269D-10      -129.84975238    155.142217    0.00000    0.56749   -0.52362    9    diag
   18      0.365D-10      0.927D-11      -129.84975238    155.142217    0.00000    0.56749   -0.52362    9    diag
   19      0.282D-10      0.233D-11      -129.84975238    155.142217    0.00000    0.56749   -0.52362    9    fixocc
   20      0.214D-10      0.602D-12      -129.84975238    155.142217    0.00000    0.56749   -0.52362    0    orth

 Final occupancy:   7   1

 !RHF STATE 1.1 Energy               -129.849752379351
 Nuclear energy                        30.37989782
 One-electron energy                 -237.80075883
 Two-electron energy                   77.57110862
 Virial quotient                       -1.00170472
 !RHF STATE 1.1 Dipole moment           0.00000000     0.56748539    -0.52361729
 Dipole moment /Debye                   0.00000000     1.44230951    -1.33081524

 Orbital energies:

         1.1          2.1          3.1          4.1          5.1          6.1          7.1          8.1          9.1
    -20.652821   -15.712604    -1.530711    -0.992601    -0.747151    -0.666536    -0.429912     0.022886     0.065555

         1.2          2.2          3.2
     -0.596935     0.060568     0.091819

 HOMO      7.1    -0.429912 =     -11.6985eV
 LUMO      8.1     0.022886 =       0.6228eV
 LUMO-HOMO         0.452798 =      12.3213eV


 **********************************************************************************************************************************
 DATASETS  * FILE   NREC   LENGTH (MB)   RECORD NAMES
              1      19     6374.22       500      610      700      900      950      970     1000      129      960     1100   
                                          VAR    BASINP    GEOM    SYMINP    ZMAT    AOBASIS   BASIS     P2S    ABASIS      S 
                                         1400     1410     1200     1210     1080     1600     1650     1300     1700   
                                           T        V       H0       H01     AOSYM     SMH    MOLCAS    ERIS     OPER   

              2       4        4.02       700     1000      520     2100   
                                         GEOM     BASIS   MCVARS     RHF  

 PROGRAMS   *        TOTAL        HF       INT
 CPU TIMES  *       221.53     79.78    141.67
 REAL TIME  *       413.86 SEC
 DISK USED  *        21.32 GB      
 **********************************************************************************************************************************


 PROGRAM * CCSD (Closed-shell coupled cluster)     Authors: C. Hampel, H.-J. Werner, 1991, M. Deegan, P.J. Knowles, 1992


 Convergence thresholds:  THRVAR = 1.00D-08  THRDEN = 1.00D-12

 CCSD(T)     terms to be evaluated (factor= 1.000)


 Number of core orbitals:           2 (   2   0 )
 Number of closed-shell orbitals:   6 (   5   1 )
 Number of external orbitals:     326 ( 197 129 )

 Molecular orbitals read from record     2100.2  Type=RHF/CANONICAL (state 1.1)

 Number of N-1 electron functions:               6
 Number of N-2 electron functions:              21
 Number of singly external CSFs:              1114
 Number of doubly external CSFs:            975958
 Total number of CSFs:                      977073

 Length of J-op  integral file:               0.00 MB
 Length of K-op  integral file:               4.07 MB
 Length of 3-ext integral record:             0.00 MB

 Memory could be reduced to 151.33 Mwords without degradation in triples

 Integral transformation finished. Total CPU:  13.56 sec, npass=  1  Memory used:  41.21 MW

 Reference energy:                   -129.84975238

 MP2 singlet pair energy:              -0.31111456
 MP2 triplet pair energy:              -0.17196837
 MP2 correlation energy:               -0.48308293
 MP2 total energy:                   -130.33283531

 SCS-MP2 correlation energy:           -0.48034001   (PS=  1.200000  PT=  0.333333)
 SCS-MP2 total energy:               -130.33009239

 ITER.      SQ.NORM     CORR.ENERGY   TOTAL ENERGY   ENERGY CHANGE        DEN1      VAR(S)    VAR(P)  DIIS     TIME  TIME/IT
   1      1.12057025    -0.48013248  -130.32988486     0.00295045     0.01958241  0.32D-02  0.32D-02  1  1    24.06    11.40
   2      1.13118440    -0.48002921  -130.32978159     0.00010328    -0.01265885  0.10D-03  0.49D-03  2  2    34.86    11.60
   3      1.13732617    -0.48041049  -130.33016287    -0.00038128    -0.00300160  0.48D-04  0.56D-04  3  3    45.60    11.67
   4      1.14010265    -0.48040808  -130.33016046     0.00000241    -0.00096638  0.45D-05  0.99D-05  4  4    56.31    11.70
   5      1.14122486    -0.48043711  -130.33018949    -0.00002904    -0.00024939  0.12D-05  0.17D-05  5  5    67.21    11.76
   6      1.14157836    -0.48042566  -130.33017804     0.00001145    -0.00004997  0.12D-06  0.40D-06  6  6    77.90    11.77
   7      1.14165432    -0.48042520  -130.33017758     0.00000046     0.00000322  0.18D-07  0.91D-07  6  1    88.63    11.77
   8      1.14167961    -0.48042522  -130.33017760    -0.00000002    -0.00000305  0.35D-08  0.19D-07  6  2    99.28    11.77
   9      1.14168822    -0.48042466  -130.33017704     0.00000056    -0.00000019  0.22D-08  0.20D-08  6  3   109.98    11.77
  10      1.14168372    -0.48042539  -130.33017777    -0.00000073     0.00000155  0.34D-09  0.32D-09  6  5   120.67    11.77
  11      1.14168563    -0.48042538  -130.33017775     0.00000001    -0.00000035  0.98D-10  0.27D-10  6  4   131.43    11.77
  12      1.14168519    -0.48042544  -130.33017782    -0.00000007     0.00000005  0.18D-10  0.62D-11  6  6   142.19    11.78
  13      1.14168498    -0.48042544  -130.33017782    -0.00000000    -0.00000003  0.31D-11  0.92D-12  6  1   152.77    11.77
  14      1.14168471    -0.48042546  -130.33017783    -0.00000001     0.00000004  0.46D-12  0.17D-12  6  3   163.39    11.78
  15      1.14168463    -0.48042546  -130.33017784    -0.00000000     0.00000001  0.12D-12  0.23D-13  6  2   174.16    11.78
  16      1.14168462    -0.48042546  -130.33017784     0.00000000     0.00000000  0.32D-13  0.91D-14  6  4   184.93    11.78
  17      1.14168462    -0.48042546  -130.33017784    -0.00000000    -0.00000000  0.18D-14  0.11D-14  6  5   195.52    11.78
  18      1.14168463    -0.48042546  -130.33017784     0.00000000    -0.00000000  0.28D-15  0.30D-15  6  6   206.15    11.78
  19      1.14168463    -0.48042546  -130.33017784     0.00000000    -0.00000000  0.53D-16  0.41D-16  6  1   216.88    11.78
  20      1.14168463    -0.48042546  -130.33017784     0.00000000    -0.00000000  0.11D-16  0.61D-17  6  3   227.49    11.78
  21      1.14168463    -0.48042546  -130.33017784    -0.00000000     0.00000000  0.21D-17  0.11D-17  6  2   238.08    11.78
  22      1.14168463    -0.48042546  -130.33017784    -0.00000000     0.00000000  0.43D-18  0.18D-18  6  4   248.74    11.78
  23      1.14168463    -0.48042546  -130.33017784    -0.00000000     0.00000000  0.82D-19  0.43D-19  6  5   259.30    11.78
  24      1.14168463    -0.48042546  -130.33017784    -0.00000000     0.00000000  0.37D-19  0.21D-19  6  6   270.04    11.78
  25      1.14168463    -0.48042546  -130.33017784     0.00000000    -0.00000000  0.19D-19  0.12D-19  6  1   280.77    11.79

 Norm of t1 vector:      0.07611512      S-energy:    -0.00000000      T1 diagnostic:  0.01553693
                                                                       D1 diagnostic:  0.04196789

 Doubles amplitudes (print threshold =  0.500E-01):

         I         J         SYM. A    SYM. B    A         B      T(IJ, AB)

         6         6         2         2         1         1     -0.07799448
         6         6         2         2         1         2      0.05298019
         6         6         2         2         2         1      0.05298019


 Total CPU time for triples:    111.57 sec


 RESULTS
 =======

  Reference energy                   -129.849752379351
  CCSD singlet pair energy             -0.333247931330
  CCSD triplet pair energy             -0.147177527263
  CCSD correlation energy              -0.480425458596

  Triples (T) contribution             -0.022896488184
  Total correlation energy             -0.503321946780

  CCSD total energy                  -130.330177837947
  CCSD[T] energy                     -130.354149334049
  CCSD-T energy                      -130.352695194790
 !CCSD(T) total energy               -130.353074326131

 Timing summary (sec):

 STEP                 CPU(USER)    SYS     CPU(TOT)    WALL
 Transformation         13.63      1.63     15.26     15.26
 CCSD iterations       267.15     27.52    294.67    294.70
 Triples               111.57      2.00    113.57    113.57

 Program statistics:

 Available memory in ccsd:               994999756
 Min. memory needed in ccsd:               3348832
 Max. memory used in ccsd:                 4143652
 Max. memory used in cckext:               8340089 (25 integral passes)



 **********************************************************************************************************************************
 DATASETS  * FILE   NREC   LENGTH (MB)   RECORD NAMES
              1      20     6809.41       500      610      700      900      950      970     1000      129      960     1100   
                                          VAR    BASINP    GEOM    SYMINP    ZMAT    AOBASIS   BASIS     P2S    ABASIS      S 
                                         1400     1410     1200     1210     1080     1600     1650     1300     1700     1380   
                                           T        V       H0       H01     AOSYM     SMH    MOLCAS    ERIS     OPER     JKOP   

              2       4        4.02       700     1000      520     2100   
                                         GEOM     BASIS   MCVARS     RHF  

 PROGRAMS   *        TOTAL   CCSD(T)        HF       INT
 CPU TIMES  *       613.90    392.36     79.78    141.67
 REAL TIME  *       837.43 SEC
 DISK USED  *        21.32 GB      
 **********************************************************************************************************************************

 CCSD(T)/aug-cc-pV5Z energy=   -130.353074326131

        CCSD(T)         HF-SCF  
   -130.35307433   -129.84975238
 **********************************************************************************************************************************
 Molpro calculation terminated
 Variable memory released
