
 Primary working directories    : /tmp/r2666/234674.maple
 Secondary working directories  : /tmp/r2666/234674.maple
 Wavefunction directory         : /ddn/home4/r2666/wfu/
 Main file repository           : /tmp/r2666/234674.maple/

 SHA1      : d5ffa45e93fdbca01ffc919aa182cfdae0147319
 NAME      : 2015.1.35
 ARCHNAME  : linux/x86_64
 FC        : /opt/intel/composer_xe_2015.1.133/bin/intel64/ifort
 BLASLIB   : -Wl,-_start-group /opt/intel/mkl/lib/intel64/libmkl_intel_ilp64.a /opt/intel/mkl/lib/intel64/libmkl_intel_thread.a /opt/intel/mkl/lib/intel64/libmkl_core.a -Wl,-_end-group
 id        : olemiss

 Nodes     nprocs
 cn034        1

 Using customized tuning parameters: mindgm=1; mindgv=20; mindgc=4; mindgr=1; noblas=0; minvec=7
 default implementation of scratch files=df  

 ***,hno CCSD(T)/TZ-F12 QFF
 memory, 995, m;
 gthresh,energy=1.d-12,zero=1.d-22,oneint=1.d-22,twoint=1.d-22;
 gthresh,optgrad=1.d-8,optstep=1.d-8;
 nocompress;
 geomtyp=xyz
 bohr
 geometry={
 3
         46        46
 N        0.0000000000       -0.1660083273       -1.1381157618
 H        0.0000000000        1.6637621183       -1.9154883467
 O        0.0000000000        0.0440139990        1.1030145174
 }
 
 basis=av5z
   {hf,maxit=500;accu,20;}
 {ccsd(t),nocheck,maxit=250;orbital,IGNORE_ERROR;}

 Variables initialized (889), CPU time= 0.01 sec
 Commands  initialized (702), CPU time= 0.00 sec, 572 directives.
 Default parameters read. Elapsed time= 0.05 sec

 Checking input...
 Passed
1


                                         ***  PROGRAM SYSTEM MOLPRO  ***
                                       Copyright, TTI GmbH Stuttgart, 2015
                                    Version 2015.1 linked Jul  9 2018 13:16:40


 **********************************************************************************************************************************
 LABEL *   hno CCSD(T)/TZ-F12 QFF                                                        
  64 bit serial version                                                                  DATE: 08-Feb-20          TIME: 17:24:42  
 **********************************************************************************************************************************

 SHA1:             d5ffa45e93fdbca01ffc919aa182cfdae0147319
 **********************************************************************************************************************************

 THRESHOLDS:

 ZERO    =  1.00D-22  ONEINT  =  1.00D-22  TWOINT  =  1.00D-22  PREFAC  =  1.00D-14  LOCALI  =  1.00D-09  EORDER  =  1.00D-04
 ENERGY  =  1.00D-12  ETEST   =  0.00D+00  EDENS   =  0.00D+00  THRDEDEF=  1.00D-06  GRADIENT=  1.00D-02  STEP    =  1.00D-03
 ORBITAL =  1.00D-05  CIVEC   =  1.00D-05  COEFF   =  1.00D-04  PRINTCI =  5.00D-02  PUNCHCI =  9.90D+01  OPTGRAD =  3.00D-04
 OPTENERG=  1.00D-06  OPTSTEP =  3.00D-04  THRGRAD =  1.00D-10  COMPRESS=  1.00D-11  VARMIN  =  1.00D-07  VARMAX  =  1.00D-03
 THRDOUB =  0.00D+00  THRDIV  =  1.00D-05  THRRED  =  1.00D-07  THRPSP  =  1.00D+00  THRDC   =  1.00D-10  THRCS   =  1.00D-10
 THRNRM  =  1.00D-08  THREQ   =  0.00D+00  THRDE   =  1.00D+00  THRREF  =  1.00D-05  SPARFAC =  1.00D+00  THRDLP  =  1.00D-07
 THRDIA  =  1.00D-10  THRDLS  =  1.00D-07  THRGPS  =  0.00D+00  THRKEX  =  0.00D+00  THRDIS  =  2.00D-01  THRVAR  =  1.00D-10
 THRLOC  =  1.00D-06  THRGAP  =  1.00D-06  THRLOCT = -1.00D+00  THRGAPT = -1.00D+00  THRORB  =  1.00D-06  THRMLTP =  0.00D+00
 THRCPQCI=  1.00D-10  KEXTA   =  0.00D+00  THRCOARS=  0.00D+00  SYMTOL  =  1.00D-06  GRADTOL =  1.00D-06  THROVL  =  1.00D-08
 THRORTH =  1.00D-08  GRID    =  1.00D-06  GRIDMAX =  1.00D-03  DTMAX   =  0.00D+00  THROCCDE=  1.00D-01  THROCCDE=  1.00D-01



 THRESHOLDS:

 ZERO    =  1.00D-22  ONEINT  =  1.00D-22  TWOINT  =  1.00D-22  PREFAC  =  1.00D-14  LOCALI  =  1.00D-09  EORDER  =  1.00D-04
 ENERGY  =  1.00D-12  ETEST   =  0.00D+00  EDENS   =  0.00D+00  THRDEDEF=  1.00D-06  GRADIENT=  1.00D-02  STEP    =  1.00D-03
 ORBITAL =  1.00D-05  CIVEC   =  1.00D-05  COEFF   =  1.00D-04  PRINTCI =  5.00D-02  PUNCHCI =  9.90D+01  OPTGRAD =  1.00D-08
 OPTENERG=  1.00D-06  OPTSTEP =  1.00D-08  THRGRAD =  1.00D-10  COMPRESS=  1.00D-11  VARMIN  =  1.00D-07  VARMAX  =  1.00D-03
 THRDOUB =  0.00D+00  THRDIV  =  1.00D-05  THRRED  =  1.00D-07  THRPSP  =  1.00D+00  THRDC   =  1.00D-10  THRCS   =  1.00D-10
 THRNRM  =  1.00D-08  THREQ   =  0.00D+00  THRDE   =  1.00D+00  THRREF  =  1.00D-05  SPARFAC =  1.00D+00  THRDLP  =  1.00D-07
 THRDIA  =  1.00D-10  THRDLS  =  1.00D-07  THRGPS  =  0.00D+00  THRKEX  =  0.00D+00  THRDIS  =  2.00D-01  THRVAR  =  1.00D-10
 THRLOC  =  1.00D-06  THRGAP  =  1.00D-06  THRLOCT = -1.00D+00  THRGAPT = -1.00D+00  THRORB  =  1.00D-06  THRMLTP =  0.00D+00
 THRCPQCI=  1.00D-10  KEXTA   =  0.00D+00  THRCOARS=  0.00D+00  SYMTOL  =  1.00D-06  GRADTOL =  1.00D-06  THROVL  =  1.00D-08
 THRORTH =  1.00D-08  GRID    =  1.00D-06  GRIDMAX =  1.00D-03  DTMAX   =  0.00D+00  THROCCDE=  1.00D-01  THROCCDE=  1.00D-01



 Input parameters for SORTINT:

 COMPRESS =    0.000000
 C_FINAL  =    1.000000
 DEBUG    =   -1.000000
 C_SORT1  =    0.000000
 C_SEWARD =    0.000000
 THRESH   =    0.000000
 IO       =  molpro                                                          
 SPRI     =    0.000000
 SETTING GEOMTYP        =    XYZ
 ZUNIT=BOHR
 

 Variable memory set to  995000000 words,  buffer space   230000 words

 SETTING BASIS          =    AV5Z


 Recomputing integrals since basis changed


 Using spherical harmonics

 Library entry N      S aug-cc-pV5Z          selected for orbital group  1
 Library entry N      P aug-cc-pV5Z          selected for orbital group  1
 Library entry N      D aug-cc-pV5Z          selected for orbital group  1
 Library entry N      F aug-cc-pV5Z          selected for orbital group  1
 Library entry N      G aug-cc-pV5Z          selected for orbital group  1
 Library entry N      H aug-cc-pV5Z          selected for orbital group  1
 Library entry H      S aug-cc-pV5Z          selected for orbital group  2
 Library entry H      P aug-cc-pV5Z          selected for orbital group  2
 Library entry H      D aug-cc-pV5Z          selected for orbital group  2
 Library entry H      F aug-cc-pV5Z          selected for orbital group  2
 Library entry H      G aug-cc-pV5Z          selected for orbital group  2
 Library entry O      S aug-cc-pV5Z          selected for orbital group  3
 Library entry O      P aug-cc-pV5Z          selected for orbital group  3
 Library entry O      D aug-cc-pV5Z          selected for orbital group  3
 Library entry O      F aug-cc-pV5Z          selected for orbital group  3
 Library entry O      G aug-cc-pV5Z          selected for orbital group  3
 Library entry O      H aug-cc-pV5Z          selected for orbital group  3


 PROGRAM * SEWARD (Integral evaluation for generally contracted gaussian basis sets)     Author: Roland Lindh, 1990

 Geometry written to block  1 of record 700


 Point group  Cs  



 ATOMIC COORDINATES

 NR  ATOM    CHARGE       X              Y              Z

   1  N       7.00    0.000000000   -0.166008327   -1.138115762
   2  H       1.00    0.000000000    1.663762118   -1.915488347
   3  O       8.00    0.000000000    0.044013999    1.103014517

 Bond lengths in Bohr (Angstrom)

 1-2  1.988056342  1-3  2.250949645
     ( 1.052034110)     ( 1.191151255)

 Bond angles

  2-1-3  107.66436374

 NUCLEAR CHARGE:                   16
 NUMBER OF PRIMITIVE AOS:         506
 NUMBER OF SYMMETRY AOS:          371
 NUMBER OF CONTRACTIONS:          334   ( 204A'  + 130A"  )
 NUMBER OF CORE ORBITALS:           2   (   2A'  +   0A"  )
 NUMBER OF VALENCE ORBITALS:        9   (   7A'  +   2A"  )


 NUCLEAR REPULSION ENERGY   30.73475217


 Eigenvalues of metric

         1 0.109E-04 0.165E-04 0.629E-04 0.946E-04 0.100E-03 0.132E-03 0.197E-03 0.222E-03
         2 0.121E-03 0.362E-03 0.106E-02 0.146E-02 0.190E-02 0.240E-02 0.323E-02 0.377E-02


 Contracted 2-electron integrals neglected if value below      1.0D-22

      756977648. INTEGRALS WRITTEN OUT IN  184855 BLOCKS ON RECORD 1290 OF FILE 1


 NUMBER OF SORTED TWO-ELECTRON INTEGRALS:  789027325.     BUFFER LENGTH:  32768
 NUMBER OF SEGMENTS:  25  SEGMENT LENGTH:   31997130      RECORD LENGTH: 524288

 Memory used in sort:      32.55 MW

 SORT1 READ   756977648. AND WROTE   760993544. INTEGRALS IN   2189 RECORDS. CPU TIME:    27.31 SEC, REAL TIME:   166.05 SEC
 SORT2 READ   760993544. AND WROTE   789027325. INTEGRALS IN     25 RECORDS. CPU TIME:    11.32 SEC, REAL TIME:    71.71 SEC

 FILE SIZES:   FILE 1: 12137.5 MBYTE,  FILE 4:  9181.4 MBYTE,   TOTAL:  21318.9 MBYTE

 OPERATOR DM      FOR CENTER  0  COORDINATES:    0.000000    0.000000    0.000000


 **********************************************************************************************************************************
 DATASETS  * FILE   NREC   LENGTH (MB)   RECORD NAMES
              1      19     6374.22       500      610      700      900      950      970     1000      129      960     1100   
                                          VAR    BASINP    GEOM    SYMINP    ZMAT    AOBASIS   BASIS     P2S    ABASIS      S 
                                         1400     1410     1200     1210     1080     1600     1650     1300     1700   
                                           T        V       H0       H01     AOSYM     SMH    MOLCAS    ERIS     OPER   

 PROGRAMS   *        TOTAL       INT
 CPU TIMES  *       145.68    145.60
 REAL TIME  *       352.43 SEC
 DISK USED  *        21.32 GB      
 **********************************************************************************************************************************


 PROGRAM * RHF-SCF (CLOSED SHELL)       Authors: W. Meyer, H.-J. Werner


 NUMBER OF ELECTRONS:       8+    8-
 CONVERGENCE THRESHOLDS:    1.00E-10 (Density)    1.00E-13 (Energy)
 MAX. NUMBER OF ITERATIONS:      500
 INTERPOLATION TYPE:            DIIS
 INTERPOLATION STEPS:              2 (START)      1 (STEP)
 LEVEL SHIFTS:                  0.00 (CLOSED)  0.00 (OPEN) 



 Orbital guess generated from atomic densities. Full valence occupancy:    9   2

 Molecular orbital dump at record        2100.2

 Initial occupancy:   7   1

 ITERATION    DDIFF          GRAD             ENERGY        2-EL.EN.            DIPOLE MOMENTS         DIIS   ORB.
    1      0.000D+00      0.000D+00      -129.80277692    154.637589    0.00000    0.58323   -0.97385    0    start
    2      0.000D+00      0.630D-02      -129.83042759    155.884926    0.00000    0.59998   -0.21158    1    diag
    3      0.387D-02      0.463D-02      -129.85083563    155.975969    0.00000    0.54658   -0.56664    2    diag
    4      0.197D-02      0.750D-03      -129.85160121    155.704940    0.00000    0.55459   -0.50810    3    diag
    5      0.369D-03      0.243D-03      -129.85172055    155.796928    0.00000    0.55978   -0.51086    4    diag
    6      0.152D-03      0.704D-04      -129.85173956    155.780839    0.00000    0.56012   -0.50696    5    diag
    7      0.582D-04      0.345D-04      -129.85174488    155.783790    0.00000    0.56139   -0.50456    6    diag
    8      0.394D-04      0.115D-04      -129.85174542    155.783137    0.00000    0.56144   -0.50366    7    diag
    9      0.140D-04      0.218D-05      -129.85174544    155.783038    0.00000    0.56141   -0.50346    8    diag
   10      0.273D-05      0.507D-06      -129.85174544    155.783021    0.00000    0.56138   -0.50343    9    orth
   11      0.571D-06      0.105D-06      -129.85174544    155.783017    0.00000    0.56137   -0.50343    9    diag
   12      0.112D-06      0.211D-07      -129.85174544    155.783017    0.00000    0.56137   -0.50343    9    diag
   13      0.249D-07      0.542D-08      -129.85174544    155.783016    0.00000    0.56137   -0.50343    9    diag
   14      0.647D-08      0.108D-08      -129.85174544    155.783016    0.00000    0.56137   -0.50343    9    diag
   15      0.120D-08      0.320D-09      -129.85174544    155.783016    0.00000    0.56137   -0.50343    9    diag
   16      0.356D-09      0.101D-09      -129.85174544    155.783016    0.00000    0.56137   -0.50343    9    diag
   17      0.805D-10      0.280D-10      -129.85174544    155.783016    0.00000    0.56137   -0.50343    9    diag
   18      0.242D-10      0.934D-11      -129.85174544    155.783016    0.00000    0.56137   -0.50343    9    diag
   19      0.181D-10      0.234D-11      -129.85174544    155.783016    0.00000    0.56137   -0.50343    9    fixocc
   20      0.933D-11      0.527D-12      -129.85174544    155.783016    0.00000    0.56137   -0.50343    9    orth
   21      0.631D-11      0.435D-12      -129.85174544    155.783016    0.00000    0.56137   -0.50343    9    diag
   22      0.717D-11      0.388D-12      -129.85174544    155.783016    0.00000    0.56137   -0.50343    9    diag
   23      0.449D-11      0.261D-12      -129.85174544    155.783016    0.00000    0.56137   -0.50343    9    diag
   24      0.293D-11      0.206D-12      -129.85174544    155.783016    0.00000    0.56137   -0.50343    9    diag
   25      0.265D-11      0.324D-12      -129.85174544    155.783016    0.00000    0.56137   -0.50343    9    diag
   26      0.159D-11      0.242D-12      -129.85174544    155.783016    0.00000    0.56137   -0.50343    9    diag
   27      0.186D-11      0.247D-12      -129.85174544    155.783016    0.00000    0.56137   -0.50343    9    diag
   28      0.896D-12      0.267D-12      -129.85174544    155.783016    0.00000    0.56137   -0.50343    9    diag
   29      0.391D-12      0.320D-12      -129.85174544    155.783016    0.00000    0.56137   -0.50343    9    diag
   30      0.439D-12      0.270D-12      -129.85174544    155.783016    0.00000    0.56137   -0.50343    9    orth
   31      0.532D-12      0.202D-12      -129.85174544    155.783016    0.00000    0.56137   -0.50343    9    diag
   32      0.235D-12      0.227D-12      -129.85174544    155.783016    0.00000    0.56137   -0.50343    9    diag
   33      0.614D-12      0.208D-12      -129.85174544    155.783016    0.00000    0.56137   -0.50343    9    diag
   34      0.877D-12      0.227D-12      -129.85174544    155.783016    0.00000    0.56137   -0.50343    9    diag
   35      0.397D-12      0.189D-12      -129.85174544    155.783016    0.00000    0.56137   -0.50343    0    orth

 Final occupancy:   7   1

 !RHF STATE 1.1 Energy               -129.851745441301
 Nuclear energy                        30.73475217
 One-electron energy                 -238.47800579
 Two-electron energy                   77.89150818
 Virial quotient                       -1.00116100
 !RHF STATE 1.1 Dipole moment           0.00000000     0.56137000    -0.50342869
 Dipole moment /Debye                   0.00000000     1.42676677    -1.27950429

 Orbital energies:

         1.1          2.1          3.1          4.1          5.1          6.1          7.1          8.1          9.1
    -20.651182   -15.709377    -1.543576    -0.990132    -0.752454    -0.670847    -0.425660     0.023083     0.065573

         1.2          2.2          3.2
     -0.604268     0.063447     0.093333

 HOMO      7.1    -0.425660 =     -11.5828eV
 LUMO      8.1     0.023083 =       0.6281eV
 LUMO-HOMO         0.448742 =      12.2109eV


 **********************************************************************************************************************************
 DATASETS  * FILE   NREC   LENGTH (MB)   RECORD NAMES
              1      19     6374.22       500      610      700      900      950      970     1000      129      960     1100   
                                          VAR    BASINP    GEOM    SYMINP    ZMAT    AOBASIS   BASIS     P2S    ABASIS      S 
                                         1400     1410     1200     1210     1080     1600     1650     1300     1700   
                                           T        V       H0       H01     AOSYM     SMH    MOLCAS    ERIS     OPER   

              2       4        4.02       700     1000      520     2100   
                                         GEOM     BASIS   MCVARS     RHF  

 PROGRAMS   *        TOTAL        HF       INT
 CPU TIMES  *       282.84    137.15    145.60
 REAL TIME  *       524.70 SEC
 DISK USED  *        21.32 GB      
 **********************************************************************************************************************************


 PROGRAM * CCSD (Closed-shell coupled cluster)     Authors: C. Hampel, H.-J. Werner, 1991, M. Deegan, P.J. Knowles, 1992


 Convergence thresholds:  THRVAR = 1.00D-08  THRDEN = 1.00D-12

 CCSD(T)     terms to be evaluated (factor= 1.000)


 Number of core orbitals:           2 (   2   0 )
 Number of closed-shell orbitals:   6 (   5   1 )
 Number of external orbitals:     326 ( 197 129 )

 Molecular orbitals read from record     2100.2  Type=RHF/CANONICAL (state 1.1)

 Number of N-1 electron functions:               6
 Number of N-2 electron functions:              21
 Number of singly external CSFs:              1114
 Number of doubly external CSFs:            975958
 Total number of CSFs:                      977073

 Length of J-op  integral file:               0.00 MB
 Length of K-op  integral file:               4.07 MB
 Length of 3-ext integral record:             0.00 MB

 Memory could be reduced to 151.33 Mwords without degradation in triples

 Integral transformation finished. Total CPU:  13.65 sec, npass=  1  Memory used:  41.21 MW

 Reference energy:                   -129.85174544

 MP2 singlet pair energy:              -0.30949143
 MP2 triplet pair energy:              -0.17088725
 MP2 correlation energy:               -0.48037868
 MP2 total energy:                   -130.33212412

 SCS-MP2 correlation energy:           -0.47771956   (PS=  1.200000  PT=  0.333333)
 SCS-MP2 total energy:               -130.32946500

 ITER.      SQ.NORM     CORR.ENERGY   TOTAL ENERGY   ENERGY CHANGE        DEN1      VAR(S)    VAR(P)  DIIS     TIME  TIME/IT
   1      1.11879522    -0.47803981  -130.32978525     0.00233887     0.01827504  0.29D-02  0.30D-02  1  1    24.17    11.40
   2      1.12900167    -0.47806615  -130.32981159    -0.00002634    -0.01223922  0.96D-04  0.46D-03  2  2    35.41    11.83
   3      1.13483331    -0.47842171  -130.33016715    -0.00035556    -0.00290538  0.43D-04  0.52D-04  3  3    46.13    11.82
   4      1.13742760    -0.47841976  -130.33016520     0.00000194    -0.00091627  0.39D-05  0.91D-05  4  4    56.86    11.82
   5      1.13844187    -0.47844601  -130.33019145    -0.00002624    -0.00022663  0.10D-05  0.16D-05  5  5    67.55    11.82
   6      1.13876738    -0.47843605  -130.33018149     0.00000996    -0.00004559  0.11D-06  0.39D-06  6  6    78.27    11.82
   7      1.13884125    -0.47843558  -130.33018102     0.00000047     0.00000254  0.17D-07  0.86D-07  6  1    89.04    11.82
   8      1.13886532    -0.47843575  -130.33018119    -0.00000017    -0.00000275  0.37D-08  0.17D-07  6  2    99.71    11.82
   9      1.13887351    -0.47843526  -130.33018070     0.00000049    -0.00000027  0.20D-08  0.17D-08  6  3   110.45    11.82
  10      1.13886944    -0.47843593  -130.33018137    -0.00000067     0.00000142  0.30D-09  0.26D-09  6  5   121.17    11.82
  11      1.13887102    -0.47843592  -130.33018136     0.00000000    -0.00000026  0.83D-10  0.22D-10  6  4   131.91    11.82
  12      1.13887060    -0.47843598  -130.33018142    -0.00000006     0.00000005  0.16D-10  0.52D-11  6  6   142.81    11.84
  13      1.13887025    -0.47843599  -130.33018143    -0.00000001    -0.00000003  0.16D-11  0.66D-12  6  4   153.59    11.84
  14      1.13887016    -0.47843599  -130.33018144    -0.00000001     0.00000002  0.45D-12  0.15D-12  6  1   164.29    11.84
  15      1.13887010    -0.47843600  -130.33018144    -0.00000000     0.00000001  0.86D-13  0.28D-13  6  3   175.04    11.84
  16      1.13887008    -0.47843600  -130.33018144    -0.00000000     0.00000001  0.17D-13  0.60D-14  6  2   185.70    11.84
  17      1.13887008    -0.47843600  -130.33018144    -0.00000000     0.00000000  0.18D-14  0.15D-14  6  5   196.48    11.84
  18      1.13887009    -0.47843600  -130.33018144     0.00000000    -0.00000000  0.28D-15  0.27D-15  6  6   207.12    11.84
  19      1.13887009    -0.47843600  -130.33018144     0.00000000    -0.00000000  0.69D-16  0.49D-16  6  4   217.84    11.84
  20      1.13887009    -0.47843600  -130.33018144     0.00000000    -0.00000000  0.89D-17  0.70D-17  6  3   228.55    11.84
  21      1.13887009    -0.47843600  -130.33018144     0.00000000    -0.00000000  0.17D-17  0.12D-17  6  1   239.21    11.84
  22      1.13887009    -0.47843600  -130.33018144    -0.00000000     0.00000000  0.48D-18  0.34D-18  6  2   250.05    11.85
  23      1.13887009    -0.47843600  -130.33018144     0.00000000    -0.00000000  0.18D-18  0.16D-18  6  1   260.72    11.85
  24      1.13887009    -0.47843600  -130.33018144     0.00000000    -0.00000000  0.80D-19  0.78D-19  6  5   271.55    11.84

 Norm of t1 vector:      0.07341793      S-energy:    -0.00000000      T1 diagnostic:  0.01498637
                                                                       D1 diagnostic:  0.04000789

 Doubles amplitudes (print threshold =  0.500E-01):

         I         J         SYM. A    SYM. B    A         B      T(IJ, AB)

         6         6         2         2         1         1     -0.06617148
         6         6         2         2         1         2      0.05223474
         6         6         2         2         2         1      0.05223474


 Total CPU time for triples:    113.64 sec


 RESULTS
 =======

  Reference energy                   -129.851745441302
  CCSD singlet pair energy             -0.331526853421
  CCSD triplet pair energy             -0.146909144262
  CCSD correlation energy              -0.478435997685

  Triples (T) contribution             -0.022382929218
  Total correlation energy             -0.500818926903

  CCSD total energy                  -130.330181438987
  CCSD[T] energy                     -130.353569280108
  CCSD-T energy                      -130.352203305091
 !CCSD(T) total energy               -130.352564368204

 Timing summary (sec):

 STEP                 CPU(USER)    SYS     CPU(TOT)    WALL
 Transformation         13.72      1.44     15.16     15.17
 CCSD iterations       257.84     26.43    284.27    284.28
 Triples               113.64      1.98    115.62    115.63

 Program statistics:

 Available memory in ccsd:               994999756
 Min. memory needed in ccsd:               3348832
 Max. memory used in ccsd:                 4143652
 Max. memory used in cckext:               8340089 (24 integral passes)



 **********************************************************************************************************************************
 DATASETS  * FILE   NREC   LENGTH (MB)   RECORD NAMES
              1      20     6809.41       500      610      700      900      950      970     1000      129      960     1100   
                                          VAR    BASINP    GEOM    SYMINP    ZMAT    AOBASIS   BASIS     P2S    ABASIS      S 
                                         1400     1410     1200     1210     1080     1600     1650     1300     1700     1380   
                                           T        V       H0       H01     AOSYM     SMH    MOLCAS    ERIS     OPER     JKOP   

              2       4        4.02       700     1000      520     2100   
                                         GEOM     BASIS   MCVARS     RHF  

 PROGRAMS   *        TOTAL   CCSD(T)        HF       INT
 CPU TIMES  *       668.07    385.24    137.15    145.60
 REAL TIME  *       939.83 SEC
 DISK USED  *        21.32 GB      
 **********************************************************************************************************************************

 CCSD(T)/aug-cc-pV5Z energy=   -130.352564368204

        CCSD(T)         HF-SCF  
   -130.35256437   -129.85174544
 **********************************************************************************************************************************
 Molpro calculation terminated
 Variable memory released
