
 Primary working directories    : /tmp/r2666/235555.maple
 Secondary working directories  : /tmp/r2666/235555.maple
 Wavefunction directory         : /ddn/home4/r2666/wfu/
 Main file repository           : /tmp/r2666/235555.maple/

 SHA1      : d5ffa45e93fdbca01ffc919aa182cfdae0147319
 NAME      : 2015.1.35
 ARCHNAME  : linux/x86_64
 FC        : /opt/intel/composer_xe_2015.1.133/bin/intel64/ifort
 BLASLIB   : -Wl,-_start-group /opt/intel/mkl/lib/intel64/libmkl_intel_ilp64.a /opt/intel/mkl/lib/intel64/libmkl_intel_thread.a /opt/intel/mkl/lib/intel64/libmkl_core.a -Wl,-_end-group
 id        : olemiss

 Nodes     nprocs
 cn096        1

 Using customized tuning parameters: mindgm=1; mindgv=20; mindgc=4; mindgr=1; noblas=0; minvec=7
 default implementation of scratch files=df  

 ***,hno CCSD(T)/TZ-F12 QFF
 memory, 995, m;
 gthresh,energy=1.d-12,zero=1.d-22,oneint=1.d-22,twoint=1.d-22;
 gthresh,optgrad=1.d-8,optstep=1.d-8;
 nocompress;
 geomtyp=xyz
 bohr
 geometry={
 3
        108       108
 N        0.0000000000       -0.1640675477       -1.1506867287
 H        0.0000000000        1.6725291487       -1.9361411755
 O        0.0000000000        0.0333061890        1.1362383132
 }
 
 basis=av5z
   {hf,maxit=500;accu,20;}
 {ccsd(t),nocheck,maxit=250;orbital,IGNORE_ERROR;}

 Variables initialized (889), CPU time= 0.00 sec
 Commands  initialized (702), CPU time= 0.01 sec, 572 directives.
 Default parameters read. Elapsed time= 0.11 sec

 Checking input...
 Passed
1


                                         ***  PROGRAM SYSTEM MOLPRO  ***
                                       Copyright, TTI GmbH Stuttgart, 2015
                                    Version 2015.1 linked Jul  9 2018 13:16:40


 **********************************************************************************************************************************
 LABEL *   hno CCSD(T)/TZ-F12 QFF                                                        
  64 bit serial version                                                                  DATE: 09-Feb-20          TIME: 14:31:21  
 **********************************************************************************************************************************

 SHA1:             d5ffa45e93fdbca01ffc919aa182cfdae0147319
 **********************************************************************************************************************************

 THRESHOLDS:

 ZERO    =  1.00D-22  ONEINT  =  1.00D-22  TWOINT  =  1.00D-22  PREFAC  =  1.00D-14  LOCALI  =  1.00D-09  EORDER  =  1.00D-04
 ENERGY  =  1.00D-12  ETEST   =  0.00D+00  EDENS   =  0.00D+00  THRDEDEF=  1.00D-06  GRADIENT=  1.00D-02  STEP    =  1.00D-03
 ORBITAL =  1.00D-05  CIVEC   =  1.00D-05  COEFF   =  1.00D-04  PRINTCI =  5.00D-02  PUNCHCI =  9.90D+01  OPTGRAD =  3.00D-04
 OPTENERG=  1.00D-06  OPTSTEP =  3.00D-04  THRGRAD =  1.00D-10  COMPRESS=  1.00D-11  VARMIN  =  1.00D-07  VARMAX  =  1.00D-03
 THRDOUB =  0.00D+00  THRDIV  =  1.00D-05  THRRED  =  1.00D-07  THRPSP  =  1.00D+00  THRDC   =  1.00D-10  THRCS   =  1.00D-10
 THRNRM  =  1.00D-08  THREQ   =  0.00D+00  THRDE   =  1.00D+00  THRREF  =  1.00D-05  SPARFAC =  1.00D+00  THRDLP  =  1.00D-07
 THRDIA  =  1.00D-10  THRDLS  =  1.00D-07  THRGPS  =  0.00D+00  THRKEX  =  0.00D+00  THRDIS  =  2.00D-01  THRVAR  =  1.00D-10
 THRLOC  =  1.00D-06  THRGAP  =  1.00D-06  THRLOCT = -1.00D+00  THRGAPT = -1.00D+00  THRORB  =  1.00D-06  THRMLTP =  0.00D+00
 THRCPQCI=  1.00D-10  KEXTA   =  0.00D+00  THRCOARS=  0.00D+00  SYMTOL  =  1.00D-06  GRADTOL =  1.00D-06  THROVL  =  1.00D-08
 THRORTH =  1.00D-08  GRID    =  1.00D-06  GRIDMAX =  1.00D-03  DTMAX   =  0.00D+00  THROCCDE=  1.00D-01  THROCCDE=  1.00D-01



 THRESHOLDS:

 ZERO    =  1.00D-22  ONEINT  =  1.00D-22  TWOINT  =  1.00D-22  PREFAC  =  1.00D-14  LOCALI  =  1.00D-09  EORDER  =  1.00D-04
 ENERGY  =  1.00D-12  ETEST   =  0.00D+00  EDENS   =  0.00D+00  THRDEDEF=  1.00D-06  GRADIENT=  1.00D-02  STEP    =  1.00D-03
 ORBITAL =  1.00D-05  CIVEC   =  1.00D-05  COEFF   =  1.00D-04  PRINTCI =  5.00D-02  PUNCHCI =  9.90D+01  OPTGRAD =  1.00D-08
 OPTENERG=  1.00D-06  OPTSTEP =  1.00D-08  THRGRAD =  1.00D-10  COMPRESS=  1.00D-11  VARMIN  =  1.00D-07  VARMAX  =  1.00D-03
 THRDOUB =  0.00D+00  THRDIV  =  1.00D-05  THRRED  =  1.00D-07  THRPSP  =  1.00D+00  THRDC   =  1.00D-10  THRCS   =  1.00D-10
 THRNRM  =  1.00D-08  THREQ   =  0.00D+00  THRDE   =  1.00D+00  THRREF  =  1.00D-05  SPARFAC =  1.00D+00  THRDLP  =  1.00D-07
 THRDIA  =  1.00D-10  THRDLS  =  1.00D-07  THRGPS  =  0.00D+00  THRKEX  =  0.00D+00  THRDIS  =  2.00D-01  THRVAR  =  1.00D-10
 THRLOC  =  1.00D-06  THRGAP  =  1.00D-06  THRLOCT = -1.00D+00  THRGAPT = -1.00D+00  THRORB  =  1.00D-06  THRMLTP =  0.00D+00
 THRCPQCI=  1.00D-10  KEXTA   =  0.00D+00  THRCOARS=  0.00D+00  SYMTOL  =  1.00D-06  GRADTOL =  1.00D-06  THROVL  =  1.00D-08
 THRORTH =  1.00D-08  GRID    =  1.00D-06  GRIDMAX =  1.00D-03  DTMAX   =  0.00D+00  THROCCDE=  1.00D-01  THROCCDE=  1.00D-01



 Input parameters for SORTINT:

 COMPRESS =    0.000000
 C_FINAL  =    1.000000
 DEBUG    =   -1.000000
 C_SORT1  =    0.000000
 C_SEWARD =    0.000000
 THRESH   =    0.000000
 IO       =  molpro                                                          
 SPRI     =    0.000000
 SETTING GEOMTYP        =    XYZ
 ZUNIT=BOHR
 

 Variable memory set to  995000000 words,  buffer space   230000 words

 SETTING BASIS          =    AV5Z


 Recomputing integrals since basis changed


 Using spherical harmonics

 Library entry N      S aug-cc-pV5Z          selected for orbital group  1
 Library entry N      P aug-cc-pV5Z          selected for orbital group  1
 Library entry N      D aug-cc-pV5Z          selected for orbital group  1
 Library entry N      F aug-cc-pV5Z          selected for orbital group  1
 Library entry N      G aug-cc-pV5Z          selected for orbital group  1
 Library entry N      H aug-cc-pV5Z          selected for orbital group  1
 Library entry H      S aug-cc-pV5Z          selected for orbital group  2
 Library entry H      P aug-cc-pV5Z          selected for orbital group  2
 Library entry H      D aug-cc-pV5Z          selected for orbital group  2
 Library entry H      F aug-cc-pV5Z          selected for orbital group  2
 Library entry H      G aug-cc-pV5Z          selected for orbital group  2
 Library entry O      S aug-cc-pV5Z          selected for orbital group  3
 Library entry O      P aug-cc-pV5Z          selected for orbital group  3
 Library entry O      D aug-cc-pV5Z          selected for orbital group  3
 Library entry O      F aug-cc-pV5Z          selected for orbital group  3
 Library entry O      G aug-cc-pV5Z          selected for orbital group  3
 Library entry O      H aug-cc-pV5Z          selected for orbital group  3


 PROGRAM * SEWARD (Integral evaluation for generally contracted gaussian basis sets)     Author: Roland Lindh, 1990

 Geometry written to block  1 of record 700


 Point group  Cs  



 ATOMIC COORDINATES

 NR  ATOM    CHARGE       X              Y              Z

   1  N       7.00    0.000000000   -0.164067548   -1.150686729
   2  H       1.00    0.000000000    1.672529149   -1.936141175
   3  O       8.00    0.000000000    0.033306189    1.136238313

 Bond lengths in Bohr (Angstrom)

 1-2  1.997504972  1-3  2.295426440
     ( 1.057034110)     ( 1.214687361)

 Bond angles

  2-1-3  108.22216105

 NUCLEAR CHARGE:                   16
 NUMBER OF PRIMITIVE AOS:         506
 NUMBER OF SYMMETRY AOS:          371
 NUMBER OF CONTRACTIONS:          334   ( 204A'  + 130A"  )
 NUMBER OF CORE ORBITALS:           2   (   2A'  +   0A"  )
 NUMBER OF VALENCE ORBITALS:        9   (   7A'  +   2A"  )


 NUCLEAR REPULSION ENERGY   30.19802767


 Eigenvalues of metric

         1 0.115E-04 0.176E-04 0.645E-04 0.102E-03 0.107E-03 0.139E-03 0.202E-03 0.225E-03
         2 0.130E-03 0.371E-03 0.115E-02 0.163E-02 0.199E-02 0.259E-02 0.333E-02 0.399E-02


 Contracted 2-electron integrals neglected if value below      1.0D-22

      756977356. INTEGRALS WRITTEN OUT IN  184855 BLOCKS ON RECORD 1290 OF FILE 1


 NUMBER OF SORTED TWO-ELECTRON INTEGRALS:  789027325.     BUFFER LENGTH:  32768
 NUMBER OF SEGMENTS:  25  SEGMENT LENGTH:   31997130      RECORD LENGTH: 524288

 Memory used in sort:      32.55 MW

 SORT1 READ   756977356. AND WROTE   760993236. INTEGRALS IN   2189 RECORDS. CPU TIME:    13.36 SEC, REAL TIME:    17.96 SEC
 SORT2 READ   760993236. AND WROTE   789027325. INTEGRALS IN     25 RECORDS. CPU TIME:     8.20 SEC, REAL TIME:    11.84 SEC

 FILE SIZES:   FILE 1: 12137.5 MBYTE,  FILE 4:  9181.4 MBYTE,   TOTAL:  21318.9 MBYTE

 OPERATOR DM      FOR CENTER  0  COORDINATES:    0.000000    0.000000    0.000000


 **********************************************************************************************************************************
 DATASETS  * FILE   NREC   LENGTH (MB)   RECORD NAMES
              1      19     6374.22       500      610      700      900      950      970     1000      129      960     1100   
                                          VAR    BASINP    GEOM    SYMINP    ZMAT    AOBASIS   BASIS     P2S    ABASIS      S 
                                         1400     1410     1200     1210     1080     1600     1650     1300     1700   
                                           T        V       H0       H01     AOSYM     SMH    MOLCAS    ERIS     OPER   

 PROGRAMS   *        TOTAL       INT
 CPU TIMES  *       108.45    108.33
 REAL TIME  *       124.36 SEC
 DISK USED  *        21.32 GB      
 **********************************************************************************************************************************


 PROGRAM * RHF-SCF (CLOSED SHELL)       Authors: W. Meyer, H.-J. Werner


 NUMBER OF ELECTRONS:       8+    8-
 CONVERGENCE THRESHOLDS:    1.00E-10 (Density)    1.00E-13 (Energy)
 MAX. NUMBER OF ITERATIONS:      500
 INTERPOLATION TYPE:            DIIS
 INTERPOLATION STEPS:              2 (START)      1 (STEP)
 LEVEL SHIFTS:                  0.00 (CLOSED)  0.00 (OPEN) 



 Orbital guess generated from atomic densities. Full valence occupancy:    9   2

 Molecular orbital dump at record        2100.2

 Initial occupancy:   7   1

 ITERATION    DDIFF          GRAD             ENERGY        2-EL.EN.            DIPOLE MOMENTS         DIIS   ORB.
    1      0.000D+00      0.000D+00      -129.79607701    153.668876    0.00000    0.59541   -1.05179    0    start
    2      0.000D+00      0.648D-02      -129.82305463    154.881539    0.00000    0.61432   -0.20214    1    diag
    3      0.408D-02      0.503D-02      -129.84745993    155.022953    0.00000    0.55814   -0.60417    2    diag
    4      0.212D-02      0.775D-03      -129.84828259    154.732135    0.00000    0.56529   -0.54134    3    diag
    5      0.382D-03      0.252D-03      -129.84841251    154.826969    0.00000    0.57061   -0.54374    4    diag
    6      0.159D-03      0.733D-04      -129.84843341    154.810473    0.00000    0.57085   -0.53938    5    diag
    7      0.612D-04      0.367D-04      -129.84843959    154.813225    0.00000    0.57208   -0.53665    6    diag
    8      0.421D-04      0.132D-04      -129.84844034    154.812487    0.00000    0.57212   -0.53556    7    diag
    9      0.168D-04      0.258D-05      -129.84844037    154.812367    0.00000    0.57208   -0.53532    8    diag
   10      0.346D-05      0.575D-06      -129.84844038    154.812348    0.00000    0.57205   -0.53529    9    orth
   11      0.654D-06      0.115D-06      -129.84844038    154.812344    0.00000    0.57204   -0.53529    9    diag
   12      0.120D-06      0.235D-07      -129.84844038    154.812344    0.00000    0.57204   -0.53529    9    diag
   13      0.259D-07      0.629D-08      -129.84844038    154.812344    0.00000    0.57204   -0.53529    9    diag
   14      0.718D-08      0.122D-08      -129.84844038    154.812343    0.00000    0.57204   -0.53529    9    diag
   15      0.130D-08      0.344D-09      -129.84844038    154.812344    0.00000    0.57204   -0.53529    9    diag
   16      0.391D-09      0.101D-09      -129.84844038    154.812343    0.00000    0.57204   -0.53529    9    diag
   17      0.753D-10      0.258D-10      -129.84844038    154.812343    0.00000    0.57204   -0.53529    9    diag
   18      0.238D-10      0.866D-11      -129.84844038    154.812343    0.00000    0.57204   -0.53529    9    diag
   19      0.167D-10      0.204D-11      -129.84844038    154.812343    0.00000    0.57204   -0.53529    9    fixocc
   20      0.103D-10      0.516D-12      -129.84844038    154.812343    0.00000    0.57204   -0.53529    9    orth
   21      0.760D-11      0.389D-12      -129.84844038    154.812343    0.00000    0.57204   -0.53529    9    diag
   22      0.764D-11      0.294D-12      -129.84844038    154.812343    0.00000    0.57204   -0.53529    9    diag
   23      0.542D-11      0.208D-12      -129.84844038    154.812343    0.00000    0.57204   -0.53529    0    orth

 Final occupancy:   7   1

 !RHF STATE 1.1 Energy               -129.848440375402
 Nuclear energy                        30.19802767
 One-electron energy                 -237.45263979
 Two-electron energy                   77.40617175
 Virial quotient                       -1.00195960
 !RHF STATE 1.1 Dipole moment           0.00000000     0.57203772    -0.53529188
 Dipole moment /Debye                   0.00000000     1.45387962    -1.36048713

 Orbital energies:

         1.1          2.1          3.1          4.1          5.1          6.1          7.1          8.1          9.1
    -20.653678   -15.713992    -1.523755    -0.994713    -0.744585    -0.664188    -0.432298     0.022772     0.065539

         1.2          2.2          3.2
     -0.592939     0.058809     0.091084

 HOMO      7.1    -0.432298 =     -11.7634eV
 LUMO      8.1     0.022772 =       0.6196eV
 LUMO-HOMO         0.455070 =      12.3831eV


 **********************************************************************************************************************************
 DATASETS  * FILE   NREC   LENGTH (MB)   RECORD NAMES
              1      19     6374.22       500      610      700      900      950      970     1000      129      960     1100   
                                          VAR    BASINP    GEOM    SYMINP    ZMAT    AOBASIS   BASIS     P2S    ABASIS      S 
                                         1400     1410     1200     1210     1080     1600     1650     1300     1700   
                                           T        V       H0       H01     AOSYM     SMH    MOLCAS    ERIS     OPER   

              2       4        4.02       700     1000      520     2100   
                                         GEOM     BASIS   MCVARS     RHF  

 PROGRAMS   *        TOTAL        HF       INT
 CPU TIMES  *       183.38     74.93    108.33
 REAL TIME  *       225.35 SEC
 DISK USED  *        21.32 GB      
 **********************************************************************************************************************************


 PROGRAM * CCSD (Closed-shell coupled cluster)     Authors: C. Hampel, H.-J. Werner, 1991, M. Deegan, P.J. Knowles, 1992


 Convergence thresholds:  THRVAR = 1.00D-08  THRDEN = 1.00D-12

 CCSD(T)     terms to be evaluated (factor= 1.000)


 Number of core orbitals:           2 (   2   0 )
 Number of closed-shell orbitals:   6 (   5   1 )
 Number of external orbitals:     326 ( 197 129 )

 Molecular orbitals read from record     2100.2  Type=RHF/CANONICAL (state 1.1)

 Number of N-1 electron functions:               6
 Number of N-2 electron functions:              21
 Number of singly external CSFs:              1114
 Number of doubly external CSFs:            975958
 Total number of CSFs:                      977073

 Length of J-op  integral file:               0.00 MB
 Length of K-op  integral file:               4.07 MB
 Length of 3-ext integral record:             0.00 MB

 Memory could be reduced to 151.33 Mwords without degradation in triples

 Integral transformation finished. Total CPU:  10.54 sec, npass=  1  Memory used:  41.21 MW

 Reference energy:                   -129.84844038

 MP2 singlet pair energy:              -0.31196488
 MP2 triplet pair energy:              -0.17254174
 MP2 correlation energy:               -0.48450662
 MP2 total energy:                   -130.33294700

 SCS-MP2 correlation energy:           -0.48171717   (PS=  1.200000  PT=  0.333333)
 SCS-MP2 total energy:               -130.33015754

 ITER.      SQ.NORM     CORR.ENERGY   TOTAL ENERGY   ENERGY CHANGE        DEN1      VAR(S)    VAR(P)  DIIS     TIME  TIME/IT
   1      1.12147285    -0.48121556  -130.32965594     0.00329106     0.02030186  0.33D-02  0.33D-02  1  1    19.05     9.77
   2      1.13230517    -0.48103656  -130.32947694     0.00017900    -0.01288523  0.11D-03  0.50D-03  2  2    27.88     9.96
   3      1.13861203    -0.48143131  -130.32987168    -0.00039474    -0.00305022  0.50D-04  0.58D-04  3  3    36.96    10.06
   4      1.14149114    -0.48142899  -130.32986936     0.00000232    -0.00099340  0.48D-05  0.10D-04  4  4    45.93    10.09
   5      1.14267662    -0.48145963  -130.32990000    -0.00003064    -0.00026246  0.12D-05  0.17D-05  5  5    54.57    10.05
   6      1.14304704    -0.48144729  -130.32988767     0.00001233    -0.00005258  0.13D-06  0.40D-06  6  6    62.92     9.95
   7      1.14312418    -0.48144688  -130.32988726     0.00000041     0.00000364  0.18D-07  0.94D-07  6  1    71.21     9.88
   8      1.14315007    -0.48144682  -130.32988720     0.00000006    -0.00000321  0.34D-08  0.20D-07  6  2    79.90     9.87
   9      1.14315882    -0.48144622  -130.32988660     0.00000060    -0.00000013  0.23D-08  0.22D-08  6  3    88.64     9.90
  10      1.14315405    -0.48144699  -130.32988736    -0.00000077     0.00000164  0.36D-09  0.36D-09  6  5    97.57     9.92
  11      1.14315616    -0.48144697  -130.32988734     0.00000002    -0.00000040  0.11D-09  0.30D-10  6  4   106.56     9.94
  12      1.14315571    -0.48144704  -130.32988741    -0.00000007     0.00000005  0.19D-10  0.69D-11  6  6   115.33     9.95
  13      1.14315549    -0.48144704  -130.32988742    -0.00000000    -0.00000004  0.33D-11  0.99D-12  6  1   124.20     9.97
  14      1.14315520    -0.48144705  -130.32988743    -0.00000001     0.00000004  0.46D-12  0.18D-12  6  3   132.99     9.98
  15      1.14315512    -0.48144706  -130.32988743    -0.00000000     0.00000001  0.13D-12  0.24D-13  6  2   141.37     9.95
  16      1.14315511    -0.48144706  -130.32988743     0.00000000     0.00000000  0.35D-13  0.93D-14  6  4   149.65     9.92
  17      1.14315511    -0.48144706  -130.32988743    -0.00000000    -0.00000000  0.20D-14  0.12D-14  6  5   157.94     9.90
  18      1.14315512    -0.48144706  -130.32988743     0.00000000    -0.00000000  0.29D-15  0.31D-15  6  6   166.43     9.88
  19      1.14315512    -0.48144706  -130.32988743     0.00000000    -0.00000000  0.54D-16  0.41D-16  6  1   174.65     9.86
  20      1.14315512    -0.48144706  -130.32988743     0.00000000    -0.00000000  0.12D-16  0.63D-17  6  3   182.93     9.84
  21      1.14315512    -0.48144706  -130.32988743    -0.00000000     0.00000000  0.22D-17  0.12D-17  6  2   191.19     9.82
  22      1.14315512    -0.48144706  -130.32988743    -0.00000000     0.00000000  0.40D-18  0.18D-18  6  4   199.54     9.81
  23      1.14315512    -0.48144706  -130.32988743    -0.00000000     0.00000000  0.99D-19  0.53D-19  6  5   207.83     9.79
  24      1.14315512    -0.48144706  -130.32988743    -0.00000000     0.00000000  0.31D-19  0.18D-19  6  6   216.07     9.78
  25      1.14315512    -0.48144706  -130.32988743    -0.00000000     0.00000000  0.12D-19  0.79D-20  6  1   224.23     9.77

 Norm of t1 vector:      0.07758407      S-energy:    -0.00000000      T1 diagnostic:  0.01583678
                                                                       D1 diagnostic:  0.04309851

 Doubles amplitudes (print threshold =  0.500E-01):

         I         J         SYM. A    SYM. B    A         B      T(IJ, AB)

         6         6         2         2         1         1     -0.08433858
         6         6         2         2         1         2      0.05287292
         6         6         2         2         2         1      0.05287292


 Total CPU time for triples:     85.34 sec


 RESULTS
 =======

  Reference energy                   -129.848440375402
  CCSD singlet pair energy             -0.334134107608
  CCSD triplet pair energy             -0.147312947543
  CCSD correlation energy              -0.481447055153

  Triples (T) contribution             -0.023169119501
  Total correlation energy             -0.504616174654

  CCSD total energy                  -130.329887430555
  CCSD[T] energy                     -130.354170303895
  CCSD-T energy                      -130.352668244886
 !CCSD(T) total energy               -130.353056550056

 Timing summary (sec):

 STEP                 CPU(USER)    SYS     CPU(TOT)    WALL
 Transformation         10.59      1.48     12.07     12.08
 CCSD iterations       213.66     30.48    244.14    244.19
 Triples                85.34      1.84     87.18     87.19

 Program statistics:

 Available memory in ccsd:               994999756
 Min. memory needed in ccsd:               3348832
 Max. memory used in ccsd:                 4143652
 Max. memory used in cckext:               8340089 (25 integral passes)



 **********************************************************************************************************************************
 DATASETS  * FILE   NREC   LENGTH (MB)   RECORD NAMES
              1      20     6809.41       500      610      700      900      950      970     1000      129      960     1100   
                                          VAR    BASINP    GEOM    SYMINP    ZMAT    AOBASIS   BASIS     P2S    ABASIS      S 
                                         1400     1410     1200     1210     1080     1600     1650     1300     1700     1380   
                                           T        V       H0       H01     AOSYM     SMH    MOLCAS    ERIS     OPER     JKOP   

              2       4        4.02       700     1000      520     2100   
                                         GEOM     BASIS   MCVARS     RHF  

 PROGRAMS   *        TOTAL   CCSD(T)        HF       INT
 CPU TIMES  *       492.99    309.60     74.93    108.33
 REAL TIME  *       568.85 SEC
 DISK USED  *        21.32 GB      
 **********************************************************************************************************************************

 CCSD(T)/aug-cc-pV5Z energy=   -130.353056550056

        CCSD(T)         HF-SCF  
   -130.35305655   -129.84844038
 **********************************************************************************************************************************
 Molpro calculation terminated
 Variable memory released
