
 Primary working directories    : /tmp/r2666/234643.maple
 Secondary working directories  : /tmp/r2666/234643.maple
 Wavefunction directory         : /ddn/home4/r2666/wfu/
 Main file repository           : /tmp/r2666/234643.maple/

 SHA1      : d5ffa45e93fdbca01ffc919aa182cfdae0147319
 NAME      : 2015.1.35
 ARCHNAME  : linux/x86_64
 FC        : /opt/intel/composer_xe_2015.1.133/bin/intel64/ifort
 BLASLIB   : -Wl,-_start-group /opt/intel/mkl/lib/intel64/libmkl_intel_ilp64.a /opt/intel/mkl/lib/intel64/libmkl_intel_thread.a /opt/intel/mkl/lib/intel64/libmkl_core.a -Wl,-_end-group
 id        : olemiss

 Nodes     nprocs
 cn095        1

 Using customized tuning parameters: mindgm=1; mindgv=20; mindgc=4; mindgr=1; noblas=0; minvec=7
 default implementation of scratch files=df  

 ***,hno CCSD(T)/TZ-F12 QFF
 memory, 995, m;
 gthresh,energy=1.d-12,zero=1.d-22,oneint=1.d-22,twoint=1.d-22;
 gthresh,optgrad=1.d-8,optstep=1.d-8;
 nocompress;
 geomtyp=xyz
 bohr
 geometry={
 3
         15        15
 N        0.0000000000       -0.1534371825       -1.1570074303
 H        0.0000000000        1.6591112312       -1.9265889652
 O        0.0000000000        0.0360937414        1.1330068045
 }
 
 basis=av5z
   {hf,maxit=500;accu,20;}
 {ccsd(t),nocheck,maxit=250;orbital,IGNORE_ERROR;}

 Variables initialized (889), CPU time= 0.01 sec
 Commands  initialized (702), CPU time= 0.02 sec, 572 directives.
 Default parameters read. Elapsed time= 0.05 sec

 Checking input...
 Passed
1


                                         ***  PROGRAM SYSTEM MOLPRO  ***
                                       Copyright, TTI GmbH Stuttgart, 2015
                                    Version 2015.1 linked Jul  9 2018 13:16:40


 **********************************************************************************************************************************
 LABEL *   hno CCSD(T)/TZ-F12 QFF                                                        
  64 bit serial version                                                                  DATE: 08-Feb-20          TIME: 17:24:41  
 **********************************************************************************************************************************

 SHA1:             d5ffa45e93fdbca01ffc919aa182cfdae0147319
 **********************************************************************************************************************************

 THRESHOLDS:

 ZERO    =  1.00D-22  ONEINT  =  1.00D-22  TWOINT  =  1.00D-22  PREFAC  =  1.00D-14  LOCALI  =  1.00D-09  EORDER  =  1.00D-04
 ENERGY  =  1.00D-12  ETEST   =  0.00D+00  EDENS   =  0.00D+00  THRDEDEF=  1.00D-06  GRADIENT=  1.00D-02  STEP    =  1.00D-03
 ORBITAL =  1.00D-05  CIVEC   =  1.00D-05  COEFF   =  1.00D-04  PRINTCI =  5.00D-02  PUNCHCI =  9.90D+01  OPTGRAD =  3.00D-04
 OPTENERG=  1.00D-06  OPTSTEP =  3.00D-04  THRGRAD =  1.00D-10  COMPRESS=  1.00D-11  VARMIN  =  1.00D-07  VARMAX  =  1.00D-03
 THRDOUB =  0.00D+00  THRDIV  =  1.00D-05  THRRED  =  1.00D-07  THRPSP  =  1.00D+00  THRDC   =  1.00D-10  THRCS   =  1.00D-10
 THRNRM  =  1.00D-08  THREQ   =  0.00D+00  THRDE   =  1.00D+00  THRREF  =  1.00D-05  SPARFAC =  1.00D+00  THRDLP  =  1.00D-07
 THRDIA  =  1.00D-10  THRDLS  =  1.00D-07  THRGPS  =  0.00D+00  THRKEX  =  0.00D+00  THRDIS  =  2.00D-01  THRVAR  =  1.00D-10
 THRLOC  =  1.00D-06  THRGAP  =  1.00D-06  THRLOCT = -1.00D+00  THRGAPT = -1.00D+00  THRORB  =  1.00D-06  THRMLTP =  0.00D+00
 THRCPQCI=  1.00D-10  KEXTA   =  0.00D+00  THRCOARS=  0.00D+00  SYMTOL  =  1.00D-06  GRADTOL =  1.00D-06  THROVL  =  1.00D-08
 THRORTH =  1.00D-08  GRID    =  1.00D-06  GRIDMAX =  1.00D-03  DTMAX   =  0.00D+00  THROCCDE=  1.00D-01  THROCCDE=  1.00D-01



 THRESHOLDS:

 ZERO    =  1.00D-22  ONEINT  =  1.00D-22  TWOINT  =  1.00D-22  PREFAC  =  1.00D-14  LOCALI  =  1.00D-09  EORDER  =  1.00D-04
 ENERGY  =  1.00D-12  ETEST   =  0.00D+00  EDENS   =  0.00D+00  THRDEDEF=  1.00D-06  GRADIENT=  1.00D-02  STEP    =  1.00D-03
 ORBITAL =  1.00D-05  CIVEC   =  1.00D-05  COEFF   =  1.00D-04  PRINTCI =  5.00D-02  PUNCHCI =  9.90D+01  OPTGRAD =  1.00D-08
 OPTENERG=  1.00D-06  OPTSTEP =  1.00D-08  THRGRAD =  1.00D-10  COMPRESS=  1.00D-11  VARMIN  =  1.00D-07  VARMAX  =  1.00D-03
 THRDOUB =  0.00D+00  THRDIV  =  1.00D-05  THRRED  =  1.00D-07  THRPSP  =  1.00D+00  THRDC   =  1.00D-10  THRCS   =  1.00D-10
 THRNRM  =  1.00D-08  THREQ   =  0.00D+00  THRDE   =  1.00D+00  THRREF  =  1.00D-05  SPARFAC =  1.00D+00  THRDLP  =  1.00D-07
 THRDIA  =  1.00D-10  THRDLS  =  1.00D-07  THRGPS  =  0.00D+00  THRKEX  =  0.00D+00  THRDIS  =  2.00D-01  THRVAR  =  1.00D-10
 THRLOC  =  1.00D-06  THRGAP  =  1.00D-06  THRLOCT = -1.00D+00  THRGAPT = -1.00D+00  THRORB  =  1.00D-06  THRMLTP =  0.00D+00
 THRCPQCI=  1.00D-10  KEXTA   =  0.00D+00  THRCOARS=  0.00D+00  SYMTOL  =  1.00D-06  GRADTOL =  1.00D-06  THROVL  =  1.00D-08
 THRORTH =  1.00D-08  GRID    =  1.00D-06  GRIDMAX =  1.00D-03  DTMAX   =  0.00D+00  THROCCDE=  1.00D-01  THROCCDE=  1.00D-01



 Input parameters for SORTINT:

 COMPRESS =    0.000000
 C_FINAL  =    1.000000
 DEBUG    =   -1.000000
 C_SORT1  =    0.000000
 C_SEWARD =    0.000000
 THRESH   =    0.000000
 IO       =  molpro                                                          
 SPRI     =    0.000000
 SETTING GEOMTYP        =    XYZ
 ZUNIT=BOHR
 

 Variable memory set to  995000000 words,  buffer space   230000 words

 SETTING BASIS          =    AV5Z


 Recomputing integrals since basis changed


 Using spherical harmonics

 Library entry N      S aug-cc-pV5Z          selected for orbital group  1
 Library entry N      P aug-cc-pV5Z          selected for orbital group  1
 Library entry N      D aug-cc-pV5Z          selected for orbital group  1
 Library entry N      F aug-cc-pV5Z          selected for orbital group  1
 Library entry N      G aug-cc-pV5Z          selected for orbital group  1
 Library entry N      H aug-cc-pV5Z          selected for orbital group  1
 Library entry H      S aug-cc-pV5Z          selected for orbital group  2
 Library entry H      P aug-cc-pV5Z          selected for orbital group  2
 Library entry H      D aug-cc-pV5Z          selected for orbital group  2
 Library entry H      F aug-cc-pV5Z          selected for orbital group  2
 Library entry H      G aug-cc-pV5Z          selected for orbital group  2
 Library entry O      S aug-cc-pV5Z          selected for orbital group  3
 Library entry O      P aug-cc-pV5Z          selected for orbital group  3
 Library entry O      D aug-cc-pV5Z          selected for orbital group  3
 Library entry O      F aug-cc-pV5Z          selected for orbital group  3
 Library entry O      G aug-cc-pV5Z          selected for orbital group  3
 Library entry O      H aug-cc-pV5Z          selected for orbital group  3


 PROGRAM * SEWARD (Integral evaluation for generally contracted gaussian basis sets)     Author: Roland Lindh, 1990

 Geometry written to block  1 of record 700


 Point group  Cs  



 ATOMIC COORDINATES

 NR  ATOM    CHARGE       X              Y              Z

   1  N       7.00    0.000000000   -0.153437182   -1.157007430
   2  H       1.00    0.000000000    1.659111231   -1.926588965
   3  O       8.00    0.000000000    0.036093741    1.133006804

 Bond lengths in Bohr (Angstrom)

 1-2  1.969159082  1-3  2.297844026
     ( 1.042034111)     ( 1.215966693)

 Bond angles

  2-1-3  108.27411753

 NUCLEAR CHARGE:                   16
 NUMBER OF PRIMITIVE AOS:         506
 NUMBER OF SYMMETRY AOS:          371
 NUMBER OF CONTRACTIONS:          334   ( 204A'  + 130A"  )
 NUMBER OF CORE ORBITALS:           2   (   2A'  +   0A"  )
 NUMBER OF VALENCE ORBITALS:        9   (   7A'  +   2A"  )


 NUCLEAR REPULSION ENERGY   30.23533988


 Eigenvalues of metric

         1 0.112E-04 0.174E-04 0.627E-04 0.101E-03 0.107E-03 0.138E-03 0.199E-03 0.224E-03
         2 0.130E-03 0.351E-03 0.114E-02 0.163E-02 0.186E-02 0.258E-02 0.318E-02 0.383E-02


 Contracted 2-electron integrals neglected if value below      1.0D-22

      756977435. INTEGRALS WRITTEN OUT IN  184855 BLOCKS ON RECORD 1290 OF FILE 1


 NUMBER OF SORTED TWO-ELECTRON INTEGRALS:  789027325.     BUFFER LENGTH:  32768
 NUMBER OF SEGMENTS:  25  SEGMENT LENGTH:   31997130      RECORD LENGTH: 524288

 Memory used in sort:      32.55 MW

 SORT1 READ   756977435. AND WROTE   760993319. INTEGRALS IN   2189 RECORDS. CPU TIME:    39.76 SEC, REAL TIME:   266.26 SEC
 SORT2 READ   760993319. AND WROTE   789027325. INTEGRALS IN     25 RECORDS. CPU TIME:    14.58 SEC, REAL TIME:   125.19 SEC

 FILE SIZES:   FILE 1: 12137.5 MBYTE,  FILE 4:  9181.4 MBYTE,   TOTAL:  21318.9 MBYTE

 OPERATOR DM      FOR CENTER  0  COORDINATES:    0.000000    0.000000    0.000000


 **********************************************************************************************************************************
 DATASETS  * FILE   NREC   LENGTH (MB)   RECORD NAMES
              1      19     6374.22       500      610      700      900      950      970     1000      129      960     1100   
                                          VAR    BASINP    GEOM    SYMINP    ZMAT    AOBASIS   BASIS     P2S    ABASIS      S 
                                         1400     1410     1200     1210     1080     1600     1650     1300     1700   
                                           T        V       H0       H01     AOSYM     SMH    MOLCAS    ERIS     OPER   

 PROGRAMS   *        TOTAL       INT
 CPU TIMES  *       167.43    167.32
 REAL TIME  *       581.96 SEC
 DISK USED  *        21.32 GB      
 **********************************************************************************************************************************


 PROGRAM * RHF-SCF (CLOSED SHELL)       Authors: W. Meyer, H.-J. Werner


 NUMBER OF ELECTRONS:       8+    8-
 CONVERGENCE THRESHOLDS:    1.00E-10 (Density)    1.00E-13 (Energy)
 MAX. NUMBER OF ITERATIONS:      500
 INTERPOLATION TYPE:            DIIS
 INTERPOLATION STEPS:              2 (START)      1 (STEP)
 LEVEL SHIFTS:                  0.00 (CLOSED)  0.00 (OPEN) 



 Orbital guess generated from atomic densities. Full valence occupancy:    9   2

 Molecular orbital dump at record        2100.2

 Initial occupancy:   7   1

 ITERATION    DDIFF          GRAD             ENERGY        2-EL.EN.            DIPOLE MOMENTS         DIIS   ORB.
    1      0.000D+00      0.000D+00      -129.79692620    153.745021    0.00000    0.60561   -1.05345    0    start
    2      0.000D+00      0.644D-02      -129.82388948    154.938815    0.00000    0.61590   -0.20780    1    diag
    3      0.405D-02      0.498D-02      -129.84778305    155.087032    0.00000    0.56372   -0.60762    2    diag
    4      0.210D-02      0.778D-03      -129.84860650    154.797248    0.00000    0.57092   -0.54451    3    diag
    5      0.382D-03      0.251D-03      -129.84873406    154.890994    0.00000    0.57604   -0.54682    4    diag
    6      0.157D-03      0.723D-04      -129.84875438    154.874703    0.00000    0.57628   -0.54248    5    diag
    7      0.603D-04      0.364D-04      -129.84876044    154.877367    0.00000    0.57746   -0.53974    6    diag
    8      0.417D-04      0.131D-04      -129.84876118    154.876637    0.00000    0.57750   -0.53864    7    diag
    9      0.168D-04      0.255D-05      -129.84876122    154.876523    0.00000    0.57746   -0.53841    8    diag
   10      0.343D-05      0.566D-06      -129.84876122    154.876505    0.00000    0.57743   -0.53838    9    orth
   11      0.642D-06      0.112D-06      -129.84876122    154.876502    0.00000    0.57742   -0.53838    9    diag
   12      0.116D-06      0.231D-07      -129.84876122    154.876502    0.00000    0.57742   -0.53838    9    diag
   13      0.249D-07      0.617D-08      -129.84876122    154.876502    0.00000    0.57742   -0.53838    9    diag
   14      0.689D-08      0.119D-08      -129.84876122    154.876502    0.00000    0.57742   -0.53838    9    diag
   15      0.125D-08      0.335D-09      -129.84876122    154.876502    0.00000    0.57742   -0.53838    9    diag
   16      0.379D-09      0.990D-10      -129.84876122    154.876502    0.00000    0.57742   -0.53838    9    diag
   17      0.731D-10      0.245D-10      -129.84876122    154.876502    0.00000    0.57742   -0.53838    9    diag
   18      0.292D-10      0.804D-11      -129.84876122    154.876502    0.00000    0.57742   -0.53838    9    diag
   19      0.212D-10      0.188D-11      -129.84876122    154.876502    0.00000    0.57742   -0.53838    9    fixocc
   20      0.954D-11      0.534D-12      -129.84876122    154.876502    0.00000    0.57742   -0.53838    0    orth

 Final occupancy:   7   1

 !RHF STATE 1.1 Energy               -129.848761220518
 Nuclear energy                        30.23533988
 One-electron energy                 -237.52235191
 Two-electron energy                   77.43825080
 Virial quotient                       -1.00181811
 !RHF STATE 1.1 Dipole moment           0.00000000     0.57741752    -0.53837640
 Dipole moment /Debye                   0.00000000     1.46755282    -1.36832668

 Orbital energies:

         1.1          2.1          3.1          4.1          5.1          6.1          7.1          8.1          9.1
    -20.653555   -15.712194    -1.522908    -0.998866    -0.745870    -0.663851    -0.433543     0.022763     0.065527

         1.2          2.2          3.2
     -0.592137     0.058492     0.090812

 HOMO      7.1    -0.433543 =     -11.7973eV
 LUMO      8.1     0.022763 =       0.6194eV
 LUMO-HOMO         0.456306 =      12.4167eV


 **********************************************************************************************************************************
 DATASETS  * FILE   NREC   LENGTH (MB)   RECORD NAMES
              1      19     6374.22       500      610      700      900      950      970     1000      129      960     1100   
                                          VAR    BASINP    GEOM    SYMINP    ZMAT    AOBASIS   BASIS     P2S    ABASIS      S 
                                         1400     1410     1200     1210     1080     1600     1650     1300     1700   
                                           T        V       H0       H01     AOSYM     SMH    MOLCAS    ERIS     OPER   

              2       4        4.02       700     1000      520     2100   
                                         GEOM     BASIS   MCVARS     RHF  

 PROGRAMS   *        TOTAL        HF       INT
 CPU TIMES  *       246.45     79.02    167.32
 REAL TIME  *       682.01 SEC
 DISK USED  *        21.32 GB      
 **********************************************************************************************************************************


 PROGRAM * CCSD (Closed-shell coupled cluster)     Authors: C. Hampel, H.-J. Werner, 1991, M. Deegan, P.J. Knowles, 1992


 Convergence thresholds:  THRVAR = 1.00D-08  THRDEN = 1.00D-12

 CCSD(T)     terms to be evaluated (factor= 1.000)


 Number of core orbitals:           2 (   2   0 )
 Number of closed-shell orbitals:   6 (   5   1 )
 Number of external orbitals:     326 ( 197 129 )

 Molecular orbitals read from record     2100.2  Type=RHF/CANONICAL (state 1.1)

 Number of N-1 electron functions:               6
 Number of N-2 electron functions:              21
 Number of singly external CSFs:              1114
 Number of doubly external CSFs:            975958
 Total number of CSFs:                      977073

 Length of J-op  integral file:               0.00 MB
 Length of K-op  integral file:               4.07 MB
 Length of 3-ext integral record:             0.00 MB

 Memory could be reduced to 151.33 Mwords without degradation in triples

 Integral transformation finished. Total CPU:  10.71 sec, npass=  1  Memory used:  41.21 MW

 Reference energy:                   -129.84876122

 MP2 singlet pair energy:              -0.31176640
 MP2 triplet pair energy:              -0.17242562
 MP2 correlation energy:               -0.48419202
 MP2 total energy:                   -130.33295324

 SCS-MP2 correlation energy:           -0.48140674   (PS=  1.200000  PT=  0.333333)
 SCS-MP2 total energy:               -130.33016796

 ITER.      SQ.NORM     CORR.ENERGY   TOTAL ENERGY   ENERGY CHANGE        DEN1      VAR(S)    VAR(P)  DIIS     TIME  TIME/IT
   1      1.12111463    -0.48089023  -130.32965145     0.00330180     0.02023739  0.32D-02  0.33D-02  1  1    19.44    10.02
   2      1.13188904    -0.48071128  -130.32947250     0.00017895    -0.01283701  0.11D-03  0.49D-03  2  2    28.56    10.18
   3      1.13814271    -0.48109881  -130.32986003    -0.00038752    -0.00302837  0.49D-04  0.58D-04  3  3    37.55    10.22
   4      1.14101056    -0.48109847  -130.32985969     0.00000033    -0.00098663  0.47D-05  0.10D-04  4  4    46.52    10.25
   5      1.14218340    -0.48112852  -130.32988974    -0.00003005    -0.00025942  0.11D-05  0.17D-05  5  5    55.58    10.26
   6      1.14255052    -0.48111617  -130.32987739     0.00001235    -0.00005224  0.11D-06  0.41D-06  6  6    64.58    10.29
   7      1.14262545    -0.48111603  -130.32987725     0.00000014     0.00000397  0.15D-07  0.95D-07  6  1    73.81    10.32
   8      1.14265066    -0.48111600  -130.32987722     0.00000003    -0.00000314  0.34D-08  0.20D-07  6  2    83.13    10.37
   9      1.14265555    -0.48111562  -130.32987684     0.00000038     0.00000132  0.26D-08  0.24D-08  6  4    92.47    10.41
  10      1.14265819    -0.48111595  -130.32987717    -0.00000033    -0.00000085  0.53D-09  0.29D-09  6  3   101.80    10.44
  11      1.14265801    -0.48111604  -130.32987726    -0.00000009    -0.00000012  0.16D-09  0.41D-10  6  5   111.13    10.46
  12      1.14265704    -0.48111618  -130.32987741    -0.00000014     0.00000039  0.21D-10  0.12D-10  6  6   120.31    10.48
  13      1.14265616    -0.48111623  -130.32987745    -0.00000005     0.00000022  0.58D-11  0.27D-11  6  1   129.60    10.49
  14      1.14265545    -0.48111627  -130.32987749    -0.00000003     0.00000017  0.37D-12  0.52D-12  6  4   138.99    10.52
  15      1.14265523    -0.48111627  -130.32987749    -0.00000001     0.00000004  0.80D-13  0.45D-13  6  2   148.12    10.53
  16      1.14265517    -0.48111627  -130.32987750    -0.00000000     0.00000001  0.23D-13  0.78D-14  6  3   157.33    10.53
  17      1.14265515    -0.48111628  -130.32987750    -0.00000000     0.00000001  0.44D-14  0.11D-14  6  5   166.63    10.54
  18      1.14265514    -0.48111628  -130.32987750    -0.00000000     0.00000000  0.95D-15  0.28D-15  6  6   176.01    10.56
  19      1.14265514    -0.48111628  -130.32987750    -0.00000000     0.00000000  0.13D-15  0.55D-16  6  1   185.30    10.56
  20      1.14265514    -0.48111628  -130.32987750     0.00000000    -0.00000000  0.14D-16  0.85D-17  6  4   194.66    10.57
  21      1.14265514    -0.48111628  -130.32987750     0.00000000    -0.00000000  0.11D-17  0.13D-17  6  3   204.05    10.57
  22      1.14265514    -0.48111628  -130.32987750     0.00000000    -0.00000000  0.29D-18  0.31D-18  6  2   213.36    10.58
  23      1.14265514    -0.48111628  -130.32987750     0.00000000    -0.00000000  0.79D-19  0.14D-18  6  5   222.52    10.58
  24      1.14265514    -0.48111628  -130.32987750     0.00000000     0.00000000  0.27D-19  0.73D-19  6  6   231.86    10.59
  25      1.14265514    -0.48111628  -130.32987750    -0.00000000     0.00000000  0.11D-19  0.42D-19  6  1   240.86    10.59

 Norm of t1 vector:      0.07722098      S-energy:     0.00000000      T1 diagnostic:  0.01576267
                                                                       D1 diagnostic:  0.04324283

 Doubles amplitudes (print threshold =  0.500E-01):

         I         J         SYM. A    SYM. B    A         B      T(IJ, AB)

         6         6         2         2         1         1     -0.08529839
         6         6         2         2         1         2      0.05293833
         6         6         2         2         2         1      0.05293833


 Total CPU time for triples:     92.02 sec


 RESULTS
 =======

  Reference energy                   -129.848761220519
  CCSD singlet pair energy             -0.333856363617
  CCSD triplet pair energy             -0.147259912225
  CCSD correlation energy              -0.481116275839

  Triples (T) contribution             -0.023109807035
  Total correlation energy             -0.504226082874

  CCSD total energy                  -130.329877496359
  CCSD[T] energy                     -130.354091959494
  CCSD-T energy                      -130.352603016693
 !CCSD(T) total energy               -130.352987303393

 Timing summary (sec):

 STEP                 CPU(USER)    SYS     CPU(TOT)    WALL
 Transformation         10.76      1.87     12.63     12.83
 CCSD iterations       230.10     34.65    264.75    264.79
 Triples                92.02      1.60     93.62     93.62

 Program statistics:

 Available memory in ccsd:               994999756
 Min. memory needed in ccsd:               3348832
 Max. memory used in ccsd:                 4143652
 Max. memory used in cckext:               8340089 (25 integral passes)



 **********************************************************************************************************************************
 DATASETS  * FILE   NREC   LENGTH (MB)   RECORD NAMES
              1      20     6809.41       500      610      700      900      950      970     1000      129      960     1100   
                                          VAR    BASINP    GEOM    SYMINP    ZMAT    AOBASIS   BASIS     P2S    ABASIS      S 
                                         1400     1410     1200     1210     1080     1600     1650     1300     1700     1380   
                                           T        V       H0       H01     AOSYM     SMH    MOLCAS    ERIS     OPER     JKOP   

              2       4        4.02       700     1000      520     2100   
                                         GEOM     BASIS   MCVARS     RHF  

 PROGRAMS   *        TOTAL   CCSD(T)        HF       INT
 CPU TIMES  *       579.37    332.92     79.02    167.32
 REAL TIME  *      1054.67 SEC
 DISK USED  *        21.32 GB      
 **********************************************************************************************************************************

 CCSD(T)/aug-cc-pV5Z energy=   -130.352987303393

        CCSD(T)         HF-SCF  
   -130.35298730   -129.84876122
 **********************************************************************************************************************************
 Molpro calculation terminated
 Variable memory released
