
 Primary working directories    : /tmp/r2666/234658.maple
 Secondary working directories  : /tmp/r2666/234658.maple
 Wavefunction directory         : /ddn/home4/r2666/wfu/
 Main file repository           : /tmp/r2666/234658.maple/

 SHA1      : d5ffa45e93fdbca01ffc919aa182cfdae0147319
 NAME      : 2015.1.35
 ARCHNAME  : linux/x86_64
 FC        : /opt/intel/composer_xe_2015.1.133/bin/intel64/ifort
 BLASLIB   : -Wl,-_start-group /opt/intel/mkl/lib/intel64/libmkl_intel_ilp64.a /opt/intel/mkl/lib/intel64/libmkl_intel_thread.a /opt/intel/mkl/lib/intel64/libmkl_core.a -Wl,-_end-group
 id        : olemiss

 Nodes     nprocs
 cn025        1

 Using customized tuning parameters: mindgm=1; mindgv=20; mindgc=4; mindgr=1; noblas=0; minvec=7
 default implementation of scratch files=df  

 ***,hno CCSD(T)/TZ-F12 QFF
 memory, 995, m;
 gthresh,energy=1.d-12,zero=1.d-22,oneint=1.d-22,twoint=1.d-22;
 gthresh,optgrad=1.d-8,optstep=1.d-8;
 nocompress;
 geomtyp=xyz
 bohr
 geometry={
 3
         30        30
 N        0.0000000000       -0.1470778689       -1.1325740764
 H        0.0000000000        1.6610286493       -1.9360909072
 O        0.0000000000        0.0278170095        1.1180753925
 }
 
 basis=av5z
   {hf,maxit=500;accu,20;}
 {ccsd(t),nocheck,maxit=250;orbital,IGNORE_ERROR;}

 Variables initialized (889), CPU time= 0.00 sec
 Commands  initialized (702), CPU time= 0.01 sec, 572 directives.
 Default parameters read. Elapsed time= 0.44 sec

 Checking input...
 Passed
1


                                         ***  PROGRAM SYSTEM MOLPRO  ***
                                       Copyright, TTI GmbH Stuttgart, 2015
                                    Version 2015.1 linked Jul  9 2018 13:16:40


 **********************************************************************************************************************************
 LABEL *   hno CCSD(T)/TZ-F12 QFF                                                        
  64 bit serial version                                                                  DATE: 08-Feb-20          TIME: 17:24:42  
 **********************************************************************************************************************************

 SHA1:             d5ffa45e93fdbca01ffc919aa182cfdae0147319
 **********************************************************************************************************************************

 THRESHOLDS:

 ZERO    =  1.00D-22  ONEINT  =  1.00D-22  TWOINT  =  1.00D-22  PREFAC  =  1.00D-14  LOCALI  =  1.00D-09  EORDER  =  1.00D-04
 ENERGY  =  1.00D-12  ETEST   =  0.00D+00  EDENS   =  0.00D+00  THRDEDEF=  1.00D-06  GRADIENT=  1.00D-02  STEP    =  1.00D-03
 ORBITAL =  1.00D-05  CIVEC   =  1.00D-05  COEFF   =  1.00D-04  PRINTCI =  5.00D-02  PUNCHCI =  9.90D+01  OPTGRAD =  3.00D-04
 OPTENERG=  1.00D-06  OPTSTEP =  3.00D-04  THRGRAD =  1.00D-10  COMPRESS=  1.00D-11  VARMIN  =  1.00D-07  VARMAX  =  1.00D-03
 THRDOUB =  0.00D+00  THRDIV  =  1.00D-05  THRRED  =  1.00D-07  THRPSP  =  1.00D+00  THRDC   =  1.00D-10  THRCS   =  1.00D-10
 THRNRM  =  1.00D-08  THREQ   =  0.00D+00  THRDE   =  1.00D+00  THRREF  =  1.00D-05  SPARFAC =  1.00D+00  THRDLP  =  1.00D-07
 THRDIA  =  1.00D-10  THRDLS  =  1.00D-07  THRGPS  =  0.00D+00  THRKEX  =  0.00D+00  THRDIS  =  2.00D-01  THRVAR  =  1.00D-10
 THRLOC  =  1.00D-06  THRGAP  =  1.00D-06  THRLOCT = -1.00D+00  THRGAPT = -1.00D+00  THRORB  =  1.00D-06  THRMLTP =  0.00D+00
 THRCPQCI=  1.00D-10  KEXTA   =  0.00D+00  THRCOARS=  0.00D+00  SYMTOL  =  1.00D-06  GRADTOL =  1.00D-06  THROVL  =  1.00D-08
 THRORTH =  1.00D-08  GRID    =  1.00D-06  GRIDMAX =  1.00D-03  DTMAX   =  0.00D+00  THROCCDE=  1.00D-01  THROCCDE=  1.00D-01



 THRESHOLDS:

 ZERO    =  1.00D-22  ONEINT  =  1.00D-22  TWOINT  =  1.00D-22  PREFAC  =  1.00D-14  LOCALI  =  1.00D-09  EORDER  =  1.00D-04
 ENERGY  =  1.00D-12  ETEST   =  0.00D+00  EDENS   =  0.00D+00  THRDEDEF=  1.00D-06  GRADIENT=  1.00D-02  STEP    =  1.00D-03
 ORBITAL =  1.00D-05  CIVEC   =  1.00D-05  COEFF   =  1.00D-04  PRINTCI =  5.00D-02  PUNCHCI =  9.90D+01  OPTGRAD =  1.00D-08
 OPTENERG=  1.00D-06  OPTSTEP =  1.00D-08  THRGRAD =  1.00D-10  COMPRESS=  1.00D-11  VARMIN  =  1.00D-07  VARMAX  =  1.00D-03
 THRDOUB =  0.00D+00  THRDIV  =  1.00D-05  THRRED  =  1.00D-07  THRPSP  =  1.00D+00  THRDC   =  1.00D-10  THRCS   =  1.00D-10
 THRNRM  =  1.00D-08  THREQ   =  0.00D+00  THRDE   =  1.00D+00  THRREF  =  1.00D-05  SPARFAC =  1.00D+00  THRDLP  =  1.00D-07
 THRDIA  =  1.00D-10  THRDLS  =  1.00D-07  THRGPS  =  0.00D+00  THRKEX  =  0.00D+00  THRDIS  =  2.00D-01  THRVAR  =  1.00D-10
 THRLOC  =  1.00D-06  THRGAP  =  1.00D-06  THRLOCT = -1.00D+00  THRGAPT = -1.00D+00  THRORB  =  1.00D-06  THRMLTP =  0.00D+00
 THRCPQCI=  1.00D-10  KEXTA   =  0.00D+00  THRCOARS=  0.00D+00  SYMTOL  =  1.00D-06  GRADTOL =  1.00D-06  THROVL  =  1.00D-08
 THRORTH =  1.00D-08  GRID    =  1.00D-06  GRIDMAX =  1.00D-03  DTMAX   =  0.00D+00  THROCCDE=  1.00D-01  THROCCDE=  1.00D-01



 Input parameters for SORTINT:

 COMPRESS =    0.000000
 C_FINAL  =    1.000000
 DEBUG    =   -1.000000
 C_SORT1  =    0.000000
 C_SEWARD =    0.000000
 THRESH   =    0.000000
 IO       =  molpro                                                          
 SPRI     =    0.000000
 SETTING GEOMTYP        =    XYZ
 ZUNIT=BOHR
 

 Variable memory set to  995000000 words,  buffer space   230000 words

 SETTING BASIS          =    AV5Z


 Recomputing integrals since basis changed


 Using spherical harmonics

 Library entry N      S aug-cc-pV5Z          selected for orbital group  1
 Library entry N      P aug-cc-pV5Z          selected for orbital group  1
 Library entry N      D aug-cc-pV5Z          selected for orbital group  1
 Library entry N      F aug-cc-pV5Z          selected for orbital group  1
 Library entry N      G aug-cc-pV5Z          selected for orbital group  1
 Library entry N      H aug-cc-pV5Z          selected for orbital group  1
 Library entry H      S aug-cc-pV5Z          selected for orbital group  2
 Library entry H      P aug-cc-pV5Z          selected for orbital group  2
 Library entry H      D aug-cc-pV5Z          selected for orbital group  2
 Library entry H      F aug-cc-pV5Z          selected for orbital group  2
 Library entry H      G aug-cc-pV5Z          selected for orbital group  2
 Library entry O      S aug-cc-pV5Z          selected for orbital group  3
 Library entry O      P aug-cc-pV5Z          selected for orbital group  3
 Library entry O      D aug-cc-pV5Z          selected for orbital group  3
 Library entry O      F aug-cc-pV5Z          selected for orbital group  3
 Library entry O      G aug-cc-pV5Z          selected for orbital group  3
 Library entry O      H aug-cc-pV5Z          selected for orbital group  3


 PROGRAM * SEWARD (Integral evaluation for generally contracted gaussian basis sets)     Author: Roland Lindh, 1990

 Geometry written to block  1 of record 700


 Point group  Cs  



 ATOMIC COORDINATES

 NR  ATOM    CHARGE       X              Y              Z

   1  N       7.00    0.000000000   -0.147077869   -1.132574076
   2  H       1.00    0.000000000    1.661028649   -1.936090907
   3  O       8.00    0.000000000    0.027817009    1.118075392

 Bond lengths in Bohr (Angstrom)

 1-2  1.978607712  1-3  2.257434661
     ( 1.047034111)     ( 1.194582978)

 Bond angles

  2-1-3  109.51676495

 NUCLEAR CHARGE:                   16
 NUMBER OF PRIMITIVE AOS:         506
 NUMBER OF SYMMETRY AOS:          371
 NUMBER OF CONTRACTIONS:          334   ( 204A'  + 130A"  )
 NUMBER OF CORE ORBITALS:           2   (   2A'  +   0A"  )
 NUMBER OF VALENCE ORBITALS:        9   (   7A'  +   2A"  )


 NUCLEAR REPULSION ENERGY   30.65461310


 Eigenvalues of metric

         1 0.109E-04 0.164E-04 0.618E-04 0.954E-04 0.101E-03 0.130E-03 0.193E-03 0.223E-03
         2 0.122E-03 0.354E-03 0.107E-02 0.148E-02 0.186E-02 0.239E-02 0.318E-02 0.380E-02


 Contracted 2-electron integrals neglected if value below      1.0D-22

      756970082. INTEGRALS WRITTEN OUT IN  184853 BLOCKS ON RECORD 1290 OF FILE 1


 NUMBER OF SORTED TWO-ELECTRON INTEGRALS:  789027325.     BUFFER LENGTH:  32768
 NUMBER OF SEGMENTS:  25  SEGMENT LENGTH:   31997130      RECORD LENGTH: 524288

 Memory used in sort:      32.55 MW

 SORT1 READ   756970082. AND WROTE   760985980. INTEGRALS IN   2189 RECORDS. CPU TIME:    20.99 SEC, REAL TIME:    78.82 SEC
 SORT2 READ   760985980. AND WROTE   789027325. INTEGRALS IN     25 RECORDS. CPU TIME:    10.18 SEC, REAL TIME:    29.08 SEC

 FILE SIZES:   FILE 1: 12137.4 MBYTE,  FILE 4:  9181.4 MBYTE,   TOTAL:  21318.7 MBYTE

 OPERATOR DM      FOR CENTER  0  COORDINATES:    0.000000    0.000000    0.000000


 **********************************************************************************************************************************
 DATASETS  * FILE   NREC   LENGTH (MB)   RECORD NAMES
              1      19     6374.17       500      610      700      900      950      970     1000      129      960     1100   
                                          VAR    BASINP    GEOM    SYMINP    ZMAT    AOBASIS   BASIS     P2S    ABASIS      S 
                                         1400     1410     1200     1210     1080     1600     1650     1300     1700   
                                           T        V       H0       H01     AOSYM     SMH    MOLCAS    ERIS     OPER   

 PROGRAMS   *        TOTAL       INT
 CPU TIMES  *       124.39    124.26
 REAL TIME  *       212.37 SEC
 DISK USED  *        21.32 GB      
 **********************************************************************************************************************************


 PROGRAM * RHF-SCF (CLOSED SHELL)       Authors: W. Meyer, H.-J. Werner


 NUMBER OF ELECTRONS:       8+    8-
 CONVERGENCE THRESHOLDS:    1.00E-10 (Density)    1.00E-13 (Energy)
 MAX. NUMBER OF ITERATIONS:      500
 INTERPOLATION TYPE:            DIIS
 INTERPOLATION STEPS:              2 (START)      1 (STEP)
 LEVEL SHIFTS:                  0.00 (CLOSED)  0.00 (OPEN) 



 Orbital guess generated from atomic densities. Full valence occupancy:    9   2

 Molecular orbital dump at record        2100.2

 Initial occupancy:   7   1

 ITERATION    DDIFF          GRAD             ENERGY        2-EL.EN.            DIPOLE MOMENTS         DIIS   ORB.
    1      0.000D+00      0.000D+00      -129.80251690    154.489336    0.00000    0.60367   -0.98843    0    start
    2      0.000D+00      0.630D-02      -129.83005863    155.733966    0.00000    0.60184   -0.22031    1    diag
    3      0.388D-02      0.464D-02      -129.85062253    155.831646    0.00000    0.55707   -0.57981    2    diag
    4      0.198D-02      0.758D-03      -129.85139998    155.557681    0.00000    0.56413   -0.52016    3    diag
    5      0.372D-03      0.243D-03      -129.85151933    155.650144    0.00000    0.56942   -0.52299    4    diag
    6      0.152D-03      0.700D-04      -129.85153822    155.634097    0.00000    0.56978   -0.51904    5    diag
    7      0.580D-04      0.345D-04      -129.85154356    155.636978    0.00000    0.57104   -0.51662    6    diag
    8      0.394D-04      0.117D-04      -129.85154411    155.636329    0.00000    0.57109   -0.51570    7    diag
    9      0.143D-04      0.222D-05      -129.85154413    155.636228    0.00000    0.57106   -0.51550    8    diag
   10      0.281D-05      0.520D-06      -129.85154413    155.636210    0.00000    0.57103   -0.51547    9    orth
   11      0.590D-06      0.106D-06      -129.85154413    155.636206    0.00000    0.57102   -0.51546    9    diag
   12      0.115D-06      0.211D-07      -129.85154413    155.636206    0.00000    0.57102   -0.51546    9    diag
   13      0.244D-07      0.539D-08      -129.85154413    155.636206    0.00000    0.57102   -0.51546    9    diag
   14      0.636D-08      0.107D-08      -129.85154413    155.636206    0.00000    0.57102   -0.51546    9    diag
   15      0.119D-08      0.311D-09      -129.85154413    155.636206    0.00000    0.57102   -0.51546    9    diag
   16      0.355D-09      0.971D-10      -129.85154413    155.636206    0.00000    0.57102   -0.51546    9    diag
   17      0.691D-10      0.262D-10      -129.85154413    155.636206    0.00000    0.57102   -0.51546    9    diag
   18      0.257D-10      0.889D-11      -129.85154413    155.636206    0.00000    0.57102   -0.51546    9    diag
   19      0.181D-10      0.226D-11      -129.85154413    155.636206    0.00000    0.57102   -0.51546    9    fixocc
   20      0.172D-10      0.514D-12      -129.85154413    155.636206    0.00000    0.57102   -0.51546    9    orth
   21      0.862D-11      0.363D-12      -129.85154413    155.636206    0.00000    0.57102   -0.51546    9    diag
   22      0.608D-11      0.321D-12      -129.85154413    155.636206    0.00000    0.57102   -0.51546    9    diag
   23      0.332D-11      0.347D-12      -129.85154413    155.636206    0.00000    0.57102   -0.51546    9    diag
   24      0.321D-11      0.411D-12      -129.85154413    155.636206    0.00000    0.57102   -0.51546    9    diag
   25      0.247D-11      0.282D-12      -129.85154413    155.636206    0.00000    0.57102   -0.51546    9    diag
   26      0.167D-11      0.271D-12      -129.85154413    155.636206    0.00000    0.57102   -0.51546    9    diag
   27      0.171D-11      0.315D-12      -129.85154413    155.636206    0.00000    0.57102   -0.51546    9    diag
   28      0.107D-11      0.213D-12      -129.85154413    155.636206    0.00000    0.57102   -0.51546    9    diag
   29      0.966D-12      0.269D-12      -129.85154413    155.636206    0.00000    0.57102   -0.51546    9    diag
   30      0.110D-11      0.249D-12      -129.85154413    155.636206    0.00000    0.57102   -0.51546    9    orth
   31      0.109D-11      0.243D-12      -129.85154413    155.636206    0.00000    0.57102   -0.51546    9    diag
   32      0.107D-11      0.275D-12      -129.85154413    155.636206    0.00000    0.57102   -0.51546    9    diag
   33      0.592D-12      0.285D-12      -129.85154413    155.636206    0.00000    0.57102   -0.51546    9    diag
   34      0.167D-11      0.315D-12      -129.85154413    155.636206    0.00000    0.57102   -0.51546    9    diag
   35      0.706D-12      0.294D-12      -129.85154413    155.636206    0.00000    0.57102   -0.51546    9    diag
   36      0.132D-11      0.255D-12      -129.85154413    155.636206    0.00000    0.57102   -0.51546    9    diag
   37      0.101D-11      0.306D-12      -129.85154413    155.636206    0.00000    0.57102   -0.51546    0    orth

 Final occupancy:   7   1

 !RHF STATE 1.1 Energy               -129.851544133805
 Nuclear energy                        30.65461310
 One-electron energy                 -238.32426009
 Two-electron energy                   77.81810286
 Virial quotient                       -1.00126610
 !RHF STATE 1.1 Dipole moment           0.00000000     0.57101793    -0.51546202
 Dipole moment /Debye                   0.00000000     1.45128775    -1.31008795

 Orbital energies:

         1.1          2.1          3.1          4.1          5.1          6.1          7.1          8.1          9.1
    -20.651886   -15.708940    -1.539779    -0.993366    -0.751774    -0.670268    -0.425759     0.022916     0.065542

         1.2          2.2          3.2
     -0.602256     0.062550     0.092797

 HOMO      7.1    -0.425759 =     -11.5855eV
 LUMO      8.1     0.022916 =       0.6236eV
 LUMO-HOMO         0.448675 =      12.2091eV


 **********************************************************************************************************************************
 DATASETS  * FILE   NREC   LENGTH (MB)   RECORD NAMES
              1      19     6374.17       500      610      700      900      950      970     1000      129      960     1100   
                                          VAR    BASINP    GEOM    SYMINP    ZMAT    AOBASIS   BASIS     P2S    ABASIS      S 
                                         1400     1410     1200     1210     1080     1600     1650     1300     1700   
                                           T        V       H0       H01     AOSYM     SMH    MOLCAS    ERIS     OPER   

              2       4        4.02       700     1000      520     2100   
                                         GEOM     BASIS   MCVARS     RHF  

 PROGRAMS   *        TOTAL        HF       INT
 CPU TIMES  *       282.47    158.08    124.26
 REAL TIME  *       400.00 SEC
 DISK USED  *        21.32 GB      
 **********************************************************************************************************************************


 PROGRAM * CCSD (Closed-shell coupled cluster)     Authors: C. Hampel, H.-J. Werner, 1991, M. Deegan, P.J. Knowles, 1992


 Convergence thresholds:  THRVAR = 1.00D-08  THRDEN = 1.00D-12

 CCSD(T)     terms to be evaluated (factor= 1.000)


 Number of core orbitals:           2 (   2   0 )
 Number of closed-shell orbitals:   6 (   5   1 )
 Number of external orbitals:     326 ( 197 129 )

 Molecular orbitals read from record     2100.2  Type=RHF/CANONICAL (state 1.1)

 Number of N-1 electron functions:               6
 Number of N-2 electron functions:              21
 Number of singly external CSFs:              1114
 Number of doubly external CSFs:            975958
 Total number of CSFs:                      977073

 Length of J-op  integral file:               0.00 MB
 Length of K-op  integral file:               4.07 MB
 Length of 3-ext integral record:             0.00 MB

 Memory could be reduced to 151.33 Mwords without degradation in triples

 Integral transformation finished. Total CPU:  14.20 sec, npass=  1  Memory used:  41.21 MW

 Reference energy:                   -129.85154413

 MP2 singlet pair energy:              -0.30972351
 MP2 triplet pair energy:              -0.17105389
 MP2 correlation energy:               -0.48077740
 MP2 total energy:                   -130.33232153

 SCS-MP2 correlation energy:           -0.47810174   (PS=  1.200000  PT=  0.333333)
 SCS-MP2 total energy:               -130.32964588

 ITER.      SQ.NORM     CORR.ENERGY   TOTAL ENERGY   ENERGY CHANGE        DEN1      VAR(S)    VAR(P)  DIIS     TIME  TIME/IT
   1      1.11903914    -0.47831220  -130.32985633     0.00246521     0.01853767  0.30D-02  0.30D-02  1  1    26.11    12.68
   2      1.12932529    -0.47830679  -130.32985092     0.00000541    -0.01231791  0.98D-04  0.47D-03  2  2    38.28    12.88
   3      1.13522158    -0.47866825  -130.33021239    -0.00036147    -0.00291699  0.45D-04  0.53D-04  3  3    50.48    12.93
   4      1.13786578    -0.47866619  -130.33021033     0.00000206    -0.00092793  0.41D-05  0.95D-05  4  4    62.57    12.97
   5      1.13891761    -0.47869301  -130.33023714    -0.00002682    -0.00023374  0.11D-05  0.17D-05  5  5    74.73    12.98
   6      1.13925639    -0.47868270  -130.33022683     0.00001031    -0.00004722  0.11D-06  0.42D-06  6  6    86.85    13.00
   7      1.13933337    -0.47868230  -130.33022643     0.00000040     0.00000261  0.17D-07  0.92D-07  6  1    98.93    13.01
   8      1.13935830    -0.47868251  -130.33022664    -0.00000021    -0.00000286  0.39D-08  0.18D-07  6  2   111.14    13.02
   9      1.13936684    -0.47868200  -130.33022614     0.00000051    -0.00000027  0.22D-08  0.18D-08  6  3   123.26    13.02
  10      1.13936253    -0.47868270  -130.33022684    -0.00000070     0.00000148  0.34D-09  0.29D-09  6  5   135.39    13.03
  11      1.13936421    -0.47868270  -130.33022683     0.00000000    -0.00000028  0.93D-10  0.25D-10  6  4   147.49    13.03
  12      1.13936377    -0.47868276  -130.33022690    -0.00000006     0.00000005  0.18D-10  0.58D-11  6  6   159.57    13.03
  13      1.13936355    -0.47868277  -130.33022690    -0.00000000    -0.00000003  0.31D-11  0.90D-12  6  1   171.74    13.03
  14      1.13936330    -0.47868278  -130.33022691    -0.00000001     0.00000004  0.50D-12  0.16D-12  6  3   183.96    13.04
  15      1.13936322    -0.47868278  -130.33022691    -0.00000000     0.00000001  0.12D-12  0.23D-13  6  2   196.10    13.04
  16      1.13936321    -0.47868278  -130.33022691     0.00000000     0.00000000  0.31D-13  0.88D-14  6  4   208.29    13.04
  17      1.13936321    -0.47868278  -130.33022691    -0.00000000    -0.00000000  0.17D-14  0.12D-14  6  5   220.49    13.04
  18      1.13936322    -0.47868278  -130.33022691     0.00000000    -0.00000000  0.28D-15  0.30D-15  6  6   232.64    13.04
  19      1.13936322    -0.47868278  -130.33022691     0.00000000    -0.00000000  0.37D-16  0.47D-16  6  2   244.78    13.04
  20      1.13936322    -0.47868278  -130.33022691     0.00000000    -0.00000000  0.94D-17  0.65D-17  6  1   256.95    13.04
  21      1.13936322    -0.47868278  -130.33022691    -0.00000000     0.00000000  0.16D-17  0.95D-18  6  3   269.17    13.04
  22      1.13936322    -0.47868278  -130.33022691    -0.00000000     0.00000000  0.35D-18  0.16D-18  6  4   281.61    13.05
  23      1.13936322    -0.47868278  -130.33022691    -0.00000000     0.00000000  0.99D-19  0.58D-19  6  2   293.76    13.05
  24      1.13936322    -0.47868278  -130.33022691    -0.00000000     0.00000000  0.41D-19  0.24D-19  6  5   305.74    13.05
  25      1.13936322    -0.47868278  -130.33022691    -0.00000000     0.00000000  0.28D-19  0.15D-19  6  6   318.01    13.05

 Norm of t1 vector:      0.07422240      S-energy:    -0.00000000      T1 diagnostic:  0.01515058
                                                                       D1 diagnostic:  0.04058179

 Doubles amplitudes (print threshold =  0.500E-01):

         I         J         SYM. A    SYM. B    A         B      T(IJ, AB)

         6         6         2         2         1         1     -0.06895913
         6         6         2         2         1         2      0.05259297
         6         6         2         2         2         1      0.05259297


 Total CPU time for triples:    130.99 sec


 RESULTS
 =======

  Reference energy                   -129.851544133805
  CCSD singlet pair energy             -0.331745818527
  CCSD triplet pair energy             -0.146936959959
  CCSD correlation energy              -0.478682778489

  Triples (T) contribution             -0.022476777175
  Total correlation energy             -0.501159555663

  CCSD total energy                  -130.330226912293
  CCSD[T] energy                     -130.353726593662
  CCSD-T energy                      -130.352338697846
 !CCSD(T) total energy               -130.352703689468

 Timing summary (sec):

 STEP                 CPU(USER)    SYS     CPU(TOT)    WALL
 Transformation         14.29      1.33     15.62     15.62
 CCSD iterations       303.72     22.62    326.34    326.39
 Triples               130.99      1.61    132.60    132.61

 Program statistics:

 Available memory in ccsd:               994999756
 Min. memory needed in ccsd:               3348832
 Max. memory used in ccsd:                 4143652
 Max. memory used in cckext:               8340089 (25 integral passes)



 **********************************************************************************************************************************
 DATASETS  * FILE   NREC   LENGTH (MB)   RECORD NAMES
              1      20     6809.36       500      610      700      900      950      970     1000      129      960     1100   
                                          VAR    BASINP    GEOM    SYMINP    ZMAT    AOBASIS   BASIS     P2S    ABASIS      S 
                                         1400     1410     1200     1210     1080     1600     1650     1300     1700     1380   
                                           T        V       H0       H01     AOSYM     SMH    MOLCAS    ERIS     OPER     JKOP   

              2       4        4.02       700     1000      520     2100   
                                         GEOM     BASIS   MCVARS     RHF  

 PROGRAMS   *        TOTAL   CCSD(T)        HF       INT
 CPU TIMES  *       731.50    449.03    158.08    124.26
 REAL TIME  *       874.67 SEC
 DISK USED  *        21.32 GB      
 **********************************************************************************************************************************

 CCSD(T)/aug-cc-pV5Z energy=   -130.352703689468

        CCSD(T)         HF-SCF  
   -130.35270369   -129.85154413
 **********************************************************************************************************************************
 Molpro calculation terminated
 Variable memory released
