
 Primary working directories    : /tmp/r2666/234673.maple
 Secondary working directories  : /tmp/r2666/234673.maple
 Wavefunction directory         : /ddn/home4/r2666/wfu/
 Main file repository           : /tmp/r2666/234673.maple/

 SHA1      : d5ffa45e93fdbca01ffc919aa182cfdae0147319
 NAME      : 2015.1.35
 ARCHNAME  : linux/x86_64
 FC        : /opt/intel/composer_xe_2015.1.133/bin/intel64/ifort
 BLASLIB   : -Wl,-_start-group /opt/intel/mkl/lib/intel64/libmkl_intel_ilp64.a /opt/intel/mkl/lib/intel64/libmkl_intel_thread.a /opt/intel/mkl/lib/intel64/libmkl_core.a -Wl,-_end-group
 id        : olemiss

 Nodes     nprocs
 cn034        1

 Using customized tuning parameters: mindgm=1; mindgv=20; mindgc=4; mindgr=1; noblas=0; minvec=7
 default implementation of scratch files=df  

 ***,hno CCSD(T)/TZ-F12 QFF
 memory, 995, m;
 gthresh,energy=1.d-12,zero=1.d-22,oneint=1.d-22,twoint=1.d-22;
 gthresh,optgrad=1.d-8,optstep=1.d-8;
 nocompress;
 geomtyp=xyz
 bohr
 geometry={
 3
         45        45
 N        0.0000000000       -0.1522579308       -1.1567714609
 H        0.0000000000        1.6650318528       -1.9392970650
 O        0.0000000000        0.0289938680        1.1454789349
 }
 
 basis=av5z
   {hf,maxit=500;accu,20;}
 {ccsd(t),nocheck,maxit=250;orbital,IGNORE_ERROR;}

 Variables initialized (889), CPU time= 0.01 sec
 Commands  initialized (702), CPU time= 0.00 sec, 572 directives.
 Default parameters read. Elapsed time= 0.05 sec

 Checking input...
 Passed
1


                                         ***  PROGRAM SYSTEM MOLPRO  ***
                                       Copyright, TTI GmbH Stuttgart, 2015
                                    Version 2015.1 linked Jul  9 2018 13:16:40


 **********************************************************************************************************************************
 LABEL *   hno CCSD(T)/TZ-F12 QFF                                                        
  64 bit serial version                                                                  DATE: 08-Feb-20          TIME: 17:24:42  
 **********************************************************************************************************************************

 SHA1:             d5ffa45e93fdbca01ffc919aa182cfdae0147319
 **********************************************************************************************************************************

 THRESHOLDS:

 ZERO    =  1.00D-22  ONEINT  =  1.00D-22  TWOINT  =  1.00D-22  PREFAC  =  1.00D-14  LOCALI  =  1.00D-09  EORDER  =  1.00D-04
 ENERGY  =  1.00D-12  ETEST   =  0.00D+00  EDENS   =  0.00D+00  THRDEDEF=  1.00D-06  GRADIENT=  1.00D-02  STEP    =  1.00D-03
 ORBITAL =  1.00D-05  CIVEC   =  1.00D-05  COEFF   =  1.00D-04  PRINTCI =  5.00D-02  PUNCHCI =  9.90D+01  OPTGRAD =  3.00D-04
 OPTENERG=  1.00D-06  OPTSTEP =  3.00D-04  THRGRAD =  1.00D-10  COMPRESS=  1.00D-11  VARMIN  =  1.00D-07  VARMAX  =  1.00D-03
 THRDOUB =  0.00D+00  THRDIV  =  1.00D-05  THRRED  =  1.00D-07  THRPSP  =  1.00D+00  THRDC   =  1.00D-10  THRCS   =  1.00D-10
 THRNRM  =  1.00D-08  THREQ   =  0.00D+00  THRDE   =  1.00D+00  THRREF  =  1.00D-05  SPARFAC =  1.00D+00  THRDLP  =  1.00D-07
 THRDIA  =  1.00D-10  THRDLS  =  1.00D-07  THRGPS  =  0.00D+00  THRKEX  =  0.00D+00  THRDIS  =  2.00D-01  THRVAR  =  1.00D-10
 THRLOC  =  1.00D-06  THRGAP  =  1.00D-06  THRLOCT = -1.00D+00  THRGAPT = -1.00D+00  THRORB  =  1.00D-06  THRMLTP =  0.00D+00
 THRCPQCI=  1.00D-10  KEXTA   =  0.00D+00  THRCOARS=  0.00D+00  SYMTOL  =  1.00D-06  GRADTOL =  1.00D-06  THROVL  =  1.00D-08
 THRORTH =  1.00D-08  GRID    =  1.00D-06  GRIDMAX =  1.00D-03  DTMAX   =  0.00D+00  THROCCDE=  1.00D-01  THROCCDE=  1.00D-01



 THRESHOLDS:

 ZERO    =  1.00D-22  ONEINT  =  1.00D-22  TWOINT  =  1.00D-22  PREFAC  =  1.00D-14  LOCALI  =  1.00D-09  EORDER  =  1.00D-04
 ENERGY  =  1.00D-12  ETEST   =  0.00D+00  EDENS   =  0.00D+00  THRDEDEF=  1.00D-06  GRADIENT=  1.00D-02  STEP    =  1.00D-03
 ORBITAL =  1.00D-05  CIVEC   =  1.00D-05  COEFF   =  1.00D-04  PRINTCI =  5.00D-02  PUNCHCI =  9.90D+01  OPTGRAD =  1.00D-08
 OPTENERG=  1.00D-06  OPTSTEP =  1.00D-08  THRGRAD =  1.00D-10  COMPRESS=  1.00D-11  VARMIN  =  1.00D-07  VARMAX  =  1.00D-03
 THRDOUB =  0.00D+00  THRDIV  =  1.00D-05  THRRED  =  1.00D-07  THRPSP  =  1.00D+00  THRDC   =  1.00D-10  THRCS   =  1.00D-10
 THRNRM  =  1.00D-08  THREQ   =  0.00D+00  THRDE   =  1.00D+00  THRREF  =  1.00D-05  SPARFAC =  1.00D+00  THRDLP  =  1.00D-07
 THRDIA  =  1.00D-10  THRDLS  =  1.00D-07  THRGPS  =  0.00D+00  THRKEX  =  0.00D+00  THRDIS  =  2.00D-01  THRVAR  =  1.00D-10
 THRLOC  =  1.00D-06  THRGAP  =  1.00D-06  THRLOCT = -1.00D+00  THRGAPT = -1.00D+00  THRORB  =  1.00D-06  THRMLTP =  0.00D+00
 THRCPQCI=  1.00D-10  KEXTA   =  0.00D+00  THRCOARS=  0.00D+00  SYMTOL  =  1.00D-06  GRADTOL =  1.00D-06  THROVL  =  1.00D-08
 THRORTH =  1.00D-08  GRID    =  1.00D-06  GRIDMAX =  1.00D-03  DTMAX   =  0.00D+00  THROCCDE=  1.00D-01  THROCCDE=  1.00D-01



 Input parameters for SORTINT:

 COMPRESS =    0.000000
 C_FINAL  =    1.000000
 DEBUG    =   -1.000000
 C_SORT1  =    0.000000
 C_SEWARD =    0.000000
 THRESH   =    0.000000
 IO       =  molpro                                                          
 SPRI     =    0.000000
 SETTING GEOMTYP        =    XYZ
 ZUNIT=BOHR
 

 Variable memory set to  995000000 words,  buffer space   230000 words

 SETTING BASIS          =    AV5Z


 Recomputing integrals since basis changed


 Using spherical harmonics

 Library entry N      S aug-cc-pV5Z          selected for orbital group  1
 Library entry N      P aug-cc-pV5Z          selected for orbital group  1
 Library entry N      D aug-cc-pV5Z          selected for orbital group  1
 Library entry N      F aug-cc-pV5Z          selected for orbital group  1
 Library entry N      G aug-cc-pV5Z          selected for orbital group  1
 Library entry N      H aug-cc-pV5Z          selected for orbital group  1
 Library entry H      S aug-cc-pV5Z          selected for orbital group  2
 Library entry H      P aug-cc-pV5Z          selected for orbital group  2
 Library entry H      D aug-cc-pV5Z          selected for orbital group  2
 Library entry H      F aug-cc-pV5Z          selected for orbital group  2
 Library entry H      G aug-cc-pV5Z          selected for orbital group  2
 Library entry O      S aug-cc-pV5Z          selected for orbital group  3
 Library entry O      P aug-cc-pV5Z          selected for orbital group  3
 Library entry O      D aug-cc-pV5Z          selected for orbital group  3
 Library entry O      F aug-cc-pV5Z          selected for orbital group  3
 Library entry O      G aug-cc-pV5Z          selected for orbital group  3
 Library entry O      H aug-cc-pV5Z          selected for orbital group  3


 PROGRAM * SEWARD (Integral evaluation for generally contracted gaussian basis sets)     Author: Roland Lindh, 1990

 Geometry written to block  1 of record 700


 Point group  Cs  



 ATOMIC COORDINATES

 NR  ATOM    CHARGE       X              Y              Z

   1  N       7.00    0.000000000   -0.152257931   -1.156771461
   2  H       1.00    0.000000000    1.665031853   -1.939297065
   3  O       8.00    0.000000000    0.028993868    1.145478935

 Bond lengths in Bohr (Angstrom)

 1-2  1.978607712  1-3  2.309374179
     ( 1.047034111)     ( 1.222068187)

 Bond angles

  2-1-3  108.79522515

 NUCLEAR CHARGE:                   16
 NUMBER OF PRIMITIVE AOS:         506
 NUMBER OF SYMMETRY AOS:          371
 NUMBER OF CONTRACTIONS:          334   ( 204A'  + 130A"  )
 NUMBER OF CORE ORBITALS:           2   (   2A'  +   0A"  )
 NUMBER OF VALENCE ORBITALS:        9   (   7A'  +   2A"  )


 NUCLEAR REPULSION ENERGY   30.07793612


 Eigenvalues of metric

         1 0.114E-04 0.177E-04 0.634E-04 0.103E-03 0.110E-03 0.140E-03 0.200E-03 0.225E-03
         2 0.132E-03 0.358E-03 0.117E-02 0.168E-02 0.191E-02 0.263E-02 0.324E-02 0.390E-02


 Contracted 2-electron integrals neglected if value below      1.0D-22

      756977191. INTEGRALS WRITTEN OUT IN  184855 BLOCKS ON RECORD 1290 OF FILE 1


 NUMBER OF SORTED TWO-ELECTRON INTEGRALS:  789027325.     BUFFER LENGTH:  32768
 NUMBER OF SEGMENTS:  25  SEGMENT LENGTH:   31997130      RECORD LENGTH: 524288

 Memory used in sort:      32.55 MW

 SORT1 READ   756977191. AND WROTE   760993064. INTEGRALS IN   2189 RECORDS. CPU TIME:    27.22 SEC, REAL TIME:   168.34 SEC
 SORT2 READ   760993064. AND WROTE   789027325. INTEGRALS IN     25 RECORDS. CPU TIME:    11.14 SEC, REAL TIME:    71.54 SEC

 FILE SIZES:   FILE 1: 12137.5 MBYTE,  FILE 4:  9181.4 MBYTE,   TOTAL:  21318.9 MBYTE

 OPERATOR DM      FOR CENTER  0  COORDINATES:    0.000000    0.000000    0.000000


 **********************************************************************************************************************************
 DATASETS  * FILE   NREC   LENGTH (MB)   RECORD NAMES
              1      19     6374.22       500      610      700      900      950      970     1000      129      960     1100   
                                          VAR    BASINP    GEOM    SYMINP    ZMAT    AOBASIS   BASIS     P2S    ABASIS      S 
                                         1400     1410     1200     1210     1080     1600     1650     1300     1700   
                                           T        V       H0       H01     AOSYM     SMH    MOLCAS    ERIS     OPER   

 PROGRAMS   *        TOTAL       INT
 CPU TIMES  *       141.43    141.34
 REAL TIME  *       350.58 SEC
 DISK USED  *        21.32 GB      
 **********************************************************************************************************************************


 PROGRAM * RHF-SCF (CLOSED SHELL)       Authors: W. Meyer, H.-J. Werner


 NUMBER OF ELECTRONS:       8+    8-
 CONVERGENCE THRESHOLDS:    1.00E-10 (Density)    1.00E-13 (Energy)
 MAX. NUMBER OF ITERATIONS:      500
 INTERPOLATION TYPE:            DIIS
 INTERPOLATION STEPS:              2 (START)      1 (STEP)
 LEVEL SHIFTS:                  0.00 (CLOSED)  0.00 (OPEN) 



 Orbital guess generated from atomic densities. Full valence occupancy:    9   2

 Molecular orbital dump at record        2100.2

 Initial occupancy:   7   1

 ITERATION    DDIFF          GRAD             ENERGY        2-EL.EN.            DIPOLE MOMENTS         DIIS   ORB.
    1      0.000D+00      0.000D+00      -129.79458729    153.457308    0.00000    0.60983   -1.07539    0    start
    2      0.000D+00      0.650D-02      -129.82128050    154.645660    0.00000    0.61883   -0.20415    1    diag
    3      0.411D-02      0.510D-02      -129.84647534    154.806396    0.00000    0.56687   -0.61820    2    diag
    4      0.215D-02      0.784D-03      -129.84731450    154.510966    0.00000    0.57362   -0.55394    3    diag
    5      0.386D-03      0.254D-03      -129.84744525    154.605880    0.00000    0.57886   -0.55622    4    diag
    6      0.159D-03      0.732D-04      -129.84746613    154.589442    0.00000    0.57908   -0.55176    5    diag
    7      0.612D-04      0.369D-04      -129.84747243    154.592073    0.00000    0.58026   -0.54894    6    diag
    8      0.424D-04      0.136D-04      -129.84747325    154.591318    0.00000    0.58030   -0.54779    7    diag
    9      0.176D-04      0.268D-05      -129.84747328    154.591195    0.00000    0.58026   -0.54754    8    diag
   10      0.368D-05      0.590D-06      -129.84747329    154.591176    0.00000    0.58022   -0.54751    9    orth
   11      0.674D-06      0.116D-06      -129.84747329    154.591172    0.00000    0.58022   -0.54751    9    diag
   12      0.121D-06      0.243D-07      -129.84747329    154.591173    0.00000    0.58022   -0.54751    9    diag
   13      0.257D-07      0.662D-08      -129.84747329    154.591172    0.00000    0.58022   -0.54751    9    diag
   14      0.730D-08      0.129D-08      -129.84747329    154.591172    0.00000    0.58022   -0.54751    9    diag
   15      0.133D-08      0.365D-09      -129.84747329    154.591172    0.00000    0.58022   -0.54751    9    diag
   16      0.407D-09      0.107D-09      -129.84747329    154.591172    0.00000    0.58022   -0.54751    9    diag
   17      0.736D-10      0.271D-10      -129.84747329    154.591172    0.00000    0.58022   -0.54751    9    diag
   18      0.252D-10      0.908D-11      -129.84747329    154.591172    0.00000    0.58022   -0.54751    9    diag
   19      0.133D-10      0.227D-11      -129.84747329    154.591172    0.00000    0.58022   -0.54751    9    fixocc
   20      0.231D-10      0.557D-12      -129.84747329    154.591172    0.00000    0.58022   -0.54751    9    orth
   21      0.855D-11      0.791D-12      -129.84747329    154.591172    0.00000    0.58022   -0.54751    0    orth

 Final occupancy:   7   1

 !RHF STATE 1.1 Energy               -129.847473285625
 Nuclear energy                        30.07793612
 One-electron energy                 -237.22099561
 Two-electron energy                   77.29558621
 Virial quotient                       -1.00206653
 !RHF STATE 1.1 Dipole moment           0.00000000     0.58021532    -0.54751219
 Dipole moment /Debye                   0.00000000     1.47466365    -1.39154602

 Orbital energies:

         1.1          2.1          3.1          4.1          5.1          6.1          7.1          8.1          9.1
    -20.654351   -15.713824    -1.517694    -0.999320    -0.743492    -0.662203    -0.434716     0.022654     0.065513

         1.2          2.2          3.2
     -0.589312     0.057104     0.090375

 HOMO      7.1    -0.434716 =     -11.8292eV
 LUMO      8.1     0.022654 =       0.6165eV
 LUMO-HOMO         0.457370 =      12.4457eV


 **********************************************************************************************************************************
 DATASETS  * FILE   NREC   LENGTH (MB)   RECORD NAMES
              1      19     6374.22       500      610      700      900      950      970     1000      129      960     1100   
                                          VAR    BASINP    GEOM    SYMINP    ZMAT    AOBASIS   BASIS     P2S    ABASIS      S 
                                         1400     1410     1200     1210     1080     1600     1650     1300     1700   
                                           T        V       H0       H01     AOSYM     SMH    MOLCAS    ERIS     OPER   

              2       4        4.02       700     1000      520     2100   
                                         GEOM     BASIS   MCVARS     RHF  

 PROGRAMS   *        TOTAL        HF       INT
 CPU TIMES  *       226.04     84.61    141.34
 REAL TIME  *       458.85 SEC
 DISK USED  *        21.32 GB      
 **********************************************************************************************************************************


 PROGRAM * CCSD (Closed-shell coupled cluster)     Authors: C. Hampel, H.-J. Werner, 1991, M. Deegan, P.J. Knowles, 1992


 Convergence thresholds:  THRVAR = 1.00D-08  THRDEN = 1.00D-12

 CCSD(T)     terms to be evaluated (factor= 1.000)


 Number of core orbitals:           2 (   2   0 )
 Number of closed-shell orbitals:   6 (   5   1 )
 Number of external orbitals:     326 ( 197 129 )

 Molecular orbitals read from record     2100.2  Type=RHF/CANONICAL (state 1.1)

 Number of N-1 electron functions:               6
 Number of N-2 electron functions:              21
 Number of singly external CSFs:              1114
 Number of doubly external CSFs:            975958
 Total number of CSFs:                      977073

 Length of J-op  integral file:               0.00 MB
 Length of K-op  integral file:               4.07 MB
 Length of 3-ext integral record:             0.00 MB

 Memory could be reduced to 151.33 Mwords without degradation in triples

 Integral transformation finished. Total CPU:  13.86 sec, npass=  1  Memory used:  41.21 MW

 Reference energy:                   -129.84747329

 MP2 singlet pair energy:              -0.31250315
 MP2 triplet pair energy:              -0.17291813
 MP2 correlation energy:               -0.48542127
 MP2 total energy:                   -130.33289456

 SCS-MP2 correlation energy:           -0.48259728   (PS=  1.200000  PT=  0.333333)
 SCS-MP2 total energy:               -130.33007056

 ITER.      SQ.NORM     CORR.ENERGY   TOTAL ENERGY   ENERGY CHANGE        DEN1      VAR(S)    VAR(P)  DIIS     TIME  TIME/IT
   1      1.12195473    -0.48185238  -130.32932567     0.00356889     0.02084041  0.34D-02  0.34D-02  1  1    24.79    11.91
   2      1.13292893    -0.48161041  -130.32908370     0.00024197    -0.01303784  0.11D-03  0.51D-03  2  2    35.94    12.11
   3      1.13933882    -0.48201200  -130.32948528    -0.00040159    -0.00307457  0.52D-04  0.60D-04  3  3    47.06    12.20
   4      1.14229815    -0.48201097  -130.32948426     0.00000103    -0.00101148  0.50D-05  0.11D-04  4  4    58.26    12.23
   5      1.14353296    -0.48204262  -130.32951591    -0.00003165    -0.00027212  0.12D-05  0.18D-05  5  5    69.41    12.25
   6      1.14391746    -0.48202953  -130.32950281     0.00001309    -0.00005473  0.12D-06  0.42D-06  6  6    80.65    12.29
   7      1.14399491    -0.48202933  -130.32950262     0.00000019     0.00000418  0.16D-07  0.98D-07  6  1    91.75    12.31
   8      1.14402104    -0.48202924  -130.32950252     0.00000010    -0.00000332  0.34D-08  0.21D-07  6  2   102.96    12.32
   9      1.14402965    -0.48202863  -130.32950191     0.00000061    -0.00000008  0.24D-08  0.24D-08  6  3   114.06    12.32
  10      1.14402453    -0.48202943  -130.32950272    -0.00000080     0.00000173  0.40D-09  0.40D-09  6  5   125.23    12.33
  11      1.14402685    -0.48202940  -130.32950268     0.00000003    -0.00000046  0.12D-09  0.34D-10  6  4   136.28    12.33
  12      1.14402639    -0.48202948  -130.32950276    -0.00000008     0.00000005  0.20D-10  0.75D-11  6  6   147.62    12.34
  13      1.14402618    -0.48202948  -130.32950276    -0.00000000    -0.00000004  0.33D-11  0.10D-11  6  1   158.50    12.34
  14      1.14402588    -0.48202949  -130.32950278    -0.00000001     0.00000004  0.43D-12  0.19D-12  6  3   169.65    12.34
  15      1.14402580    -0.48202949  -130.32950278    -0.00000000     0.00000001  0.12D-12  0.23D-13  6  2   180.67    12.34
  16      1.14402578    -0.48202949  -130.32950278     0.00000000     0.00000000  0.35D-13  0.87D-14  6  4   191.87    12.34
  17      1.14402578    -0.48202949  -130.32950278    -0.00000000    -0.00000000  0.22D-14  0.11D-14  6  5   203.04    12.34
  18      1.14402579    -0.48202949  -130.32950278     0.00000000    -0.00000000  0.31D-15  0.30D-15  6  6   214.17    12.34
  19      1.14402579    -0.48202949  -130.32950278     0.00000000    -0.00000000  0.53D-16  0.41D-16  6  1   225.23    12.34
  20      1.14402580    -0.48202949  -130.32950278     0.00000000    -0.00000000  0.12D-16  0.64D-17  6  3   236.45    12.34
  21      1.14402579    -0.48202949  -130.32950278    -0.00000000     0.00000000  0.22D-17  0.12D-17  6  2   247.49    12.33
  22      1.14402579    -0.48202949  -130.32950278    -0.00000000     0.00000000  0.37D-18  0.18D-18  6  4   258.65    12.33
  23      1.14402579    -0.48202949  -130.32950278    -0.00000000     0.00000000  0.86D-19  0.50D-19  6  5   269.71    12.33
  24      1.14402579    -0.48202949  -130.32950278    -0.00000000     0.00000000  0.35D-19  0.22D-19  6  6   280.75    12.33
  25      1.14402579    -0.48202949  -130.32950278    -0.00000000     0.00000000  0.15D-19  0.10D-19  6  1   291.98    12.33

 Norm of t1 vector:      0.07861875      S-energy:    -0.00000000      T1 diagnostic:  0.01604799
                                                                       D1 diagnostic:  0.04413380

 Doubles amplitudes (print threshold =  0.500E-01):

         I         J         SYM. A    SYM. B    A         B      T(IJ, AB)

         6         6         2         2         1         1     -0.08979038
         6         6         2         2         1         2      0.05259791
         6         6         2         2         2         1      0.05259791


 Total CPU time for triples:    115.26 sec


 RESULTS
 =======

  Reference energy                   -129.847473285625
  CCSD singlet pair energy             -0.334646912568
  CCSD triplet pair energy             -0.147382580642
  CCSD correlation energy              -0.482029493212

  Triples (T) contribution             -0.023349650111
  Total correlation energy             -0.505379143323

  CCSD total energy                  -130.329502778838
  CCSD[T] energy                     -130.353993243900
  CCSD-T energy                      -130.352459261595
 !CCSD(T) total energy               -130.352852428949

 Timing summary (sec):

 STEP                 CPU(USER)    SYS     CPU(TOT)    WALL
 Transformation         13.93      1.67     15.60     15.61
 CCSD iterations       278.05     30.16    308.21    308.27
 Triples               115.26      2.01    117.27    117.29

 Program statistics:

 Available memory in ccsd:               994999756
 Min. memory needed in ccsd:               3348832
 Max. memory used in ccsd:                 4143652
 Max. memory used in cckext:               8340089 (25 integral passes)



 **********************************************************************************************************************************
 DATASETS  * FILE   NREC   LENGTH (MB)   RECORD NAMES
              1      20     6809.41       500      610      700      900      950      970     1000      129      960     1100   
                                          VAR    BASINP    GEOM    SYMINP    ZMAT    AOBASIS   BASIS     P2S    ABASIS      S 
                                         1400     1410     1200     1210     1080     1600     1650     1300     1700     1380   
                                           T        V       H0       H01     AOSYM     SMH    MOLCAS    ERIS     OPER     JKOP   

              2       4        4.02       700     1000      520     2100   
                                         GEOM     BASIS   MCVARS     RHF  

 PROGRAMS   *        TOTAL   CCSD(T)        HF       INT
 CPU TIMES  *       633.31    407.26     84.61    141.34
 REAL TIME  *       900.07 SEC
 DISK USED  *        21.32 GB      
 **********************************************************************************************************************************

 CCSD(T)/aug-cc-pV5Z energy=   -130.352852428949

        CCSD(T)         HF-SCF  
   -130.35285243   -129.84747329
 **********************************************************************************************************************************
 Molpro calculation terminated
 Variable memory released
