
 Primary working directories    : /tmp/r2666/234676.maple
 Secondary working directories  : /tmp/r2666/234676.maple
 Wavefunction directory         : /ddn/home4/r2666/wfu/
 Main file repository           : /tmp/r2666/234676.maple/

 SHA1      : d5ffa45e93fdbca01ffc919aa182cfdae0147319
 NAME      : 2015.1.35
 ARCHNAME  : linux/x86_64
 FC        : /opt/intel/composer_xe_2015.1.133/bin/intel64/ifort
 BLASLIB   : -Wl,-_start-group /opt/intel/mkl/lib/intel64/libmkl_intel_ilp64.a /opt/intel/mkl/lib/intel64/libmkl_intel_thread.a /opt/intel/mkl/lib/intel64/libmkl_core.a -Wl,-_end-group
 id        : olemiss

 Nodes     nprocs
 cn035        1

 Using customized tuning parameters: mindgm=1; mindgv=20; mindgc=4; mindgr=1; noblas=0; minvec=7
 default implementation of scratch files=df  

 ***,hno CCSD(T)/TZ-F12 QFF
 memory, 995, m;
 gthresh,energy=1.d-12,zero=1.d-22,oneint=1.d-22,twoint=1.d-22;
 gthresh,optgrad=1.d-8,optstep=1.d-8;
 nocompress;
 geomtyp=xyz
 bohr
 geometry={
 3
         48        48
 N        0.0000000000       -0.1647963980       -1.1405073955
 H        0.0000000000        1.6645343148       -1.9189142060
 O        0.0000000000        0.0420298732        1.1088320105
 }
 
 basis=av5z
   {hf,maxit=500;accu,20;}
 {ccsd(t),nocheck,maxit=250;orbital,IGNORE_ERROR;}

 Variables initialized (889), CPU time= 0.00 sec
 Commands  initialized (702), CPU time= 0.01 sec, 572 directives.
 Default parameters read. Elapsed time= 0.05 sec

 Checking input...
 Passed
1


                                         ***  PROGRAM SYSTEM MOLPRO  ***
                                       Copyright, TTI GmbH Stuttgart, 2015
                                    Version 2015.1 linked Jul  9 2018 13:16:40


 **********************************************************************************************************************************
 LABEL *   hno CCSD(T)/TZ-F12 QFF                                                        
  64 bit serial version                                                                  DATE: 08-Feb-20          TIME: 17:24:42  
 **********************************************************************************************************************************

 SHA1:             d5ffa45e93fdbca01ffc919aa182cfdae0147319
 **********************************************************************************************************************************

 THRESHOLDS:

 ZERO    =  1.00D-22  ONEINT  =  1.00D-22  TWOINT  =  1.00D-22  PREFAC  =  1.00D-14  LOCALI  =  1.00D-09  EORDER  =  1.00D-04
 ENERGY  =  1.00D-12  ETEST   =  0.00D+00  EDENS   =  0.00D+00  THRDEDEF=  1.00D-06  GRADIENT=  1.00D-02  STEP    =  1.00D-03
 ORBITAL =  1.00D-05  CIVEC   =  1.00D-05  COEFF   =  1.00D-04  PRINTCI =  5.00D-02  PUNCHCI =  9.90D+01  OPTGRAD =  3.00D-04
 OPTENERG=  1.00D-06  OPTSTEP =  3.00D-04  THRGRAD =  1.00D-10  COMPRESS=  1.00D-11  VARMIN  =  1.00D-07  VARMAX  =  1.00D-03
 THRDOUB =  0.00D+00  THRDIV  =  1.00D-05  THRRED  =  1.00D-07  THRPSP  =  1.00D+00  THRDC   =  1.00D-10  THRCS   =  1.00D-10
 THRNRM  =  1.00D-08  THREQ   =  0.00D+00  THRDE   =  1.00D+00  THRREF  =  1.00D-05  SPARFAC =  1.00D+00  THRDLP  =  1.00D-07
 THRDIA  =  1.00D-10  THRDLS  =  1.00D-07  THRGPS  =  0.00D+00  THRKEX  =  0.00D+00  THRDIS  =  2.00D-01  THRVAR  =  1.00D-10
 THRLOC  =  1.00D-06  THRGAP  =  1.00D-06  THRLOCT = -1.00D+00  THRGAPT = -1.00D+00  THRORB  =  1.00D-06  THRMLTP =  0.00D+00
 THRCPQCI=  1.00D-10  KEXTA   =  0.00D+00  THRCOARS=  0.00D+00  SYMTOL  =  1.00D-06  GRADTOL =  1.00D-06  THROVL  =  1.00D-08
 THRORTH =  1.00D-08  GRID    =  1.00D-06  GRIDMAX =  1.00D-03  DTMAX   =  0.00D+00  THROCCDE=  1.00D-01  THROCCDE=  1.00D-01



 THRESHOLDS:

 ZERO    =  1.00D-22  ONEINT  =  1.00D-22  TWOINT  =  1.00D-22  PREFAC  =  1.00D-14  LOCALI  =  1.00D-09  EORDER  =  1.00D-04
 ENERGY  =  1.00D-12  ETEST   =  0.00D+00  EDENS   =  0.00D+00  THRDEDEF=  1.00D-06  GRADIENT=  1.00D-02  STEP    =  1.00D-03
 ORBITAL =  1.00D-05  CIVEC   =  1.00D-05  COEFF   =  1.00D-04  PRINTCI =  5.00D-02  PUNCHCI =  9.90D+01  OPTGRAD =  1.00D-08
 OPTENERG=  1.00D-06  OPTSTEP =  1.00D-08  THRGRAD =  1.00D-10  COMPRESS=  1.00D-11  VARMIN  =  1.00D-07  VARMAX  =  1.00D-03
 THRDOUB =  0.00D+00  THRDIV  =  1.00D-05  THRRED  =  1.00D-07  THRPSP  =  1.00D+00  THRDC   =  1.00D-10  THRCS   =  1.00D-10
 THRNRM  =  1.00D-08  THREQ   =  0.00D+00  THRDE   =  1.00D+00  THRREF  =  1.00D-05  SPARFAC =  1.00D+00  THRDLP  =  1.00D-07
 THRDIA  =  1.00D-10  THRDLS  =  1.00D-07  THRGPS  =  0.00D+00  THRKEX  =  0.00D+00  THRDIS  =  2.00D-01  THRVAR  =  1.00D-10
 THRLOC  =  1.00D-06  THRGAP  =  1.00D-06  THRLOCT = -1.00D+00  THRGAPT = -1.00D+00  THRORB  =  1.00D-06  THRMLTP =  0.00D+00
 THRCPQCI=  1.00D-10  KEXTA   =  0.00D+00  THRCOARS=  0.00D+00  SYMTOL  =  1.00D-06  GRADTOL =  1.00D-06  THROVL  =  1.00D-08
 THRORTH =  1.00D-08  GRID    =  1.00D-06  GRIDMAX =  1.00D-03  DTMAX   =  0.00D+00  THROCCDE=  1.00D-01  THROCCDE=  1.00D-01



 Input parameters for SORTINT:

 COMPRESS =    0.000000
 C_FINAL  =    1.000000
 DEBUG    =   -1.000000
 C_SORT1  =    0.000000
 C_SEWARD =    0.000000
 THRESH   =    0.000000
 IO       =  molpro                                                          
 SPRI     =    0.000000
 SETTING GEOMTYP        =    XYZ
 ZUNIT=BOHR
 

 Variable memory set to  995000000 words,  buffer space   230000 words

 SETTING BASIS          =    AV5Z


 Recomputing integrals since basis changed


 Using spherical harmonics

 Library entry N      S aug-cc-pV5Z          selected for orbital group  1
 Library entry N      P aug-cc-pV5Z          selected for orbital group  1
 Library entry N      D aug-cc-pV5Z          selected for orbital group  1
 Library entry N      F aug-cc-pV5Z          selected for orbital group  1
 Library entry N      G aug-cc-pV5Z          selected for orbital group  1
 Library entry N      H aug-cc-pV5Z          selected for orbital group  1
 Library entry H      S aug-cc-pV5Z          selected for orbital group  2
 Library entry H      P aug-cc-pV5Z          selected for orbital group  2
 Library entry H      D aug-cc-pV5Z          selected for orbital group  2
 Library entry H      F aug-cc-pV5Z          selected for orbital group  2
 Library entry H      G aug-cc-pV5Z          selected for orbital group  2
 Library entry O      S aug-cc-pV5Z          selected for orbital group  3
 Library entry O      P aug-cc-pV5Z          selected for orbital group  3
 Library entry O      D aug-cc-pV5Z          selected for orbital group  3
 Library entry O      F aug-cc-pV5Z          selected for orbital group  3
 Library entry O      G aug-cc-pV5Z          selected for orbital group  3
 Library entry O      H aug-cc-pV5Z          selected for orbital group  3


 PROGRAM * SEWARD (Integral evaluation for generally contracted gaussian basis sets)     Author: Roland Lindh, 1990

 Geometry written to block  1 of record 700


 Point group  Cs  



 ATOMIC COORDINATES

 NR  ATOM    CHARGE       X              Y              Z

   1  N       7.00    0.000000000   -0.164796398   -1.140507396
   2  H       1.00    0.000000000    1.664534315   -1.918914206
   3  O       8.00    0.000000000    0.042029873    1.108832011

 Bond lengths in Bohr (Angstrom)

 1-2  1.988056342  1-3  2.258828207
     ( 1.052034110)     ( 1.195320411)

 Bond angles

  2-1-3  107.79689599

 NUCLEAR CHARGE:                   16
 NUMBER OF PRIMITIVE AOS:         506
 NUMBER OF SYMMETRY AOS:          371
 NUMBER OF CONTRACTIONS:          334   ( 204A'  + 130A"  )
 NUMBER OF CORE ORBITALS:           2   (   2A'  +   0A"  )
 NUMBER OF VALENCE ORBITALS:        9   (   7A'  +   2A"  )


 NUCLEAR REPULSION ENERGY   30.64155525


 Eigenvalues of metric

         1 0.110E-04 0.167E-04 0.631E-04 0.960E-04 0.101E-03 0.133E-03 0.198E-03 0.222E-03
         2 0.122E-03 0.363E-03 0.107E-02 0.148E-02 0.191E-02 0.243E-02 0.324E-02 0.382E-02


 Contracted 2-electron integrals neglected if value below      1.0D-22

      756977568. INTEGRALS WRITTEN OUT IN  184855 BLOCKS ON RECORD 1290 OF FILE 1


 NUMBER OF SORTED TWO-ELECTRON INTEGRALS:  789027325.     BUFFER LENGTH:  32768
 NUMBER OF SEGMENTS:  25  SEGMENT LENGTH:   31997130      RECORD LENGTH: 524288

 Memory used in sort:      32.55 MW

 SORT1 READ   756977568. AND WROTE   760993463. INTEGRALS IN   2189 RECORDS. CPU TIME:    27.23 SEC, REAL TIME:   169.34 SEC
 SORT2 READ   760993463. AND WROTE   789027325. INTEGRALS IN     25 RECORDS. CPU TIME:    11.29 SEC, REAL TIME:    68.57 SEC

 FILE SIZES:   FILE 1: 12137.5 MBYTE,  FILE 4:  9181.4 MBYTE,   TOTAL:  21318.9 MBYTE

 OPERATOR DM      FOR CENTER  0  COORDINATES:    0.000000    0.000000    0.000000


 **********************************************************************************************************************************
 DATASETS  * FILE   NREC   LENGTH (MB)   RECORD NAMES
              1      19     6374.22       500      610      700      900      950      970     1000      129      960     1100   
                                          VAR    BASINP    GEOM    SYMINP    ZMAT    AOBASIS   BASIS     P2S    ABASIS      S 
                                         1400     1410     1200     1210     1080     1600     1650     1300     1700   
                                           T        V       H0       H01     AOSYM     SMH    MOLCAS    ERIS     OPER   

 PROGRAMS   *        TOTAL       INT
 CPU TIMES  *       140.76    140.67
 REAL TIME  *       361.33 SEC
 DISK USED  *        21.32 GB      
 **********************************************************************************************************************************


 PROGRAM * RHF-SCF (CLOSED SHELL)       Authors: W. Meyer, H.-J. Werner


 NUMBER OF ELECTRONS:       8+    8-
 CONVERGENCE THRESHOLDS:    1.00E-10 (Density)    1.00E-13 (Energy)
 MAX. NUMBER OF ITERATIONS:      500
 INTERPOLATION TYPE:            DIIS
 INTERPOLATION STEPS:              2 (START)      1 (STEP)
 LEVEL SHIFTS:                  0.00 (CLOSED)  0.00 (OPEN) 



 Orbital guess generated from atomic densities. Full valence occupancy:    9   2

 Molecular orbital dump at record        2100.2

 Initial occupancy:   7   1

 ITERATION    DDIFF          GRAD             ENERGY        2-EL.EN.            DIPOLE MOMENTS         DIIS   ORB.
    1      0.000D+00      0.000D+00      -129.80182186    154.469744    0.00000    0.58627   -0.98751    0    start
    2      0.000D+00      0.633D-02      -129.82938852    155.711074    0.00000    0.60266   -0.21093    1    diag
    3      0.390D-02      0.469D-02      -129.85041057    155.810909    0.00000    0.54911   -0.57363    2    diag
    4      0.200D-02      0.755D-03      -129.85118640    155.536420    0.00000    0.55697   -0.51431    3    diag
    5      0.371D-03      0.245D-03      -129.85130747    155.628845    0.00000    0.56217   -0.51700    4    diag
    6      0.153D-03      0.709D-04      -129.85132678    155.612696    0.00000    0.56249   -0.51301    5    diag
    7      0.587D-04      0.349D-04      -129.85133224    155.615608    0.00000    0.56375   -0.51056    6    diag
    8      0.399D-04      0.118D-04      -129.85133281    155.614941    0.00000    0.56380   -0.50963    7    diag
    9      0.145D-04      0.224D-05      -129.85133283    155.614839    0.00000    0.56377   -0.50942    8    diag
   10      0.284D-05      0.518D-06      -129.85133283    155.614822    0.00000    0.56374   -0.50939    9    orth
   11      0.584D-06      0.106D-06      -129.85133283    155.614818    0.00000    0.56373   -0.50939    9    diag
   12      0.113D-06      0.214D-07      -129.85133283    155.614818    0.00000    0.56373   -0.50939    9    diag
   13      0.250D-07      0.552D-08      -129.85133283    155.614818    0.00000    0.56373   -0.50939    9    diag
   14      0.654D-08      0.109D-08      -129.85133283    155.614818    0.00000    0.56373   -0.50939    9    diag
   15      0.121D-08      0.321D-09      -129.85133283    155.614818    0.00000    0.56373   -0.50939    9    diag
   16      0.365D-09      0.100D-09      -129.85133283    155.614818    0.00000    0.56373   -0.50939    9    diag
   17      0.766D-10      0.278D-10      -129.85133283    155.614818    0.00000    0.56373   -0.50939    9    diag
   18      0.298D-10      0.936D-11      -129.85133283    155.614818    0.00000    0.56373   -0.50939    9    diag
   19      0.243D-10      0.243D-11      -129.85133283    155.614818    0.00000    0.56373   -0.50939    9    fixocc
   20      0.261D-10      0.610D-12      -129.85133283    155.614818    0.00000    0.56373   -0.50939    9    orth
   21      0.136D-10      0.426D-12      -129.85133283    155.614818    0.00000    0.56373   -0.50939    9    diag
   22      0.104D-10      0.273D-12      -129.85133283    155.614818    0.00000    0.56373   -0.50939    0    orth

 Final occupancy:   7   1

 !RHF STATE 1.1 Energy               -129.851332834530
 Nuclear energy                        30.64155525
 One-electron energy                 -238.30029695
 Two-electron energy                   77.80740887
 Virial quotient                       -1.00129944
 !RHF STATE 1.1 Dipole moment           0.00000000     0.56372733    -0.50938960
 Dipole moment /Debye                   0.00000000     1.43275810    -1.29465443

 Orbital energies:

         1.1          2.1          3.1          4.1          5.1          6.1          7.1          8.1          9.1
    -20.651619   -15.710068    -1.539988    -0.991184    -0.751125    -0.669666    -0.426893     0.023025     0.065567

         1.2          2.2          3.2
     -0.602197     0.062682     0.092868

 HOMO      7.1    -0.426893 =     -11.6164eV
 LUMO      8.1     0.023025 =       0.6266eV
 LUMO-HOMO         0.449919 =      12.2429eV


 **********************************************************************************************************************************
 DATASETS  * FILE   NREC   LENGTH (MB)   RECORD NAMES
              1      19     6374.22       500      610      700      900      950      970     1000      129      960     1100   
                                          VAR    BASINP    GEOM    SYMINP    ZMAT    AOBASIS   BASIS     P2S    ABASIS      S 
                                         1400     1410     1200     1210     1080     1600     1650     1300     1700   
                                           T        V       H0       H01     AOSYM     SMH    MOLCAS    ERIS     OPER   

              2       4        4.02       700     1000      520     2100   
                                         GEOM     BASIS   MCVARS     RHF  

 PROGRAMS   *        TOTAL        HF       INT
 CPU TIMES  *       228.25     87.49    140.67
 REAL TIME  *       471.74 SEC
 DISK USED  *        21.32 GB      
 **********************************************************************************************************************************


 PROGRAM * CCSD (Closed-shell coupled cluster)     Authors: C. Hampel, H.-J. Werner, 1991, M. Deegan, P.J. Knowles, 1992


 Convergence thresholds:  THRVAR = 1.00D-08  THRDEN = 1.00D-12

 CCSD(T)     terms to be evaluated (factor= 1.000)


 Number of core orbitals:           2 (   2   0 )
 Number of closed-shell orbitals:   6 (   5   1 )
 Number of external orbitals:     326 ( 197 129 )

 Molecular orbitals read from record     2100.2  Type=RHF/CANONICAL (state 1.1)

 Number of N-1 electron functions:               6
 Number of N-2 electron functions:              21
 Number of singly external CSFs:              1114
 Number of doubly external CSFs:            975958
 Total number of CSFs:                      977073

 Length of J-op  integral file:               0.00 MB
 Length of K-op  integral file:               4.07 MB
 Length of 3-ext integral record:             0.00 MB

 Memory could be reduced to 151.33 Mwords without degradation in triples

 Integral transformation finished. Total CPU:  13.49 sec, npass=  1  Memory used:  41.21 MW

 Reference energy:                   -129.85133283

 MP2 singlet pair energy:              -0.30990344
 MP2 triplet pair energy:              -0.17116232
 MP2 correlation energy:               -0.48106575
 MP2 total energy:                   -130.33239859

 SCS-MP2 correlation energy:           -0.47838512   (PS=  1.200000  PT=  0.333333)
 SCS-MP2 total energy:               -130.32971795

 ITER.      SQ.NORM     CORR.ENERGY   TOTAL ENERGY   ENERGY CHANGE        DEN1      VAR(S)    VAR(P)  DIIS     TIME  TIME/IT
   1      1.11923490    -0.47856485  -130.32989769     0.00250090     0.01861309  0.30D-02  0.31D-02  1  1    24.31    11.71
   2      1.12954343    -0.47855759  -130.32989042     0.00000726    -0.01234533  0.98D-04  0.47D-03  2  2    35.23    11.91
   3      1.13545201    -0.47891930  -130.33025213    -0.00036171    -0.00292892  0.44D-04  0.53D-04  3  3    46.22    11.99
   4      1.13809298    -0.47891737  -130.33025021     0.00000193    -0.00092890  0.41D-05  0.93D-05  4  4    57.21    12.03
   5      1.13913407    -0.47894428  -130.33027711    -0.00002690    -0.00023227  0.11D-05  0.16D-05  5  5    68.31    12.05
   6      1.13946654    -0.47893393  -130.33026677     0.00001034    -0.00004670  0.11D-06  0.40D-06  6  6    79.24    12.07
   7      1.13954079    -0.47893349  -130.33026632     0.00000045     0.00000274  0.17D-07  0.88D-07  6  1    90.26    12.08
   8      1.13956512    -0.47893363  -130.33026646    -0.00000014    -0.00000282  0.36D-08  0.17D-07  6  2   101.31    12.10
   9      1.13957339    -0.47893312  -130.33026595     0.00000051    -0.00000025  0.21D-08  0.17D-08  6  3   112.22    12.10
  10      1.13956920    -0.47893380  -130.33026664    -0.00000068     0.00000146  0.31D-09  0.28D-09  6  5   123.07    12.10
  11      1.13957087    -0.47893380  -130.33026663     0.00000000    -0.00000029  0.87D-10  0.23D-10  6  4   134.10    12.11
  12      1.13957044    -0.47893386  -130.33026669    -0.00000006     0.00000005  0.16D-10  0.54D-11  6  6   144.96    12.11
  13      1.13957008    -0.47893387  -130.33026670    -0.00000001    -0.00000003  0.17D-11  0.68D-12  6  4   155.91    12.11
  14      1.13957000    -0.47893387  -130.33026671    -0.00000001     0.00000002  0.45D-12  0.15D-12  6  1   166.95    12.11
  15      1.13956993    -0.47893388  -130.33026671    -0.00000000     0.00000001  0.89D-13  0.29D-13  6  3   177.95    12.11
  16      1.13956992    -0.47893388  -130.33026671    -0.00000000     0.00000001  0.17D-13  0.61D-14  6  2   188.94    12.12
  17      1.13956991    -0.47893388  -130.33026671    -0.00000000     0.00000000  0.19D-14  0.15D-14  6  5   199.94    12.12
  18      1.13956992    -0.47893388  -130.33026671     0.00000000    -0.00000000  0.28D-15  0.28D-15  6  6   211.02    12.12
  19      1.13956992    -0.47893388  -130.33026671     0.00000000    -0.00000000  0.69D-16  0.50D-16  6  4   221.94    12.12
  20      1.13956992    -0.47893388  -130.33026671     0.00000000    -0.00000000  0.91D-17  0.72D-17  6  3   232.83    12.12
  21      1.13956992    -0.47893388  -130.33026671     0.00000000    -0.00000000  0.18D-17  0.13D-17  6  1   243.81    12.12
  22      1.13956992    -0.47893388  -130.33026671    -0.00000000     0.00000000  0.49D-18  0.36D-18  6  2   254.82    12.12
  23      1.13956992    -0.47893388  -130.33026671     0.00000000    -0.00000000  0.16D-18  0.15D-18  6  1   265.79    12.12
  24      1.13956992    -0.47893388  -130.33026671     0.00000000    -0.00000000  0.81D-19  0.84D-19  6  5   276.78    12.12

 Norm of t1 vector:      0.07410049      S-energy:    -0.00000000      T1 diagnostic:  0.01512570
                                                                       D1 diagnostic:  0.04053886

 Doubles amplitudes (print threshold =  0.500E-01):

         I         J         SYM. A    SYM. B    A         B      T(IJ, AB)

         6         6         2         2         1         1     -0.06943420
         6         6         2         2         1         2      0.05259018
         6         6         2         2         2         1      0.05259018


 Total CPU time for triples:    113.83 sec


 RESULTS
 =======

  Reference energy                   -129.851332834530
  CCSD singlet pair energy             -0.331958383999
  CCSD triplet pair energy             -0.146975491932
  CCSD correlation energy              -0.478933875933

  Triples (T) contribution             -0.022513567515
  Total correlation energy             -0.501447443448

  CCSD total energy                  -130.330266710463
  CCSD[T] energy                     -130.353802801810
  CCSD-T energy                      -130.352414721817
 !CCSD(T) total energy               -130.352780277978

 Timing summary (sec):

 STEP                 CPU(USER)    SYS     CPU(TOT)    WALL
 Transformation         13.56      1.76     15.32     15.32
 CCSD iterations       263.22     27.73    290.95    290.98
 Triples               113.83      1.95    115.78    115.78

 Program statistics:

 Available memory in ccsd:               994999756
 Min. memory needed in ccsd:               3348832
 Max. memory used in ccsd:                 4143652
 Max. memory used in cckext:               8340089 (24 integral passes)



 **********************************************************************************************************************************
 DATASETS  * FILE   NREC   LENGTH (MB)   RECORD NAMES
              1      20     6809.41       500      610      700      900      950      970     1000      129      960     1100   
                                          VAR    BASINP    GEOM    SYMINP    ZMAT    AOBASIS   BASIS     P2S    ABASIS      S 
                                         1400     1410     1200     1210     1080     1600     1650     1300     1700     1380   
                                           T        V       H0       H01     AOSYM     SMH    MOLCAS    ERIS     OPER     JKOP   

              2       4        4.02       700     1000      520     2100   
                                         GEOM     BASIS   MCVARS     RHF  

 PROGRAMS   *        TOTAL   CCSD(T)        HF       INT
 CPU TIMES  *       618.88    390.63     87.49    140.67
 REAL TIME  *       893.87 SEC
 DISK USED  *        21.32 GB      
 **********************************************************************************************************************************

 CCSD(T)/aug-cc-pV5Z energy=   -130.352780277978

        CCSD(T)         HF-SCF  
   -130.35278028   -129.85133283
 **********************************************************************************************************************************
 Molpro calculation terminated
 Variable memory released
