
 Primary working directories    : /tmp/r2666/234740.maple
 Secondary working directories  : /tmp/r2666/234740.maple
 Wavefunction directory         : /ddn/home4/r2666/wfu/
 Main file repository           : /tmp/r2666/234740.maple/

 SHA1      : d5ffa45e93fdbca01ffc919aa182cfdae0147319
 NAME      : 2015.1.35
 ARCHNAME  : linux/x86_64
 FC        : /opt/intel/composer_xe_2015.1.133/bin/intel64/ifort
 BLASLIB   : -Wl,-_start-group /opt/intel/mkl/lib/intel64/libmkl_intel_ilp64.a /opt/intel/mkl/lib/intel64/libmkl_intel_thread.a /opt/intel/mkl/lib/intel64/libmkl_core.a -Wl,-_end-group
 id        : olemiss

 Nodes     nprocs
 cn095        1

 Using customized tuning parameters: mindgm=1; mindgv=20; mindgc=4; mindgr=1; noblas=0; minvec=7
 default implementation of scratch files=df  

 ***,hno CCSD(T)/TZ-F12 QFF
 memory, 995, m;
 gthresh,energy=1.d-12,zero=1.d-22,oneint=1.d-22,twoint=1.d-22;
 gthresh,optgrad=1.d-8,optstep=1.d-8;
 nocompress;
 geomtyp=xyz
 bohr
 geometry={
 3
        112       112
 N        0.0000000000       -0.1700884268       -1.1359511847
 H        0.0000000000        1.6738077865       -1.9283586020
 O        0.0000000000        0.0380484303        1.1137201957
 }
 
 basis=av5z
   {hf,maxit=500;accu,20;}
 {ccsd(t),nocheck,maxit=250;orbital,IGNORE_ERROR;}

 Variables initialized (889), CPU time= 0.01 sec
 Commands  initialized (702), CPU time= 0.00 sec, 572 directives.
 Default parameters read. Elapsed time= 0.05 sec

 Checking input...
 Passed
1


                                         ***  PROGRAM SYSTEM MOLPRO  ***
                                       Copyright, TTI GmbH Stuttgart, 2015
                                    Version 2015.1 linked Jul  9 2018 13:16:40


 **********************************************************************************************************************************
 LABEL *   hno CCSD(T)/TZ-F12 QFF                                                        
  64 bit serial version                                                                  DATE: 08-Feb-20          TIME: 17:41:57  
 **********************************************************************************************************************************

 SHA1:             d5ffa45e93fdbca01ffc919aa182cfdae0147319
 **********************************************************************************************************************************

 THRESHOLDS:

 ZERO    =  1.00D-22  ONEINT  =  1.00D-22  TWOINT  =  1.00D-22  PREFAC  =  1.00D-14  LOCALI  =  1.00D-09  EORDER  =  1.00D-04
 ENERGY  =  1.00D-12  ETEST   =  0.00D+00  EDENS   =  0.00D+00  THRDEDEF=  1.00D-06  GRADIENT=  1.00D-02  STEP    =  1.00D-03
 ORBITAL =  1.00D-05  CIVEC   =  1.00D-05  COEFF   =  1.00D-04  PRINTCI =  5.00D-02  PUNCHCI =  9.90D+01  OPTGRAD =  3.00D-04
 OPTENERG=  1.00D-06  OPTSTEP =  3.00D-04  THRGRAD =  1.00D-10  COMPRESS=  1.00D-11  VARMIN  =  1.00D-07  VARMAX  =  1.00D-03
 THRDOUB =  0.00D+00  THRDIV  =  1.00D-05  THRRED  =  1.00D-07  THRPSP  =  1.00D+00  THRDC   =  1.00D-10  THRCS   =  1.00D-10
 THRNRM  =  1.00D-08  THREQ   =  0.00D+00  THRDE   =  1.00D+00  THRREF  =  1.00D-05  SPARFAC =  1.00D+00  THRDLP  =  1.00D-07
 THRDIA  =  1.00D-10  THRDLS  =  1.00D-07  THRGPS  =  0.00D+00  THRKEX  =  0.00D+00  THRDIS  =  2.00D-01  THRVAR  =  1.00D-10
 THRLOC  =  1.00D-06  THRGAP  =  1.00D-06  THRLOCT = -1.00D+00  THRGAPT = -1.00D+00  THRORB  =  1.00D-06  THRMLTP =  0.00D+00
 THRCPQCI=  1.00D-10  KEXTA   =  0.00D+00  THRCOARS=  0.00D+00  SYMTOL  =  1.00D-06  GRADTOL =  1.00D-06  THROVL  =  1.00D-08
 THRORTH =  1.00D-08  GRID    =  1.00D-06  GRIDMAX =  1.00D-03  DTMAX   =  0.00D+00  THROCCDE=  1.00D-01  THROCCDE=  1.00D-01



 THRESHOLDS:

 ZERO    =  1.00D-22  ONEINT  =  1.00D-22  TWOINT  =  1.00D-22  PREFAC  =  1.00D-14  LOCALI  =  1.00D-09  EORDER  =  1.00D-04
 ENERGY  =  1.00D-12  ETEST   =  0.00D+00  EDENS   =  0.00D+00  THRDEDEF=  1.00D-06  GRADIENT=  1.00D-02  STEP    =  1.00D-03
 ORBITAL =  1.00D-05  CIVEC   =  1.00D-05  COEFF   =  1.00D-04  PRINTCI =  5.00D-02  PUNCHCI =  9.90D+01  OPTGRAD =  1.00D-08
 OPTENERG=  1.00D-06  OPTSTEP =  1.00D-08  THRGRAD =  1.00D-10  COMPRESS=  1.00D-11  VARMIN  =  1.00D-07  VARMAX  =  1.00D-03
 THRDOUB =  0.00D+00  THRDIV  =  1.00D-05  THRRED  =  1.00D-07  THRPSP  =  1.00D+00  THRDC   =  1.00D-10  THRCS   =  1.00D-10
 THRNRM  =  1.00D-08  THREQ   =  0.00D+00  THRDE   =  1.00D+00  THRREF  =  1.00D-05  SPARFAC =  1.00D+00  THRDLP  =  1.00D-07
 THRDIA  =  1.00D-10  THRDLS  =  1.00D-07  THRGPS  =  0.00D+00  THRKEX  =  0.00D+00  THRDIS  =  2.00D-01  THRVAR  =  1.00D-10
 THRLOC  =  1.00D-06  THRGAP  =  1.00D-06  THRLOCT = -1.00D+00  THRGAPT = -1.00D+00  THRORB  =  1.00D-06  THRMLTP =  0.00D+00
 THRCPQCI=  1.00D-10  KEXTA   =  0.00D+00  THRCOARS=  0.00D+00  SYMTOL  =  1.00D-06  GRADTOL =  1.00D-06  THROVL  =  1.00D-08
 THRORTH =  1.00D-08  GRID    =  1.00D-06  GRIDMAX =  1.00D-03  DTMAX   =  0.00D+00  THROCCDE=  1.00D-01  THROCCDE=  1.00D-01



 Input parameters for SORTINT:

 COMPRESS =    0.000000
 C_FINAL  =    1.000000
 DEBUG    =   -1.000000
 C_SORT1  =    0.000000
 C_SEWARD =    0.000000
 THRESH   =    0.000000
 IO       =  molpro                                                          
 SPRI     =    0.000000
 SETTING GEOMTYP        =    XYZ
 ZUNIT=BOHR
 

 Variable memory set to  995000000 words,  buffer space   230000 words

 SETTING BASIS          =    AV5Z


 Recomputing integrals since basis changed


 Using spherical harmonics

 Library entry N      S aug-cc-pV5Z          selected for orbital group  1
 Library entry N      P aug-cc-pV5Z          selected for orbital group  1
 Library entry N      D aug-cc-pV5Z          selected for orbital group  1
 Library entry N      F aug-cc-pV5Z          selected for orbital group  1
 Library entry N      G aug-cc-pV5Z          selected for orbital group  1
 Library entry N      H aug-cc-pV5Z          selected for orbital group  1
 Library entry H      S aug-cc-pV5Z          selected for orbital group  2
 Library entry H      P aug-cc-pV5Z          selected for orbital group  2
 Library entry H      D aug-cc-pV5Z          selected for orbital group  2
 Library entry H      F aug-cc-pV5Z          selected for orbital group  2
 Library entry H      G aug-cc-pV5Z          selected for orbital group  2
 Library entry O      S aug-cc-pV5Z          selected for orbital group  3
 Library entry O      P aug-cc-pV5Z          selected for orbital group  3
 Library entry O      D aug-cc-pV5Z          selected for orbital group  3
 Library entry O      F aug-cc-pV5Z          selected for orbital group  3
 Library entry O      G aug-cc-pV5Z          selected for orbital group  3
 Library entry O      H aug-cc-pV5Z          selected for orbital group  3


 PROGRAM * SEWARD (Integral evaluation for generally contracted gaussian basis sets)     Author: Roland Lindh, 1990

 Geometry written to block  1 of record 700


 Point group  Cs  



 ATOMIC COORDINATES

 NR  ATOM    CHARGE       X              Y              Z

   1  N       7.00    0.000000000   -0.170088427   -1.135951185
   2  H       1.00    0.000000000    1.673807787   -1.928358602
   3  O       8.00    0.000000000    0.038048430    1.113720196

 Bond lengths in Bohr (Angstrom)

 1-2  2.006953602  1-3  2.259279149
     ( 1.062034110)     ( 1.195559039)

 Bond angles

  2-1-3  107.96954377

 NUCLEAR CHARGE:                   16
 NUMBER OF PRIMITIVE AOS:         506
 NUMBER OF SYMMETRY AOS:          371
 NUMBER OF CONTRACTIONS:          334   ( 204A'  + 130A"  )
 NUMBER OF CORE ORBITALS:           2   (   2A'  +   0A"  )
 NUMBER OF VALENCE ORBITALS:        9   (   7A'  +   2A"  )


 NUCLEAR REPULSION ENERGY   30.59071149


 Eigenvalues of metric

         1 0.112E-04 0.169E-04 0.643E-04 0.969E-04 0.101E-03 0.134E-03 0.199E-03 0.223E-03
         2 0.123E-03 0.376E-03 0.109E-02 0.149E-02 0.199E-02 0.245E-02 0.334E-02 0.386E-02


 Contracted 2-electron integrals neglected if value below      1.0D-22

      756977659. INTEGRALS WRITTEN OUT IN  184855 BLOCKS ON RECORD 1290 OF FILE 1


 NUMBER OF SORTED TWO-ELECTRON INTEGRALS:  789027325.     BUFFER LENGTH:  32768
 NUMBER OF SEGMENTS:  25  SEGMENT LENGTH:   31997130      RECORD LENGTH: 524288

 Memory used in sort:      32.55 MW

 SORT1 READ   756977659. AND WROTE   760993547. INTEGRALS IN   2189 RECORDS. CPU TIME:    35.79 SEC, REAL TIME:   215.63 SEC
 SORT2 READ   760993547. AND WROTE   789027325. INTEGRALS IN     25 RECORDS. CPU TIME:    15.25 SEC, REAL TIME:   118.77 SEC

 FILE SIZES:   FILE 1: 12137.5 MBYTE,  FILE 4:  9181.4 MBYTE,   TOTAL:  21318.9 MBYTE

 OPERATOR DM      FOR CENTER  0  COORDINATES:    0.000000    0.000000    0.000000


 **********************************************************************************************************************************
 DATASETS  * FILE   NREC   LENGTH (MB)   RECORD NAMES
              1      19     6374.22       500      610      700      900      950      970     1000      129      960     1100   
                                          VAR    BASINP    GEOM    SYMINP    ZMAT    AOBASIS   BASIS     P2S    ABASIS      S 
                                         1400     1410     1200     1210     1080     1600     1650     1300     1700   
                                           T        V       H0       H01     AOSYM     SMH    MOLCAS    ERIS     OPER   

 PROGRAMS   *        TOTAL       INT
 CPU TIMES  *       143.50    143.42
 REAL TIME  *       434.97 SEC
 DISK USED  *        21.32 GB      
 **********************************************************************************************************************************


 PROGRAM * RHF-SCF (CLOSED SHELL)       Authors: W. Meyer, H.-J. Werner


 NUMBER OF ELECTRONS:       8+    8-
 CONVERGENCE THRESHOLDS:    1.00E-10 (Density)    1.00E-13 (Energy)
 MAX. NUMBER OF ITERATIONS:      500
 INTERPOLATION TYPE:            DIIS
 INTERPOLATION STEPS:              2 (START)      1 (STEP)
 LEVEL SHIFTS:                  0.00 (CLOSED)  0.00 (OPEN) 



 Orbital guess generated from atomic densities. Full valence occupancy:    9   2

 Molecular orbital dump at record        2100.2

 Initial occupancy:   7   1

 ITERATION    DDIFF          GRAD             ENERGY        2-EL.EN.            DIPOLE MOMENTS         DIIS   ORB.
    1      0.000D+00      0.000D+00      -129.80095771    154.368423    0.00000    0.58108   -0.98920    0    start
    2      0.000D+00      0.636D-02      -129.82851440    155.623253    0.00000    0.60147   -0.20720    1    diag
    3      0.393D-02      0.474D-02      -129.84997568    155.720173    0.00000    0.54611   -0.57316    2    diag
    4      0.201D-02      0.755D-03      -129.85075461    155.443982    0.00000    0.55381   -0.51375    3    diag
    5      0.372D-03      0.246D-03      -129.85087757    155.537307    0.00000    0.55917   -0.51652    4    diag
    6      0.154D-03      0.716D-04      -129.85089731    155.521023    0.00000    0.55950   -0.51250    5    diag
    7      0.594D-04      0.351D-04      -129.85090287    155.523987    0.00000    0.56079   -0.51005    6    diag
    8      0.403D-04      0.120D-04      -129.85090345    155.523314    0.00000    0.56084   -0.50911    7    diag
    9      0.147D-04      0.228D-05      -129.85090348    155.523208    0.00000    0.56081   -0.50891    8    diag
   10      0.288D-05      0.527D-06      -129.85090348    155.523190    0.00000    0.56078   -0.50887    9    orth
   11      0.595D-06      0.108D-06      -129.85090348    155.523185    0.00000    0.56077   -0.50887    9    diag
   12      0.116D-06      0.219D-07      -129.85090348    155.523185    0.00000    0.56077   -0.50887    9    diag
   13      0.257D-07      0.567D-08      -129.85090348    155.523185    0.00000    0.56077   -0.50887    9    diag
   14      0.679D-08      0.113D-08      -129.85090348    155.523185    0.00000    0.56077   -0.50887    9    diag
   15      0.126D-08      0.333D-09      -129.85090348    155.523185    0.00000    0.56077   -0.50887    9    diag
   16      0.377D-09      0.104D-09      -129.85090348    155.523185    0.00000    0.56077   -0.50887    9    diag
   17      0.766D-10      0.291D-10      -129.85090348    155.523185    0.00000    0.56077   -0.50887    9    diag
   18      0.272D-10      0.985D-11      -129.85090348    155.523185    0.00000    0.56077   -0.50887    9    diag
   19      0.139D-10      0.250D-11      -129.85090348    155.523185    0.00000    0.56077   -0.50887    9    fixocc
   20      0.155D-10      0.525D-12      -129.85090348    155.523185    0.00000    0.56077   -0.50887    0    orth

 Final occupancy:   7   1

 !RHF STATE 1.1 Energy               -129.850903479933
 Nuclear energy                        30.59071149
 One-electron energy                 -238.20320744
 Two-electron energy                   77.76159247
 Virial quotient                       -1.00142995
 !RHF STATE 1.1 Dipole moment           0.00000000     0.56076742    -0.50886954
 Dipole moment /Debye                   0.00000000     1.42523526    -1.29333265

 Orbital energies:

         1.1          2.1          3.1          4.1          5.1          6.1          7.1          8.1          9.1
    -20.651925   -15.711454    -1.539622    -0.988881    -0.749967    -0.669665    -0.426264     0.023012     0.065568

         1.2          2.2          3.2
     -0.602234     0.062630     0.092923

 HOMO      7.1    -0.426264 =     -11.5992eV
 LUMO      8.1     0.023012 =       0.6262eV
 LUMO-HOMO         0.449276 =      12.2254eV


 **********************************************************************************************************************************
 DATASETS  * FILE   NREC   LENGTH (MB)   RECORD NAMES
              1      19     6374.22       500      610      700      900      950      970     1000      129      960     1100   
                                          VAR    BASINP    GEOM    SYMINP    ZMAT    AOBASIS   BASIS     P2S    ABASIS      S 
                                         1400     1410     1200     1210     1080     1600     1650     1300     1700   
                                           T        V       H0       H01     AOSYM     SMH    MOLCAS    ERIS     OPER   

              2       4        4.02       700     1000      520     2100   
                                         GEOM     BASIS   MCVARS     RHF  

 PROGRAMS   *        TOTAL        HF       INT
 CPU TIMES  *       209.45     65.95    143.42
 REAL TIME  *       523.86 SEC
 DISK USED  *        21.32 GB      
 **********************************************************************************************************************************


 PROGRAM * CCSD (Closed-shell coupled cluster)     Authors: C. Hampel, H.-J. Werner, 1991, M. Deegan, P.J. Knowles, 1992


 Convergence thresholds:  THRVAR = 1.00D-08  THRDEN = 1.00D-12

 CCSD(T)     terms to be evaluated (factor= 1.000)


 Number of core orbitals:           2 (   2   0 )
 Number of closed-shell orbitals:   6 (   5   1 )
 Number of external orbitals:     326 ( 197 129 )

 Molecular orbitals read from record     2100.2  Type=RHF/CANONICAL (state 1.1)

 Number of N-1 electron functions:               6
 Number of N-2 electron functions:              21
 Number of singly external CSFs:              1114
 Number of doubly external CSFs:            975958
 Total number of CSFs:                      977073

 Length of J-op  integral file:               0.00 MB
 Length of K-op  integral file:               4.07 MB
 Length of 3-ext integral record:             0.00 MB

 Memory could be reduced to 151.33 Mwords without degradation in triples

 Integral transformation finished. Total CPU:  10.53 sec, npass=  1  Memory used:  41.21 MW

 Reference energy:                   -129.85090348

 MP2 singlet pair energy:              -0.31015160
 MP2 triplet pair energy:              -0.17131718
 MP2 correlation energy:               -0.48146878
 MP2 total energy:                   -130.33237226

 SCS-MP2 correlation energy:           -0.47877928   (PS=  1.200000  PT=  0.333333)
 SCS-MP2 total energy:               -130.32968276

 ITER.      SQ.NORM     CORR.ENERGY   TOTAL ENERGY   ENERGY CHANGE        DEN1      VAR(S)    VAR(P)  DIIS     TIME  TIME/IT
   1      1.11960716    -0.47893017  -130.32983365     0.00253861     0.01875475  0.30D-02  0.31D-02  1  1    19.40     9.89
   2      1.12998857    -0.47891341  -130.32981689     0.00001675    -0.01240994  0.99D-04  0.47D-03  2  2    28.36    10.06
   3      1.13595944    -0.47928210  -130.33018558    -0.00036869    -0.00295079  0.45D-04  0.54D-04  3  3    37.38    10.12
   4      1.13862455    -0.47927879  -130.33018227     0.00000331    -0.00093765  0.42D-05  0.95D-05  4  4    46.50    10.18
   5      1.13968456    -0.47930627  -130.33020975    -0.00002748    -0.00023641  0.11D-05  0.16D-05  5  5    55.79    10.21
   6      1.14002238    -0.47929583  -130.33019931     0.00001044    -0.00004735  0.12D-06  0.39D-06  6  6    64.99    10.24
   7      1.14009872    -0.47929521  -130.33019869     0.00000062     0.00000256  0.19D-07  0.88D-07  6  1    74.30    10.27
   8      1.14012379    -0.47929532  -130.33019880    -0.00000011    -0.00000291  0.37D-08  0.17D-07  6  2    83.49    10.29
   9      1.14013249    -0.47929478  -130.33019826     0.00000054    -0.00000025  0.20D-08  0.18D-08  6  3    92.74    10.31
  10      1.14012833    -0.47929547  -130.33019895    -0.00000069     0.00000145  0.31D-09  0.28D-09  6  5   101.90    10.32
  11      1.14013001    -0.47929546  -130.33019894     0.00000000    -0.00000028  0.88D-10  0.24D-10  6  4   111.09    10.34
  12      1.14012958    -0.47929552  -130.33019900    -0.00000006     0.00000005  0.17D-10  0.56D-11  6  6   120.20    10.34
  13      1.14012937    -0.47929553  -130.33019901    -0.00000000    -0.00000003  0.30D-11  0.86D-12  6  1   129.28    10.35
  14      1.14012911    -0.47929554  -130.33019902    -0.00000001     0.00000004  0.47D-12  0.16D-12  6  3   138.44    10.36
  15      1.14012904    -0.47929554  -130.33019902    -0.00000000     0.00000001  0.12D-12  0.23D-13  6  2   147.67    10.37
  16      1.14012903    -0.47929554  -130.33019902     0.00000000     0.00000000  0.30D-13  0.92D-14  6  4   156.94    10.37
  17      1.14012903    -0.47929554  -130.33019902    -0.00000000    -0.00000000  0.16D-14  0.12D-14  6  5   166.20    10.38
  18      1.14012903    -0.47929554  -130.33019902     0.00000000    -0.00000000  0.27D-15  0.30D-15  6  6   175.29    10.38
  19      1.14012904    -0.47929554  -130.33019902     0.00000000    -0.00000000  0.34D-16  0.44D-16  6  2   184.48    10.39
  20      1.14012904    -0.47929554  -130.33019902     0.00000000    -0.00000000  0.87D-17  0.62D-17  6  1   193.74    10.39
  21      1.14012904    -0.47929554  -130.33019902    -0.00000000     0.00000000  0.15D-17  0.87D-18  6  3   202.94    10.39
  22      1.14012904    -0.47929554  -130.33019902    -0.00000000     0.00000000  0.37D-18  0.16D-18  6  4   212.21    10.39
  23      1.14012904    -0.47929554  -130.33019902    -0.00000000     0.00000000  0.85D-19  0.43D-19  6  5   221.45    10.40
  24      1.14012904    -0.47929554  -130.33019902    -0.00000000     0.00000000  0.50D-19  0.26D-19  6  6   231.50    10.43
  25      1.14012904    -0.47929554  -130.33019902     0.00000000    -0.00000000  0.35D-19  0.21D-19  6  2   241.92    10.49

 Norm of t1 vector:      0.07460460      S-energy:    -0.00000000      T1 diagnostic:  0.01522860
                                                                       D1 diagnostic:  0.04059623

 Doubles amplitudes (print threshold =  0.500E-01):

         I         J         SYM. A    SYM. B    A         B      T(IJ, AB)

         6         6         2         2         1         1     -0.06972244
         6         6         2         2         1         2      0.05253488
         6         6         2         2         2         1      0.05253488


 Total CPU time for triples:    101.16 sec


 RESULTS
 =======

  Reference energy                   -129.850903479932
  CCSD singlet pair energy             -0.332265594195
  CCSD triplet pair energy             -0.147029946685
  CCSD correlation energy              -0.479295540882

  Triples (T) contribution             -0.022592905149
  Total correlation energy             -0.501888446031

  CCSD total energy                  -130.330199020815
  CCSD[T] energy                     -130.353826411773
  CCSD-T energy                      -130.352422166878
 !CCSD(T) total energy               -130.352791925964

 Timing summary (sec):

 STEP                 CPU(USER)    SYS     CPU(TOT)    WALL
 Transformation         10.57      1.53     12.10     12.32
 CCSD iterations       231.37     30.79    262.16    262.16
 Triples               101.16      1.72    102.88    102.90

 Program statistics:

 Available memory in ccsd:               994999756
 Min. memory needed in ccsd:               3348832
 Max. memory used in ccsd:                 4143652
 Max. memory used in cckext:               8340089 (25 integral passes)



 **********************************************************************************************************************************
 DATASETS  * FILE   NREC   LENGTH (MB)   RECORD NAMES
              1      20     6809.41       500      610      700      900      950      970     1000      129      960     1100   
                                          VAR    BASINP    GEOM    SYMINP    ZMAT    AOBASIS   BASIS     P2S    ABASIS      S 
                                         1400     1410     1200     1210     1080     1600     1650     1300     1700     1380   
                                           T        V       H0       H01     AOSYM     SMH    MOLCAS    ERIS     OPER     JKOP   

              2       4        4.02       700     1000      520     2100   
                                         GEOM     BASIS   MCVARS     RHF  

 PROGRAMS   *        TOTAL   CCSD(T)        HF       INT
 CPU TIMES  *       552.57    343.12     65.95    143.42
 REAL TIME  *       901.48 SEC
 DISK USED  *        21.32 GB      
 **********************************************************************************************************************************

 CCSD(T)/aug-cc-pV5Z energy=   -130.352791925964

        CCSD(T)         HF-SCF  
   -130.35279193   -129.85090348
 **********************************************************************************************************************************
 Molpro calculation terminated
 Variable memory released
