
 Primary working directories    : /tmp/r2666/234715.maple
 Secondary working directories  : /tmp/r2666/234715.maple
 Wavefunction directory         : /ddn/home4/r2666/wfu/
 Main file repository           : /tmp/r2666/234715.maple/

 SHA1      : d5ffa45e93fdbca01ffc919aa182cfdae0147319
 NAME      : 2015.1.35
 ARCHNAME  : linux/x86_64
 FC        : /opt/intel/composer_xe_2015.1.133/bin/intel64/ifort
 BLASLIB   : -Wl,-_start-group /opt/intel/mkl/lib/intel64/libmkl_intel_ilp64.a /opt/intel/mkl/lib/intel64/libmkl_intel_thread.a /opt/intel/mkl/lib/intel64/libmkl_core.a -Wl,-_end-group
 id        : olemiss

 Nodes     nprocs
 cn042        1

 Using customized tuning parameters: mindgm=1; mindgv=20; mindgc=4; mindgr=1; noblas=0; minvec=7
 default implementation of scratch files=df  

 ***,hno CCSD(T)/TZ-F12 QFF
 memory, 995, m;
 gthresh,energy=1.d-12,zero=1.d-22,oneint=1.d-22,twoint=1.d-22;
 gthresh,optgrad=1.d-8,optstep=1.d-8;
 nocompress;
 geomtyp=xyz
 bohr
 geometry={
 3
         87        87
 N        0.0000000000       -0.1659908857       -1.1353867055
 H        0.0000000000        1.6689021527       -1.9248128583
 O        0.0000000000        0.0388565230        1.1096099727
 }
 
 basis=av5z
   {hf,maxit=500;accu,20;}
 {ccsd(t),nocheck,maxit=250;orbital,IGNORE_ERROR;}

 Variables initialized (889), CPU time= 0.00 sec
 Commands  initialized (702), CPU time= 0.01 sec, 572 directives.
 Default parameters read. Elapsed time= 0.06 sec

 Checking input...
 Passed
1


                                         ***  PROGRAM SYSTEM MOLPRO  ***
                                       Copyright, TTI GmbH Stuttgart, 2015
                                    Version 2015.1 linked Jul  9 2018 13:16:40


 **********************************************************************************************************************************
 LABEL *   hno CCSD(T)/TZ-F12 QFF                                                        
  64 bit serial version                                                                  DATE: 08-Feb-20          TIME: 17:39:04  
 **********************************************************************************************************************************

 SHA1:             d5ffa45e93fdbca01ffc919aa182cfdae0147319
 **********************************************************************************************************************************

 THRESHOLDS:

 ZERO    =  1.00D-22  ONEINT  =  1.00D-22  TWOINT  =  1.00D-22  PREFAC  =  1.00D-14  LOCALI  =  1.00D-09  EORDER  =  1.00D-04
 ENERGY  =  1.00D-12  ETEST   =  0.00D+00  EDENS   =  0.00D+00  THRDEDEF=  1.00D-06  GRADIENT=  1.00D-02  STEP    =  1.00D-03
 ORBITAL =  1.00D-05  CIVEC   =  1.00D-05  COEFF   =  1.00D-04  PRINTCI =  5.00D-02  PUNCHCI =  9.90D+01  OPTGRAD =  3.00D-04
 OPTENERG=  1.00D-06  OPTSTEP =  3.00D-04  THRGRAD =  1.00D-10  COMPRESS=  1.00D-11  VARMIN  =  1.00D-07  VARMAX  =  1.00D-03
 THRDOUB =  0.00D+00  THRDIV  =  1.00D-05  THRRED  =  1.00D-07  THRPSP  =  1.00D+00  THRDC   =  1.00D-10  THRCS   =  1.00D-10
 THRNRM  =  1.00D-08  THREQ   =  0.00D+00  THRDE   =  1.00D+00  THRREF  =  1.00D-05  SPARFAC =  1.00D+00  THRDLP  =  1.00D-07
 THRDIA  =  1.00D-10  THRDLS  =  1.00D-07  THRGPS  =  0.00D+00  THRKEX  =  0.00D+00  THRDIS  =  2.00D-01  THRVAR  =  1.00D-10
 THRLOC  =  1.00D-06  THRGAP  =  1.00D-06  THRLOCT = -1.00D+00  THRGAPT = -1.00D+00  THRORB  =  1.00D-06  THRMLTP =  0.00D+00
 THRCPQCI=  1.00D-10  KEXTA   =  0.00D+00  THRCOARS=  0.00D+00  SYMTOL  =  1.00D-06  GRADTOL =  1.00D-06  THROVL  =  1.00D-08
 THRORTH =  1.00D-08  GRID    =  1.00D-06  GRIDMAX =  1.00D-03  DTMAX   =  0.00D+00  THROCCDE=  1.00D-01  THROCCDE=  1.00D-01



 THRESHOLDS:

 ZERO    =  1.00D-22  ONEINT  =  1.00D-22  TWOINT  =  1.00D-22  PREFAC  =  1.00D-14  LOCALI  =  1.00D-09  EORDER  =  1.00D-04
 ENERGY  =  1.00D-12  ETEST   =  0.00D+00  EDENS   =  0.00D+00  THRDEDEF=  1.00D-06  GRADIENT=  1.00D-02  STEP    =  1.00D-03
 ORBITAL =  1.00D-05  CIVEC   =  1.00D-05  COEFF   =  1.00D-04  PRINTCI =  5.00D-02  PUNCHCI =  9.90D+01  OPTGRAD =  1.00D-08
 OPTENERG=  1.00D-06  OPTSTEP =  1.00D-08  THRGRAD =  1.00D-10  COMPRESS=  1.00D-11  VARMIN  =  1.00D-07  VARMAX  =  1.00D-03
 THRDOUB =  0.00D+00  THRDIV  =  1.00D-05  THRRED  =  1.00D-07  THRPSP  =  1.00D+00  THRDC   =  1.00D-10  THRCS   =  1.00D-10
 THRNRM  =  1.00D-08  THREQ   =  0.00D+00  THRDE   =  1.00D+00  THRREF  =  1.00D-05  SPARFAC =  1.00D+00  THRDLP  =  1.00D-07
 THRDIA  =  1.00D-10  THRDLS  =  1.00D-07  THRGPS  =  0.00D+00  THRKEX  =  0.00D+00  THRDIS  =  2.00D-01  THRVAR  =  1.00D-10
 THRLOC  =  1.00D-06  THRGAP  =  1.00D-06  THRLOCT = -1.00D+00  THRGAPT = -1.00D+00  THRORB  =  1.00D-06  THRMLTP =  0.00D+00
 THRCPQCI=  1.00D-10  KEXTA   =  0.00D+00  THRCOARS=  0.00D+00  SYMTOL  =  1.00D-06  GRADTOL =  1.00D-06  THROVL  =  1.00D-08
 THRORTH =  1.00D-08  GRID    =  1.00D-06  GRIDMAX =  1.00D-03  DTMAX   =  0.00D+00  THROCCDE=  1.00D-01  THROCCDE=  1.00D-01



 Input parameters for SORTINT:

 COMPRESS =    0.000000
 C_FINAL  =    1.000000
 DEBUG    =   -1.000000
 C_SORT1  =    0.000000
 C_SEWARD =    0.000000
 THRESH   =    0.000000
 IO       =  molpro                                                          
 SPRI     =    0.000000
 SETTING GEOMTYP        =    XYZ
 ZUNIT=BOHR
 

 Variable memory set to  995000000 words,  buffer space   230000 words

 SETTING BASIS          =    AV5Z


 Recomputing integrals since basis changed


 Using spherical harmonics

 Library entry N      S aug-cc-pV5Z          selected for orbital group  1
 Library entry N      P aug-cc-pV5Z          selected for orbital group  1
 Library entry N      D aug-cc-pV5Z          selected for orbital group  1
 Library entry N      F aug-cc-pV5Z          selected for orbital group  1
 Library entry N      G aug-cc-pV5Z          selected for orbital group  1
 Library entry N      H aug-cc-pV5Z          selected for orbital group  1
 Library entry H      S aug-cc-pV5Z          selected for orbital group  2
 Library entry H      P aug-cc-pV5Z          selected for orbital group  2
 Library entry H      D aug-cc-pV5Z          selected for orbital group  2
 Library entry H      F aug-cc-pV5Z          selected for orbital group  2
 Library entry H      G aug-cc-pV5Z          selected for orbital group  2
 Library entry O      S aug-cc-pV5Z          selected for orbital group  3
 Library entry O      P aug-cc-pV5Z          selected for orbital group  3
 Library entry O      D aug-cc-pV5Z          selected for orbital group  3
 Library entry O      F aug-cc-pV5Z          selected for orbital group  3
 Library entry O      G aug-cc-pV5Z          selected for orbital group  3
 Library entry O      H aug-cc-pV5Z          selected for orbital group  3


 PROGRAM * SEWARD (Integral evaluation for generally contracted gaussian basis sets)     Author: Roland Lindh, 1990

 Geometry written to block  1 of record 700


 Point group  Cs  



 ATOMIC COORDINATES

 NR  ATOM    CHARGE       X              Y              Z

   1  N       7.00    0.000000000   -0.165990886   -1.135386705
   2  H       1.00    0.000000000    1.668902153   -1.924812858
   3  O       8.00    0.000000000    0.038856523    1.109609973

 Bond lengths in Bohr (Angstrom)

 1-2  1.997504972  1-3  2.254323079
     ( 1.057034110)     ( 1.192936400)

 Bond angles

  2-1-3  108.06524395

 NUCLEAR CHARGE:                   16
 NUMBER OF PRIMITIVE AOS:         506
 NUMBER OF SYMMETRY AOS:          371
 NUMBER OF CONTRACTIONS:          334   ( 204A'  + 130A"  )
 NUMBER OF CORE ORBITALS:           2   (   2A'  +   0A"  )
 NUMBER OF VALENCE ORBITALS:        9   (   7A'  +   2A"  )


 NUCLEAR REPULSION ENERGY   30.66805616


 Eigenvalues of metric

         1 0.111E-04 0.167E-04 0.635E-04 0.956E-04 0.101E-03 0.132E-03 0.198E-03 0.223E-03
         2 0.122E-03 0.369E-03 0.107E-02 0.147E-02 0.194E-02 0.242E-02 0.328E-02 0.382E-02


 Contracted 2-electron integrals neglected if value below      1.0D-22

      756977568. INTEGRALS WRITTEN OUT IN  184855 BLOCKS ON RECORD 1290 OF FILE 1


 NUMBER OF SORTED TWO-ELECTRON INTEGRALS:  789027325.     BUFFER LENGTH:  32768
 NUMBER OF SEGMENTS:  25  SEGMENT LENGTH:   31997130      RECORD LENGTH: 524288

 Memory used in sort:      32.55 MW

 SORT1 READ   756977568. AND WROTE   760993460. INTEGRALS IN   2189 RECORDS. CPU TIME:    28.70 SEC, REAL TIME:    35.14 SEC
 SORT2 READ   760993460. AND WROTE   789027325. INTEGRALS IN     25 RECORDS. CPU TIME:    10.51 SEC, REAL TIME:    14.97 SEC

 FILE SIZES:   FILE 1: 12137.5 MBYTE,  FILE 4:  9181.4 MBYTE,   TOTAL:  21318.9 MBYTE

 OPERATOR DM      FOR CENTER  0  COORDINATES:    0.000000    0.000000    0.000000


 **********************************************************************************************************************************
 DATASETS  * FILE   NREC   LENGTH (MB)   RECORD NAMES
              1      19     6374.22       500      610      700      900      950      970     1000      129      960     1100   
                                          VAR    BASINP    GEOM    SYMINP    ZMAT    AOBASIS   BASIS     P2S    ABASIS      S 
                                         1400     1410     1200     1210     1080     1600     1650     1300     1700   
                                           T        V       H0       H01     AOSYM     SMH    MOLCAS    ERIS     OPER   

 PROGRAMS   *        TOTAL       INT
 CPU TIMES  *       165.80    165.68
 REAL TIME  *       185.27 SEC
 DISK USED  *        21.32 GB      
 **********************************************************************************************************************************


 PROGRAM * RHF-SCF (CLOSED SHELL)       Authors: W. Meyer, H.-J. Werner


 NUMBER OF ELECTRONS:       8+    8-
 CONVERGENCE THRESHOLDS:    1.00E-10 (Density)    1.00E-13 (Energy)
 MAX. NUMBER OF ITERATIONS:      500
 INTERPOLATION TYPE:            DIIS
 INTERPOLATION STEPS:              2 (START)      1 (STEP)
 LEVEL SHIFTS:                  0.00 (CLOSED)  0.00 (OPEN) 



 Orbital guess generated from atomic densities. Full valence occupancy:    9   2

 Molecular orbital dump at record        2100.2

 Initial occupancy:   7   1

 ITERATION    DDIFF          GRAD             ENERGY        2-EL.EN.            DIPOLE MOMENTS         DIIS   ORB.
    1      0.000D+00      0.000D+00      -129.80203578    154.511299    0.00000    0.58405   -0.98071    0    start
    2      0.000D+00      0.632D-02      -129.82964632    155.764368    0.00000    0.60028   -0.21054    1    diag
    3      0.389D-02      0.468D-02      -129.85049231    155.857160    0.00000    0.54706   -0.57020    2    diag
    4      0.199D-02      0.753D-03      -129.85126419    155.583771    0.00000    0.55480   -0.51123    3    diag
    5      0.370D-03      0.244D-03      -129.85138509    155.676461    0.00000    0.56010   -0.51403    4    diag
    6      0.153D-03      0.709D-04      -129.85140442    155.660286    0.00000    0.56044   -0.51008    5    diag
    7      0.587D-04      0.348D-04      -129.85140984    155.663246    0.00000    0.56173   -0.50767    6    diag
    8      0.397D-04      0.117D-04      -129.85141039    155.662586    0.00000    0.56178   -0.50675    7    diag
    9      0.143D-04      0.222D-05      -129.85141041    155.662484    0.00000    0.56175   -0.50655    8    diag
   10      0.279D-05      0.517D-06      -129.85141042    155.662466    0.00000    0.56172   -0.50652    9    orth
   11      0.584D-06      0.107D-06      -129.85141042    155.662462    0.00000    0.56171   -0.50652    9    diag
   12      0.115D-06      0.215D-07      -129.85141042    155.662462    0.00000    0.56171   -0.50651    9    diag
   13      0.252D-07      0.553D-08      -129.85141042    155.662462    0.00000    0.56171   -0.50651    9    diag
   14      0.660D-08      0.111D-08      -129.85141042    155.662462    0.00000    0.56171   -0.50651    9    diag
   15      0.123D-08      0.326D-09      -129.85141042    155.662462    0.00000    0.56171   -0.50651    9    diag
   16      0.367D-09      0.102D-09      -129.85141042    155.662462    0.00000    0.56171   -0.50651    9    diag
   17      0.755D-10      0.285D-10      -129.85141042    155.662462    0.00000    0.56171   -0.50651    9    diag
   18      0.258D-10      0.956D-11      -129.85141042    155.662462    0.00000    0.56171   -0.50651    9    diag
   19      0.237D-10      0.245D-11      -129.85141042    155.662462    0.00000    0.56171   -0.50651    9    fixocc
   20      0.177D-10      0.620D-12      -129.85141042    155.662462    0.00000    0.56171   -0.50651    9    orth
   21      0.122D-10      0.390D-12      -129.85141042    155.662462    0.00000    0.56171   -0.50651    9    diag
   22      0.819D-11      0.373D-12      -129.85141042    155.662462    0.00000    0.56171   -0.50651    9    diag
   23      0.443D-11      0.318D-12      -129.85141042    155.662462    0.00000    0.56171   -0.50651    9    diag
   24      0.449D-11      0.239D-12      -129.85141042    155.662462    0.00000    0.56171   -0.50651    9    diag
   25      0.247D-11      0.241D-12      -129.85141042    155.662462    0.00000    0.56171   -0.50651    9    diag
   26      0.171D-11      0.295D-12      -129.85141042    155.662462    0.00000    0.56171   -0.50651    9    diag
   27      0.130D-11      0.294D-12      -129.85141042    155.662462    0.00000    0.56171   -0.50651    9    diag
   28      0.502D-12      0.227D-12      -129.85141042    155.662462    0.00000    0.56171   -0.50651    9    diag
   29      0.523D-12      0.263D-12      -129.85141042    155.662462    0.00000    0.56171   -0.50651    0    orth

 Final occupancy:   7   1

 !RHF STATE 1.1 Energy               -129.851410415069
 Nuclear energy                        30.66805616
 One-electron energy                 -238.35069749
 Two-electron energy                   77.83123091
 Virial quotient                       -1.00129063
 !RHF STATE 1.1 Dipole moment           0.00000000     0.56170768    -0.50651414
 Dipole moment /Debye                   0.00000000     1.42762499    -1.28734620

 Orbital energies:

         1.1          2.1          3.1          4.1          5.1          6.1          7.1          8.1          9.1
    -20.651581   -15.710304    -1.541822    -0.989555    -0.751323    -0.670438    -0.425671     0.023036     0.065568

         1.2          2.2          3.2
     -0.603423     0.063081     0.093155

 HOMO      7.1    -0.425671 =     -11.5831eV
 LUMO      8.1     0.023036 =       0.6268eV
 LUMO-HOMO         0.448707 =      12.2099eV


 **********************************************************************************************************************************
 DATASETS  * FILE   NREC   LENGTH (MB)   RECORD NAMES
              1      19     6374.22       500      610      700      900      950      970     1000      129      960     1100   
                                          VAR    BASINP    GEOM    SYMINP    ZMAT    AOBASIS   BASIS     P2S    ABASIS      S 
                                         1400     1410     1200     1210     1080     1600     1650     1300     1700   
                                           T        V       H0       H01     AOSYM     SMH    MOLCAS    ERIS     OPER   

              2       4        4.02       700     1000      520     2100   
                                         GEOM     BASIS   MCVARS     RHF  

 PROGRAMS   *        TOTAL        HF       INT
 CPU TIMES  *       297.67    131.87    165.68
 REAL TIME  *       349.51 SEC
 DISK USED  *        21.32 GB      
 **********************************************************************************************************************************


 PROGRAM * CCSD (Closed-shell coupled cluster)     Authors: C. Hampel, H.-J. Werner, 1991, M. Deegan, P.J. Knowles, 1992


 Convergence thresholds:  THRVAR = 1.00D-08  THRDEN = 1.00D-12

 CCSD(T)     terms to be evaluated (factor= 1.000)


 Number of core orbitals:           2 (   2   0 )
 Number of closed-shell orbitals:   6 (   5   1 )
 Number of external orbitals:     326 ( 197 129 )

 Molecular orbitals read from record     2100.2  Type=RHF/CANONICAL (state 1.1)

 Number of N-1 electron functions:               6
 Number of N-2 electron functions:              21
 Number of singly external CSFs:              1114
 Number of doubly external CSFs:            975958
 Total number of CSFs:                      977073

 Length of J-op  integral file:               0.00 MB
 Length of K-op  integral file:               4.07 MB
 Length of 3-ext integral record:             0.00 MB

 Memory could be reduced to 151.33 Mwords without degradation in triples

 Integral transformation finished. Total CPU:  15.79 sec, npass=  1  Memory used:  41.21 MW

 Reference energy:                   -129.85141042

 MP2 singlet pair energy:              -0.30977930
 MP2 triplet pair energy:              -0.17107480
 MP2 correlation energy:               -0.48085411
 MP2 total energy:                   -130.33226452

 SCS-MP2 correlation energy:           -0.47818171   (PS=  1.200000  PT=  0.333333)
 SCS-MP2 total energy:               -130.32959212

 ITER.      SQ.NORM     CORR.ENERGY   TOTAL ENERGY   ENERGY CHANGE        DEN1      VAR(S)    VAR(P)  DIIS     TIME  TIME/IT
   1      1.11916321    -0.47843090  -130.32984131     0.00242321     0.01848631  0.30D-02  0.30D-02  1  1    28.30    13.50
   2      1.12945041    -0.47843809  -130.32984850    -0.00000719    -0.01231641  0.97D-04  0.47D-03  2  2    40.93    13.64
   3      1.13534752    -0.47880007  -130.33021049    -0.00036199    -0.00292593  0.44D-04  0.53D-04  3  3    53.46    13.67
   4      1.13797516    -0.47879732  -130.33020773     0.00000276    -0.00092631  0.41D-05  0.93D-05  4  4    66.04    13.71
   5      1.13901265    -0.47882414  -130.33023455    -0.00002682    -0.00023150  0.11D-05  0.16D-05  5  5    78.60    13.71
   6      1.13934491    -0.47881397  -130.33022438     0.00001017    -0.00004649  0.12D-06  0.40D-06  6  6    91.18    13.73
   7      1.13942047    -0.47881341  -130.33022383     0.00000056     0.00000250  0.18D-07  0.88D-07  6  1   103.62    13.74
   8      1.13944514    -0.47881357  -130.33022398    -0.00000015    -0.00000284  0.37D-08  0.17D-07  6  2   116.17    13.74
   9      1.13945364    -0.47881305  -130.33022347     0.00000052    -0.00000026  0.20D-08  0.17D-08  6  3   128.61    13.74
  10      1.13944952    -0.47881373  -130.33022414    -0.00000068     0.00000143  0.31D-09  0.27D-09  6  5   141.22    13.75
  11      1.13945114    -0.47881373  -130.33022414     0.00000000    -0.00000027  0.86D-10  0.23D-10  6  4   153.76    13.75
  12      1.13945072    -0.47881379  -130.33022420    -0.00000006     0.00000005  0.17D-10  0.54D-11  6  6   166.42    13.76
  13      1.13945051    -0.47881379  -130.33022420    -0.00000000    -0.00000003  0.30D-11  0.84D-12  6  1   179.02    13.77
  14      1.13945026    -0.47881380  -130.33022421    -0.00000001     0.00000004  0.47D-12  0.16D-12  6  3   192.60    13.84
  15      1.13945018    -0.47881380  -130.33022422    -0.00000000     0.00000001  0.12D-12  0.22D-13  6  2   206.07    13.90
  16      1.13945017    -0.47881380  -130.33022422     0.00000000     0.00000000  0.29D-13  0.88D-14  6  4   219.53    13.95
  17      1.13945017    -0.47881380  -130.33022422    -0.00000000    -0.00000000  0.16D-14  0.11D-14  6  5   232.81    13.99
  18      1.13945018    -0.47881380  -130.33022422     0.00000000    -0.00000000  0.26D-15  0.29D-15  6  6   245.15    13.96
  19      1.13945018    -0.47881380  -130.33022422     0.00000000    -0.00000000  0.34D-16  0.43D-16  6  2   257.46    13.94
  20      1.13945018    -0.47881380  -130.33022422     0.00000000    -0.00000000  0.86D-17  0.60D-17  6  1   269.91    13.92
  21      1.13945018    -0.47881380  -130.33022422    -0.00000000     0.00000000  0.15D-17  0.87D-18  6  3   282.21    13.90
  22      1.13945018    -0.47881380  -130.33022422    -0.00000000     0.00000000  0.36D-18  0.16D-18  6  4   294.80    13.91
  23      1.13945018    -0.47881380  -130.33022422    -0.00000000     0.00000000  0.97D-19  0.50D-19  6  5   307.33    13.90
  24      1.13945018    -0.47881380  -130.33022422    -0.00000000     0.00000000  0.41D-19  0.22D-19  6  6   319.55    13.88
  25      1.13945018    -0.47881380  -130.33022422    -0.00000000     0.00000000  0.19D-19  0.10D-19  6  2   331.75    13.86

 Norm of t1 vector:      0.07400716      S-energy:    -0.00000000      T1 diagnostic:  0.01510665
                                                                       D1 diagnostic:  0.04026795

 Doubles amplitudes (print threshold =  0.500E-01):

         I         J         SYM. A    SYM. B    A         B      T(IJ, AB)

         6         6         2         2         1         1     -0.06764559
         6         6         2         2         1         2      0.05236925
         6         6         2         2         2         1      0.05236925


 Total CPU time for triples:    122.03 sec


 RESULTS
 =======

  Reference energy                   -129.851410415069
  CCSD singlet pair energy             -0.331851600183
  CCSD triplet pair energy             -0.146962201416
  CCSD correlation energy              -0.478813801600

  Triples (T) contribution             -0.022477454575
  Total correlation energy             -0.501291256176

  CCSD total energy                  -130.330224216670
  CCSD[T] energy                     -130.353720773626
  CCSD-T energy                      -130.352336405330
 !CCSD(T) total energy               -130.352701671245

 Timing summary (sec):

 STEP                 CPU(USER)    SYS     CPU(TOT)    WALL
 Transformation         15.86      1.92     17.78     17.80
 CCSD iterations       315.89     30.48    346.37    346.41
 Triples               122.03      2.27    124.30    124.30

 Program statistics:

 Available memory in ccsd:               994999756
 Min. memory needed in ccsd:               3348832
 Max. memory used in ccsd:                 4143652
 Max. memory used in cckext:               8340089 (25 integral passes)



 **********************************************************************************************************************************
 DATASETS  * FILE   NREC   LENGTH (MB)   RECORD NAMES
              1      20     6809.41       500      610      700      900      950      970     1000      129      960     1100   
                                          VAR    BASINP    GEOM    SYMINP    ZMAT    AOBASIS   BASIS     P2S    ABASIS      S 
                                         1400     1410     1200     1210     1080     1600     1650     1300     1700     1380   
                                           T        V       H0       H01     AOSYM     SMH    MOLCAS    ERIS     OPER     JKOP   

              2       4        4.02       700     1000      520     2100   
                                         GEOM     BASIS   MCVARS     RHF  

 PROGRAMS   *        TOTAL   CCSD(T)        HF       INT
 CPU TIMES  *       751.48    453.80    131.87    165.68
 REAL TIME  *       838.07 SEC
 DISK USED  *        21.32 GB      
 **********************************************************************************************************************************

 CCSD(T)/aug-cc-pV5Z energy=   -130.352701671245

        CCSD(T)         HF-SCF  
   -130.35270167   -129.85141042
 **********************************************************************************************************************************
 Molpro calculation terminated
 Variable memory released
