
 Primary working directories    : /tmp/r2666/234732.maple
 Secondary working directories  : /tmp/r2666/234732.maple
 Wavefunction directory         : /ddn/home4/r2666/wfu/
 Main file repository           : /tmp/r2666/234732.maple/

 SHA1      : d5ffa45e93fdbca01ffc919aa182cfdae0147319
 NAME      : 2015.1.35
 ARCHNAME  : linux/x86_64
 FC        : /opt/intel/composer_xe_2015.1.133/bin/intel64/ifort
 BLASLIB   : -Wl,-_start-group /opt/intel/mkl/lib/intel64/libmkl_intel_ilp64.a /opt/intel/mkl/lib/intel64/libmkl_intel_thread.a /opt/intel/mkl/lib/intel64/libmkl_core.a -Wl,-_end-group
 id        : olemiss

 Nodes     nprocs
 cn033        1

 Using customized tuning parameters: mindgm=1; mindgv=20; mindgc=4; mindgr=1; noblas=0; minvec=7
 default implementation of scratch files=df  

 ***,hno CCSD(T)/TZ-F12 QFF
 memory, 995, m;
 gthresh,energy=1.d-12,zero=1.d-22,oneint=1.d-22,twoint=1.d-22;
 gthresh,optgrad=1.d-8,optstep=1.d-8;
 nocompress;
 geomtyp=xyz
 bohr
 geometry={
 3
        104       104
 N        0.0000000000       -0.1652743409       -1.1482842300
 H        0.0000000000        1.6717571295       -1.9327212831
 O        0.0000000000        0.0352850014        1.1304159221
 }
 
 basis=av5z
   {hf,maxit=500;accu,20;}
 {ccsd(t),nocheck,maxit=250;orbital,IGNORE_ERROR;}

 Variables initialized (889), CPU time= 0.00 sec
 Commands  initialized (702), CPU time= 0.01 sec, 572 directives.
 Default parameters read. Elapsed time= 0.05 sec

 Checking input...
 Passed
1


                                         ***  PROGRAM SYSTEM MOLPRO  ***
                                       Copyright, TTI GmbH Stuttgart, 2015
                                    Version 2015.1 linked Jul  9 2018 13:16:40


 **********************************************************************************************************************************
 LABEL *   hno CCSD(T)/TZ-F12 QFF                                                        
  64 bit serial version                                                                  DATE: 08-Feb-20          TIME: 17:40:25  
 **********************************************************************************************************************************

 SHA1:             d5ffa45e93fdbca01ffc919aa182cfdae0147319
 **********************************************************************************************************************************

 THRESHOLDS:

 ZERO    =  1.00D-22  ONEINT  =  1.00D-22  TWOINT  =  1.00D-22  PREFAC  =  1.00D-14  LOCALI  =  1.00D-09  EORDER  =  1.00D-04
 ENERGY  =  1.00D-12  ETEST   =  0.00D+00  EDENS   =  0.00D+00  THRDEDEF=  1.00D-06  GRADIENT=  1.00D-02  STEP    =  1.00D-03
 ORBITAL =  1.00D-05  CIVEC   =  1.00D-05  COEFF   =  1.00D-04  PRINTCI =  5.00D-02  PUNCHCI =  9.90D+01  OPTGRAD =  3.00D-04
 OPTENERG=  1.00D-06  OPTSTEP =  3.00D-04  THRGRAD =  1.00D-10  COMPRESS=  1.00D-11  VARMIN  =  1.00D-07  VARMAX  =  1.00D-03
 THRDOUB =  0.00D+00  THRDIV  =  1.00D-05  THRRED  =  1.00D-07  THRPSP  =  1.00D+00  THRDC   =  1.00D-10  THRCS   =  1.00D-10
 THRNRM  =  1.00D-08  THREQ   =  0.00D+00  THRDE   =  1.00D+00  THRREF  =  1.00D-05  SPARFAC =  1.00D+00  THRDLP  =  1.00D-07
 THRDIA  =  1.00D-10  THRDLS  =  1.00D-07  THRGPS  =  0.00D+00  THRKEX  =  0.00D+00  THRDIS  =  2.00D-01  THRVAR  =  1.00D-10
 THRLOC  =  1.00D-06  THRGAP  =  1.00D-06  THRLOCT = -1.00D+00  THRGAPT = -1.00D+00  THRORB  =  1.00D-06  THRMLTP =  0.00D+00
 THRCPQCI=  1.00D-10  KEXTA   =  0.00D+00  THRCOARS=  0.00D+00  SYMTOL  =  1.00D-06  GRADTOL =  1.00D-06  THROVL  =  1.00D-08
 THRORTH =  1.00D-08  GRID    =  1.00D-06  GRIDMAX =  1.00D-03  DTMAX   =  0.00D+00  THROCCDE=  1.00D-01  THROCCDE=  1.00D-01



 THRESHOLDS:

 ZERO    =  1.00D-22  ONEINT  =  1.00D-22  TWOINT  =  1.00D-22  PREFAC  =  1.00D-14  LOCALI  =  1.00D-09  EORDER  =  1.00D-04
 ENERGY  =  1.00D-12  ETEST   =  0.00D+00  EDENS   =  0.00D+00  THRDEDEF=  1.00D-06  GRADIENT=  1.00D-02  STEP    =  1.00D-03
 ORBITAL =  1.00D-05  CIVEC   =  1.00D-05  COEFF   =  1.00D-04  PRINTCI =  5.00D-02  PUNCHCI =  9.90D+01  OPTGRAD =  1.00D-08
 OPTENERG=  1.00D-06  OPTSTEP =  1.00D-08  THRGRAD =  1.00D-10  COMPRESS=  1.00D-11  VARMIN  =  1.00D-07  VARMAX  =  1.00D-03
 THRDOUB =  0.00D+00  THRDIV  =  1.00D-05  THRRED  =  1.00D-07  THRPSP  =  1.00D+00  THRDC   =  1.00D-10  THRCS   =  1.00D-10
 THRNRM  =  1.00D-08  THREQ   =  0.00D+00  THRDE   =  1.00D+00  THRREF  =  1.00D-05  SPARFAC =  1.00D+00  THRDLP  =  1.00D-07
 THRDIA  =  1.00D-10  THRDLS  =  1.00D-07  THRGPS  =  0.00D+00  THRKEX  =  0.00D+00  THRDIS  =  2.00D-01  THRVAR  =  1.00D-10
 THRLOC  =  1.00D-06  THRGAP  =  1.00D-06  THRLOCT = -1.00D+00  THRGAPT = -1.00D+00  THRORB  =  1.00D-06  THRMLTP =  0.00D+00
 THRCPQCI=  1.00D-10  KEXTA   =  0.00D+00  THRCOARS=  0.00D+00  SYMTOL  =  1.00D-06  GRADTOL =  1.00D-06  THROVL  =  1.00D-08
 THRORTH =  1.00D-08  GRID    =  1.00D-06  GRIDMAX =  1.00D-03  DTMAX   =  0.00D+00  THROCCDE=  1.00D-01  THROCCDE=  1.00D-01



 Input parameters for SORTINT:

 COMPRESS =    0.000000
 C_FINAL  =    1.000000
 DEBUG    =   -1.000000
 C_SORT1  =    0.000000
 C_SEWARD =    0.000000
 THRESH   =    0.000000
 IO       =  molpro                                                          
 SPRI     =    0.000000
 SETTING GEOMTYP        =    XYZ
 ZUNIT=BOHR
 

 Variable memory set to  995000000 words,  buffer space   230000 words

 SETTING BASIS          =    AV5Z


 Recomputing integrals since basis changed


 Using spherical harmonics

 Library entry N      S aug-cc-pV5Z          selected for orbital group  1
 Library entry N      P aug-cc-pV5Z          selected for orbital group  1
 Library entry N      D aug-cc-pV5Z          selected for orbital group  1
 Library entry N      F aug-cc-pV5Z          selected for orbital group  1
 Library entry N      G aug-cc-pV5Z          selected for orbital group  1
 Library entry N      H aug-cc-pV5Z          selected for orbital group  1
 Library entry H      S aug-cc-pV5Z          selected for orbital group  2
 Library entry H      P aug-cc-pV5Z          selected for orbital group  2
 Library entry H      D aug-cc-pV5Z          selected for orbital group  2
 Library entry H      F aug-cc-pV5Z          selected for orbital group  2
 Library entry H      G aug-cc-pV5Z          selected for orbital group  2
 Library entry O      S aug-cc-pV5Z          selected for orbital group  3
 Library entry O      P aug-cc-pV5Z          selected for orbital group  3
 Library entry O      D aug-cc-pV5Z          selected for orbital group  3
 Library entry O      F aug-cc-pV5Z          selected for orbital group  3
 Library entry O      G aug-cc-pV5Z          selected for orbital group  3
 Library entry O      H aug-cc-pV5Z          selected for orbital group  3


 PROGRAM * SEWARD (Integral evaluation for generally contracted gaussian basis sets)     Author: Roland Lindh, 1990

 Geometry written to block  1 of record 700


 Point group  Cs  



 ATOMIC COORDINATES

 NR  ATOM    CHARGE       X              Y              Z

   1  N       7.00    0.000000000   -0.165274341   -1.148284230
   2  H       1.00    0.000000000    1.671757129   -1.932721283
   3  O       8.00    0.000000000    0.035285001    1.130415922

 Bond lengths in Bohr (Angstrom)

 1-2  1.997504972  1-3  2.287509220
     ( 1.057034110)     ( 1.210497749)

 Bond angles

  2-1-3  108.09321636

 NUCLEAR CHARGE:                   16
 NUMBER OF PRIMITIVE AOS:         506
 NUMBER OF SYMMETRY AOS:          371
 NUMBER OF CONTRACTIONS:          334   ( 204A'  + 130A"  )
 NUMBER OF CORE ORBITALS:           2   (   2A'  +   0A"  )
 NUMBER OF VALENCE ORBITALS:        9   (   7A'  +   2A"  )


 NUCLEAR REPULSION ENERGY   30.28871530


 Eigenvalues of metric

         1 0.114E-04 0.174E-04 0.644E-04 0.101E-03 0.106E-03 0.138E-03 0.201E-03 0.224E-03
         2 0.128E-03 0.371E-03 0.114E-02 0.160E-02 0.198E-02 0.256E-02 0.332E-02 0.397E-02


 Contracted 2-electron integrals neglected if value below      1.0D-22

      756977454. INTEGRALS WRITTEN OUT IN  184855 BLOCKS ON RECORD 1290 OF FILE 1


 NUMBER OF SORTED TWO-ELECTRON INTEGRALS:  789027325.     BUFFER LENGTH:  32768
 NUMBER OF SEGMENTS:  25  SEGMENT LENGTH:   31997130      RECORD LENGTH: 524288

 Memory used in sort:      32.55 MW

 SORT1 READ   756977454. AND WROTE   760993336. INTEGRALS IN   2189 RECORDS. CPU TIME:    27.07 SEC, REAL TIME:   162.54 SEC
 SORT2 READ   760993336. AND WROTE   789027325. INTEGRALS IN     25 RECORDS. CPU TIME:    10.66 SEC, REAL TIME:    28.38 SEC

 FILE SIZES:   FILE 1: 12137.5 MBYTE,  FILE 4:  9181.4 MBYTE,   TOTAL:  21318.9 MBYTE

 OPERATOR DM      FOR CENTER  0  COORDINATES:    0.000000    0.000000    0.000000


 **********************************************************************************************************************************
 DATASETS  * FILE   NREC   LENGTH (MB)   RECORD NAMES
              1      19     6374.22       500      610      700      900      950      970     1000      129      960     1100   
                                          VAR    BASINP    GEOM    SYMINP    ZMAT    AOBASIS   BASIS     P2S    ABASIS      S 
                                         1400     1410     1200     1210     1080     1600     1650     1300     1700   
                                           T        V       H0       H01     AOSYM     SMH    MOLCAS    ERIS     OPER   

 PROGRAMS   *        TOTAL       INT
 CPU TIMES  *       141.22    141.13
 REAL TIME  *       323.57 SEC
 DISK USED  *        21.32 GB      
 **********************************************************************************************************************************


 PROGRAM * RHF-SCF (CLOSED SHELL)       Authors: W. Meyer, H.-J. Werner


 NUMBER OF ELECTRONS:       8+    8-
 CONVERGENCE THRESHOLDS:    1.00E-10 (Density)    1.00E-13 (Energy)
 MAX. NUMBER OF ITERATIONS:      500
 INTERPOLATION TYPE:            DIIS
 INTERPOLATION STEPS:              2 (START)      1 (STEP)
 LEVEL SHIFTS:                  0.00 (CLOSED)  0.00 (OPEN) 



 Orbital guess generated from atomic densities. Full valence occupancy:    9   2

 Molecular orbital dump at record        2100.2

 Initial occupancy:   7   1

 ITERATION    DDIFF          GRAD             ENERGY        2-EL.EN.            DIPOLE MOMENTS         DIIS   ORB.
    1      0.000D+00      0.000D+00      -129.79734054    153.831845    0.00000    0.59242   -1.03780    0    start
    2      0.000D+00      0.645D-02      -129.82447470    155.052674    0.00000    0.61178   -0.20383    1    diag
    3      0.404D-02      0.496D-02      -129.84815610    155.184535    0.00000    0.55569   -0.59736    2    diag
    4      0.209D-02      0.771D-03      -129.84896894    154.897061    0.00000    0.56301   -0.53528    3    diag
    5      0.379D-03      0.251D-03      -129.84909718    154.991446    0.00000    0.56832   -0.53775    4    diag
    6      0.158D-03      0.729D-04      -129.84911779    154.975009    0.00000    0.56857   -0.53346    5    diag
    7      0.608D-04      0.363D-04      -129.84912383    154.977802    0.00000    0.56981   -0.53079    6    diag
    8      0.417D-04      0.129D-04      -129.84912454    154.977079    0.00000    0.56986   -0.52974    7    diag
    9      0.163D-04      0.251D-05      -129.84912457    154.976963    0.00000    0.56982   -0.52951    8    diag
   10      0.332D-05      0.563D-06      -129.84912457    154.976944    0.00000    0.56979   -0.52948    9    orth
   11      0.639D-06      0.113D-06      -129.84912457    154.976940    0.00000    0.56978   -0.52948    9    diag
   12      0.119D-06      0.230D-07      -129.84912457    154.976940    0.00000    0.56978   -0.52947    9    diag
   13      0.257D-07      0.609D-08      -129.84912457    154.976940    0.00000    0.56978   -0.52947    9    diag
   14      0.704D-08      0.118D-08      -129.84912457    154.976940    0.00000    0.56978   -0.52947    9    diag
   15      0.128D-08      0.336D-09      -129.84912457    154.976940    0.00000    0.56978   -0.52947    9    diag
   16      0.383D-09      0.100D-09      -129.84912457    154.976940    0.00000    0.56978   -0.52947    9    diag
   17      0.747D-10      0.262D-10      -129.84912457    154.976940    0.00000    0.56978   -0.52947    9    diag
   18      0.251D-10      0.892D-11      -129.84912457    154.976940    0.00000    0.56978   -0.52947    9    diag
   19      0.170D-10      0.219D-11      -129.84912457    154.976940    0.00000    0.56978   -0.52947    9    fixocc
   20      0.161D-10      0.529D-12      -129.84912457    154.976940    0.00000    0.56978   -0.52947    9    orth
   21      0.102D-10      0.428D-12      -129.84912457    154.976940    0.00000    0.56978   -0.52947    9    diag
   22      0.791D-11      0.272D-12      -129.84912457    154.976940    0.00000    0.56978   -0.52947    9    diag
   23      0.332D-11      0.400D-12      -129.84912457    154.976940    0.00000    0.56978   -0.52947    9    diag
   24      0.418D-11      0.236D-12      -129.84912457    154.976940    0.00000    0.56978   -0.52947    9    diag
   25      0.139D-11      0.371D-12      -129.84912457    154.976940    0.00000    0.56978   -0.52947    9    diag
   26      0.557D-12      0.255D-12      -129.84912457    154.976940    0.00000    0.56978   -0.52947    9    diag
   27      0.767D-12      0.273D-12      -129.84912457    154.976940    0.00000    0.56978   -0.52947    0    orth

 Final occupancy:   7   1

 !RHF STATE 1.1 Energy               -129.849124570267
 Nuclear energy                        30.28871530
 One-electron energy                 -237.62630974
 Two-electron energy                   77.48846988
 Virial quotient                       -1.00183342
 !RHF STATE 1.1 Dipole moment           0.00000000     0.56977559    -0.52947353
 Dipole moment /Debye                   0.00000000     1.44813024    -1.34569934

 Orbital energies:

         1.1          2.1          3.1          4.1          5.1          6.1          7.1          8.1          9.1
    -20.653250   -15.713297    -1.527220    -0.993656    -0.745862    -0.665361    -0.431110     0.022829     0.065547

         1.2          2.2          3.2
     -0.594928     0.059701     0.091440

 HOMO      7.1    -0.431110 =     -11.7311eV
 LUMO      8.1     0.022829 =       0.6212eV
 LUMO-HOMO         0.453939 =      12.3523eV


 **********************************************************************************************************************************
 DATASETS  * FILE   NREC   LENGTH (MB)   RECORD NAMES
              1      19     6374.22       500      610      700      900      950      970     1000      129      960     1100   
                                          VAR    BASINP    GEOM    SYMINP    ZMAT    AOBASIS   BASIS     P2S    ABASIS      S 
                                         1400     1410     1200     1210     1080     1600     1650     1300     1700   
                                           T        V       H0       H01     AOSYM     SMH    MOLCAS    ERIS     OPER   

              2       4        4.02       700     1000      520     2100   
                                         GEOM     BASIS   MCVARS     RHF  

 PROGRAMS   *        TOTAL        HF       INT
 CPU TIMES  *       250.17    108.95    141.13
 REAL TIME  *       465.98 SEC
 DISK USED  *        21.32 GB      
 **********************************************************************************************************************************


 PROGRAM * CCSD (Closed-shell coupled cluster)     Authors: C. Hampel, H.-J. Werner, 1991, M. Deegan, P.J. Knowles, 1992


 Convergence thresholds:  THRVAR = 1.00D-08  THRDEN = 1.00D-12

 CCSD(T)     terms to be evaluated (factor= 1.000)


 Number of core orbitals:           2 (   2   0 )
 Number of closed-shell orbitals:   6 (   5   1 )
 Number of external orbitals:     326 ( 197 129 )

 Molecular orbitals read from record     2100.2  Type=RHF/CANONICAL (state 1.1)

 Number of N-1 electron functions:               6
 Number of N-2 electron functions:              21
 Number of singly external CSFs:              1114
 Number of doubly external CSFs:            975958
 Total number of CSFs:                      977073

 Length of J-op  integral file:               0.00 MB
 Length of K-op  integral file:               4.07 MB
 Length of 3-ext integral record:             0.00 MB

 Memory could be reduced to 151.33 Mwords without degradation in triples

 Integral transformation finished. Total CPU:  13.93 sec, npass=  1  Memory used:  41.21 MW

 Reference energy:                   -129.84912457

 MP2 singlet pair energy:              -0.31153802
 MP2 triplet pair energy:              -0.17225360
 MP2 correlation energy:               -0.48379163
 MP2 total energy:                   -130.33291620

 SCS-MP2 correlation energy:           -0.48102565   (PS=  1.200000  PT=  0.333333)
 SCS-MP2 total energy:               -130.33015022

 ITER.      SQ.NORM     CORR.ENERGY   TOTAL ENERGY   ENERGY CHANGE        DEN1      VAR(S)    VAR(P)  DIIS     TIME  TIME/IT
   1      1.12101999    -0.48067189  -130.32979646     0.00311974     0.01993942  0.32D-02  0.32D-02  1  1    24.97    12.07
   2      1.13174231    -0.48053128  -130.32965585     0.00014061    -0.01277113  0.11D-03  0.49D-03  2  2    36.11    12.28
   3      1.13796590    -0.48091922  -130.33004379    -0.00038794    -0.00302581  0.49D-04  0.57D-04  3  3    47.21    12.35
   4      1.14079309    -0.48091685  -130.33004142     0.00000237    -0.00097978  0.47D-05  0.10D-04  4  4    58.73    12.47
   5      1.14194630    -0.48094667  -130.33007124    -0.00002982    -0.00025581  0.12D-05  0.17D-05  5  5    69.91    12.48
   6      1.14230805    -0.48093478  -130.33005935     0.00001188    -0.00005125  0.12D-06  0.40D-06  6  6    81.12    12.48
   7      1.14238457    -0.48093434  -130.33005891     0.00000044     0.00000343  0.18D-07  0.92D-07  6  1    92.33    12.49
   8      1.14241016    -0.48093433  -130.33005890     0.00000002    -0.00000313  0.35D-08  0.19D-07  6  2   103.71    12.53
   9      1.14241884    -0.48093374  -130.33005831     0.00000058    -0.00000016  0.22D-08  0.21D-08  6  3   114.95    12.53
  10      1.14241420    -0.48093449  -130.33005906    -0.00000075     0.00000160  0.35D-09  0.34D-09  6  5   126.13    12.53
  11      1.14241621    -0.48093447  -130.33005904     0.00000002    -0.00000037  0.10D-09  0.29D-10  6  4   137.34    12.52
  12      1.14241577    -0.48093454  -130.33005911    -0.00000007     0.00000005  0.19D-10  0.66D-11  6  6   148.67    12.52
  13      1.14241555    -0.48093455  -130.33005912    -0.00000000    -0.00000004  0.32D-11  0.95D-12  6  1   159.85    12.52
  14      1.14241528    -0.48093456  -130.33005913    -0.00000001     0.00000004  0.46D-12  0.18D-12  6  3   171.08    12.52
  15      1.14241520    -0.48093456  -130.33005913    -0.00000000     0.00000001  0.13D-12  0.24D-13  6  2   182.27    12.52
  16      1.14241518    -0.48093456  -130.33005913     0.00000000     0.00000000  0.33D-13  0.92D-14  6  4   193.57    12.52
  17      1.14241518    -0.48093456  -130.33005913    -0.00000000    -0.00000000  0.19D-14  0.11D-14  6  5   204.73    12.52
  18      1.14241519    -0.48093456  -130.33005913     0.00000000    -0.00000000  0.28D-15  0.30D-15  6  6   215.95    12.52
  19      1.14241520    -0.48093456  -130.33005913     0.00000000    -0.00000000  0.53D-16  0.41D-16  6  1   227.24    12.51
  20      1.14241520    -0.48093456  -130.33005913     0.00000000    -0.00000000  0.11D-16  0.62D-17  6  3   238.38    12.51
  21      1.14241520    -0.48093456  -130.33005913    -0.00000000     0.00000000  0.21D-17  0.11D-17  6  2   249.56    12.51
  22      1.14241520    -0.48093456  -130.33005913    -0.00000000     0.00000000  0.48D-18  0.20D-18  6  4   260.63    12.52
  23      1.14241520    -0.48093456  -130.33005913    -0.00000000     0.00000000  0.11D-18  0.59D-19  6  5   271.91    12.52
  24      1.14241520    -0.48093456  -130.33005913    -0.00000000     0.00000000  0.38D-19  0.24D-19  6  6   283.10    12.52
  25      1.14241520    -0.48093456  -130.33005913     0.00000000    -0.00000000  0.20D-19  0.14D-19  6  1   294.39    12.53

 Norm of t1 vector:      0.07684266      S-energy:    -0.00000000      T1 diagnostic:  0.01568544
                                                                       D1 diagnostic:  0.04252872

 Doubles amplitudes (print threshold =  0.500E-01):

         I         J         SYM. A    SYM. B    A         B      T(IJ, AB)

         6         6         2         2         1         1     -0.08118698
         6         6         2         2         1         2      0.05296896
         6         6         2         2         2         1      0.05296896


 Total CPU time for triples:    115.80 sec


 RESULTS
 =======

  Reference energy                   -129.849124570267
  CCSD singlet pair energy             -0.333689491418
  CCSD triplet pair energy             -0.147245069316
  CCSD correlation energy              -0.480934560736

  Triples (T) contribution             -0.023032069142
  Total correlation energy             -0.503966629878

  CCSD total energy                  -130.330059131003
  CCSD[T] energy                     -130.354185355204
  CCSD-T energy                      -130.352707491580
 !CCSD(T) total energy               -130.353091200145

 Timing summary (sec):

 STEP                 CPU(USER)    SYS     CPU(TOT)    WALL
 Transformation         14.00      1.85     15.85     15.87
 CCSD iterations       280.39     32.77    313.16    313.17
 Triples               115.80      1.99    117.79    117.79

 Program statistics:

 Available memory in ccsd:               994999756
 Min. memory needed in ccsd:               3348832
 Max. memory used in ccsd:                 4143652
 Max. memory used in cckext:               8340089 (25 integral passes)



 **********************************************************************************************************************************
 DATASETS  * FILE   NREC   LENGTH (MB)   RECORD NAMES
              1      20     6809.41       500      610      700      900      950      970     1000      129      960     1100   
                                          VAR    BASINP    GEOM    SYMINP    ZMAT    AOBASIS   BASIS     P2S    ABASIS      S 
                                         1400     1410     1200     1210     1080     1600     1650     1300     1700     1380   
                                           T        V       H0       H01     AOSYM     SMH    MOLCAS    ERIS     OPER     JKOP   

              2       4        4.02       700     1000      520     2100   
                                         GEOM     BASIS   MCVARS     RHF  

 PROGRAMS   *        TOTAL   CCSD(T)        HF       INT
 CPU TIMES  *       660.38    410.21    108.95    141.13
 REAL TIME  *       912.86 SEC
 DISK USED  *        21.32 GB      
 **********************************************************************************************************************************

 CCSD(T)/aug-cc-pV5Z energy=   -130.353091200145

        CCSD(T)         HF-SCF  
   -130.35309120   -129.84912457
 **********************************************************************************************************************************
 Molpro calculation terminated
 Variable memory released
