
 Primary working directories    : /tmp/r2666/234672.maple
 Secondary working directories  : /tmp/r2666/234672.maple
 Wavefunction directory         : /ddn/home4/r2666/wfu/
 Main file repository           : /tmp/r2666/234672.maple/

 SHA1      : d5ffa45e93fdbca01ffc919aa182cfdae0147319
 NAME      : 2015.1.35
 ARCHNAME  : linux/x86_64
 FC        : /opt/intel/composer_xe_2015.1.133/bin/intel64/ifort
 BLASLIB   : -Wl,-_start-group /opt/intel/mkl/lib/intel64/libmkl_intel_ilp64.a /opt/intel/mkl/lib/intel64/libmkl_intel_thread.a /opt/intel/mkl/lib/intel64/libmkl_core.a -Wl,-_end-group
 id        : olemiss

 Nodes     nprocs
 cn033        1

 Using customized tuning parameters: mindgm=1; mindgv=20; mindgc=4; mindgr=1; noblas=0; minvec=7
 default implementation of scratch files=df  

 ***,hno CCSD(T)/TZ-F12 QFF
 memory, 995, m;
 gthresh,energy=1.d-12,zero=1.d-22,oneint=1.d-22,twoint=1.d-22;
 gthresh,optgrad=1.d-8,optstep=1.d-8;
 nocompress;
 geomtyp=xyz
 bohr
 geometry={
 3
         44        44
 N        0.0000000000       -0.1563506460       -1.1600219139
 H        0.0000000000        1.6647929857       -1.9335362004
 O        0.0000000000        0.0333254503        1.1429685233
 }
 
 basis=av5z
   {hf,maxit=500;accu,20;}
 {ccsd(t),nocheck,maxit=250;orbital,IGNORE_ERROR;}

 Variables initialized (889), CPU time= 0.00 sec
 Commands  initialized (702), CPU time= 0.01 sec, 572 directives.
 Default parameters read. Elapsed time= 0.04 sec

 Checking input...
 Passed
1


                                         ***  PROGRAM SYSTEM MOLPRO  ***
                                       Copyright, TTI GmbH Stuttgart, 2015
                                    Version 2015.1 linked Jul  9 2018 13:16:40


 **********************************************************************************************************************************
 LABEL *   hno CCSD(T)/TZ-F12 QFF                                                        
  64 bit serial version                                                                  DATE: 08-Feb-20          TIME: 17:24:42  
 **********************************************************************************************************************************

 SHA1:             d5ffa45e93fdbca01ffc919aa182cfdae0147319
 **********************************************************************************************************************************

 THRESHOLDS:

 ZERO    =  1.00D-22  ONEINT  =  1.00D-22  TWOINT  =  1.00D-22  PREFAC  =  1.00D-14  LOCALI  =  1.00D-09  EORDER  =  1.00D-04
 ENERGY  =  1.00D-12  ETEST   =  0.00D+00  EDENS   =  0.00D+00  THRDEDEF=  1.00D-06  GRADIENT=  1.00D-02  STEP    =  1.00D-03
 ORBITAL =  1.00D-05  CIVEC   =  1.00D-05  COEFF   =  1.00D-04  PRINTCI =  5.00D-02  PUNCHCI =  9.90D+01  OPTGRAD =  3.00D-04
 OPTENERG=  1.00D-06  OPTSTEP =  3.00D-04  THRGRAD =  1.00D-10  COMPRESS=  1.00D-11  VARMIN  =  1.00D-07  VARMAX  =  1.00D-03
 THRDOUB =  0.00D+00  THRDIV  =  1.00D-05  THRRED  =  1.00D-07  THRPSP  =  1.00D+00  THRDC   =  1.00D-10  THRCS   =  1.00D-10
 THRNRM  =  1.00D-08  THREQ   =  0.00D+00  THRDE   =  1.00D+00  THRREF  =  1.00D-05  SPARFAC =  1.00D+00  THRDLP  =  1.00D-07
 THRDIA  =  1.00D-10  THRDLS  =  1.00D-07  THRGPS  =  0.00D+00  THRKEX  =  0.00D+00  THRDIS  =  2.00D-01  THRVAR  =  1.00D-10
 THRLOC  =  1.00D-06  THRGAP  =  1.00D-06  THRLOCT = -1.00D+00  THRGAPT = -1.00D+00  THRORB  =  1.00D-06  THRMLTP =  0.00D+00
 THRCPQCI=  1.00D-10  KEXTA   =  0.00D+00  THRCOARS=  0.00D+00  SYMTOL  =  1.00D-06  GRADTOL =  1.00D-06  THROVL  =  1.00D-08
 THRORTH =  1.00D-08  GRID    =  1.00D-06  GRIDMAX =  1.00D-03  DTMAX   =  0.00D+00  THROCCDE=  1.00D-01  THROCCDE=  1.00D-01



 THRESHOLDS:

 ZERO    =  1.00D-22  ONEINT  =  1.00D-22  TWOINT  =  1.00D-22  PREFAC  =  1.00D-14  LOCALI  =  1.00D-09  EORDER  =  1.00D-04
 ENERGY  =  1.00D-12  ETEST   =  0.00D+00  EDENS   =  0.00D+00  THRDEDEF=  1.00D-06  GRADIENT=  1.00D-02  STEP    =  1.00D-03
 ORBITAL =  1.00D-05  CIVEC   =  1.00D-05  COEFF   =  1.00D-04  PRINTCI =  5.00D-02  PUNCHCI =  9.90D+01  OPTGRAD =  1.00D-08
 OPTENERG=  1.00D-06  OPTSTEP =  1.00D-08  THRGRAD =  1.00D-10  COMPRESS=  1.00D-11  VARMIN  =  1.00D-07  VARMAX  =  1.00D-03
 THRDOUB =  0.00D+00  THRDIV  =  1.00D-05  THRRED  =  1.00D-07  THRPSP  =  1.00D+00  THRDC   =  1.00D-10  THRCS   =  1.00D-10
 THRNRM  =  1.00D-08  THREQ   =  0.00D+00  THRDE   =  1.00D+00  THRREF  =  1.00D-05  SPARFAC =  1.00D+00  THRDLP  =  1.00D-07
 THRDIA  =  1.00D-10  THRDLS  =  1.00D-07  THRGPS  =  0.00D+00  THRKEX  =  0.00D+00  THRDIS  =  2.00D-01  THRVAR  =  1.00D-10
 THRLOC  =  1.00D-06  THRGAP  =  1.00D-06  THRLOCT = -1.00D+00  THRGAPT = -1.00D+00  THRORB  =  1.00D-06  THRMLTP =  0.00D+00
 THRCPQCI=  1.00D-10  KEXTA   =  0.00D+00  THRCOARS=  0.00D+00  SYMTOL  =  1.00D-06  GRADTOL =  1.00D-06  THROVL  =  1.00D-08
 THRORTH =  1.00D-08  GRID    =  1.00D-06  GRIDMAX =  1.00D-03  DTMAX   =  0.00D+00  THROCCDE=  1.00D-01  THROCCDE=  1.00D-01



 Input parameters for SORTINT:

 COMPRESS =    0.000000
 C_FINAL  =    1.000000
 DEBUG    =   -1.000000
 C_SORT1  =    0.000000
 C_SEWARD =    0.000000
 THRESH   =    0.000000
 IO       =  molpro                                                          
 SPRI     =    0.000000
 SETTING GEOMTYP        =    XYZ
 ZUNIT=BOHR
 

 Variable memory set to  995000000 words,  buffer space   230000 words

 SETTING BASIS          =    AV5Z


 Recomputing integrals since basis changed


 Using spherical harmonics

 Library entry N      S aug-cc-pV5Z          selected for orbital group  1
 Library entry N      P aug-cc-pV5Z          selected for orbital group  1
 Library entry N      D aug-cc-pV5Z          selected for orbital group  1
 Library entry N      F aug-cc-pV5Z          selected for orbital group  1
 Library entry N      G aug-cc-pV5Z          selected for orbital group  1
 Library entry N      H aug-cc-pV5Z          selected for orbital group  1
 Library entry H      S aug-cc-pV5Z          selected for orbital group  2
 Library entry H      P aug-cc-pV5Z          selected for orbital group  2
 Library entry H      D aug-cc-pV5Z          selected for orbital group  2
 Library entry H      F aug-cc-pV5Z          selected for orbital group  2
 Library entry H      G aug-cc-pV5Z          selected for orbital group  2
 Library entry O      S aug-cc-pV5Z          selected for orbital group  3
 Library entry O      P aug-cc-pV5Z          selected for orbital group  3
 Library entry O      D aug-cc-pV5Z          selected for orbital group  3
 Library entry O      F aug-cc-pV5Z          selected for orbital group  3
 Library entry O      G aug-cc-pV5Z          selected for orbital group  3
 Library entry O      H aug-cc-pV5Z          selected for orbital group  3


 PROGRAM * SEWARD (Integral evaluation for generally contracted gaussian basis sets)     Author: Roland Lindh, 1990

 Geometry written to block  1 of record 700


 Point group  Cs  



 ATOMIC COORDINATES

 NR  ATOM    CHARGE       X              Y              Z

   1  N       7.00    0.000000000   -0.156350646   -1.160021914
   2  H       1.00    0.000000000    1.664792986   -1.933536200
   3  O       8.00    0.000000000    0.033325450    1.142968523

 Bond lengths in Bohr (Angstrom)

 1-2  1.978607712  1-3  2.310788172
     ( 1.047034111)     ( 1.222816440)

 Bond angles

  2-1-3  108.30462087

 NUCLEAR CHARGE:                   16
 NUMBER OF PRIMITIVE AOS:         506
 NUMBER OF SYMMETRY AOS:          371
 NUMBER OF CONTRACTIONS:          334   ( 204A'  + 130A"  )
 NUMBER OF CORE ORBITALS:           2   (   2A'  +   0A"  )
 NUMBER OF VALENCE ORBITALS:        9   (   7A'  +   2A"  )


 NUCLEAR REPULSION ENERGY   30.06931441


 Eigenvalues of metric

         1 0.114E-04 0.178E-04 0.636E-04 0.104E-03 0.110E-03 0.141E-03 0.201E-03 0.225E-03
         2 0.133E-03 0.359E-03 0.117E-02 0.169E-02 0.191E-02 0.265E-02 0.325E-02 0.390E-02


 Contracted 2-electron integrals neglected if value below      1.0D-22

      756977395. INTEGRALS WRITTEN OUT IN  184855 BLOCKS ON RECORD 1290 OF FILE 1


 NUMBER OF SORTED TWO-ELECTRON INTEGRALS:  789027325.     BUFFER LENGTH:  32768
 NUMBER OF SEGMENTS:  25  SEGMENT LENGTH:   31997130      RECORD LENGTH: 524288

 Memory used in sort:      32.55 MW

 SORT1 READ   756977395. AND WROTE   760993275. INTEGRALS IN   2189 RECORDS. CPU TIME:    27.19 SEC, REAL TIME:   176.98 SEC
 SORT2 READ   760993275. AND WROTE   789027325. INTEGRALS IN     25 RECORDS. CPU TIME:    11.06 SEC, REAL TIME:    68.41 SEC

 FILE SIZES:   FILE 1: 12137.5 MBYTE,  FILE 4:  9181.4 MBYTE,   TOTAL:  21318.9 MBYTE

 OPERATOR DM      FOR CENTER  0  COORDINATES:    0.000000    0.000000    0.000000


 **********************************************************************************************************************************
 DATASETS  * FILE   NREC   LENGTH (MB)   RECORD NAMES
              1      19     6374.22       500      610      700      900      950      970     1000      129      960     1100   
                                          VAR    BASINP    GEOM    SYMINP    ZMAT    AOBASIS   BASIS     P2S    ABASIS      S 
                                         1400     1410     1200     1210     1080     1600     1650     1300     1700   
                                           T        V       H0       H01     AOSYM     SMH    MOLCAS    ERIS     OPER   

 PROGRAMS   *        TOTAL       INT
 CPU TIMES  *       139.76    139.68
 REAL TIME  *       368.16 SEC
 DISK USED  *        21.32 GB      
 **********************************************************************************************************************************


 PROGRAM * RHF-SCF (CLOSED SHELL)       Authors: W. Meyer, H.-J. Werner


 NUMBER OF ELECTRONS:       8+    8-
 CONVERGENCE THRESHOLDS:    1.00E-10 (Density)    1.00E-13 (Energy)
 MAX. NUMBER OF ITERATIONS:      500
 INTERPOLATION TYPE:            DIIS
 INTERPOLATION STEPS:              2 (START)      1 (STEP)
 LEVEL SHIFTS:                  0.00 (CLOSED)  0.00 (OPEN) 



 Orbital guess generated from atomic densities. Full valence occupancy:    9   2

 Molecular orbital dump at record        2100.2

 Initial occupancy:   7   1

 ITERATION    DDIFF          GRAD             ENERGY        2-EL.EN.            DIPOLE MOMENTS         DIIS   ORB.
    1      0.000D+00      0.000D+00      -129.79433148    153.444096    0.00000    0.60572   -1.07674    0    start
    2      0.000D+00      0.651D-02      -129.82099795    154.628388    0.00000    0.61966   -0.20156    1    diag
    3      0.412D-02      0.512D-02      -129.84637763    154.791436    0.00000    0.56524   -0.61732    2    diag
    4      0.215D-02      0.784D-03      -129.84721710    154.495680    0.00000    0.57222   -0.55307    3    diag
    5      0.386D-03      0.254D-03      -129.84734834    154.590513    0.00000    0.57742   -0.55529    4    diag
    6      0.160D-03      0.734D-04      -129.84736935    154.574053    0.00000    0.57762   -0.55082    5    diag
    7      0.614D-04      0.371D-04      -129.84737571    154.576679    0.00000    0.57880   -0.54798    6    diag
    8      0.425D-04      0.137D-04      -129.84737653    154.575918    0.00000    0.57884   -0.54682    7    diag
    9      0.177D-04      0.269D-05      -129.84737657    154.575795    0.00000    0.57880   -0.54657    8    diag
   10      0.370D-05      0.589D-06      -129.84737657    154.575776    0.00000    0.57876   -0.54654    9    orth
   11      0.671D-06      0.116D-06      -129.84737657    154.575773    0.00000    0.57876   -0.54654    9    diag
   12      0.120D-06      0.244D-07      -129.84737657    154.575773    0.00000    0.57875   -0.54654    9    diag
   13      0.257D-07      0.666D-08      -129.84737657    154.575773    0.00000    0.57875   -0.54654    9    diag
   14      0.733D-08      0.130D-08      -129.84737657    154.575772    0.00000    0.57875   -0.54654    9    diag
   15      0.133D-08      0.366D-09      -129.84737657    154.575772    0.00000    0.57875   -0.54654    9    diag
   16      0.406D-09      0.108D-09      -129.84737657    154.575772    0.00000    0.57875   -0.54654    9    diag
   17      0.742D-10      0.272D-10      -129.84737657    154.575772    0.00000    0.57875   -0.54654    9    diag
   18      0.253D-10      0.913D-11      -129.84737657    154.575772    0.00000    0.57875   -0.54654    9    diag
   19      0.247D-10      0.230D-11      -129.84737657    154.575772    0.00000    0.57875   -0.54654    9    fixocc
   20      0.297D-10      0.682D-12      -129.84737657    154.575772    0.00000    0.57875   -0.54654    0    orth

 Final occupancy:   7   1

 !RHF STATE 1.1 Energy               -129.847376569742
 Nuclear energy                        30.06931441
 One-electron energy                 -237.20457721
 Two-electron energy                   77.28788623
 Virial quotient                       -1.00207381
 !RHF STATE 1.1 Dipole moment           0.00000000     0.57875447    -0.54654247
 Dipole moment /Debye                   0.00000000     1.47095079    -1.38908142

 Orbital energies:

         1.1          2.1          3.1          4.1          5.1          6.1          7.1          8.1          9.1
    -20.654303   -15.714046    -1.517352    -0.999194    -0.743279    -0.661913    -0.435282     0.022681     0.065518

         1.2          2.2          3.2
     -0.589032     0.057010     0.090346

 HOMO      7.1    -0.435282 =     -11.8446eV
 LUMO      8.1     0.022681 =       0.6172eV
 LUMO-HOMO         0.457963 =      12.4618eV


 **********************************************************************************************************************************
 DATASETS  * FILE   NREC   LENGTH (MB)   RECORD NAMES
              1      19     6374.22       500      610      700      900      950      970     1000      129      960     1100   
                                          VAR    BASINP    GEOM    SYMINP    ZMAT    AOBASIS   BASIS     P2S    ABASIS      S 
                                         1400     1410     1200     1210     1080     1600     1650     1300     1700   
                                           T        V       H0       H01     AOSYM     SMH    MOLCAS    ERIS     OPER   

              2       4        4.02       700     1000      520     2100   
                                         GEOM     BASIS   MCVARS     RHF  

 PROGRAMS   *        TOTAL        HF       INT
 CPU TIMES  *       222.85     83.09    139.68
 REAL TIME  *       473.61 SEC
 DISK USED  *        21.32 GB      
 **********************************************************************************************************************************


 PROGRAM * CCSD (Closed-shell coupled cluster)     Authors: C. Hampel, H.-J. Werner, 1991, M. Deegan, P.J. Knowles, 1992


 Convergence thresholds:  THRVAR = 1.00D-08  THRDEN = 1.00D-12

 CCSD(T)     terms to be evaluated (factor= 1.000)


 Number of core orbitals:           2 (   2   0 )
 Number of closed-shell orbitals:   6 (   5   1 )
 Number of external orbitals:     326 ( 197 129 )

 Molecular orbitals read from record     2100.2  Type=RHF/CANONICAL (state 1.1)

 Number of N-1 electron functions:               6
 Number of N-2 electron functions:              21
 Number of singly external CSFs:              1114
 Number of doubly external CSFs:            975958
 Total number of CSFs:                      977073

 Length of J-op  integral file:               0.00 MB
 Length of K-op  integral file:               4.07 MB
 Length of 3-ext integral record:             0.00 MB

 Memory could be reduced to 151.33 Mwords without degradation in triples

 Integral transformation finished. Total CPU:  14.56 sec, npass=  1  Memory used:  41.21 MW

 Reference energy:                   -129.84737657

 MP2 singlet pair energy:              -0.31258058
 MP2 triplet pair energy:              -0.17297083
 MP2 correlation energy:               -0.48555142
 MP2 total energy:                   -130.33292799

 SCS-MP2 correlation energy:           -0.48272300   (PS=  1.200000  PT=  0.333333)
 SCS-MP2 total energy:               -130.33009957

 ITER.      SQ.NORM     CORR.ENERGY   TOTAL ENERGY   ENERGY CHANGE        DEN1      VAR(S)    VAR(P)  DIIS     TIME  TIME/IT
   1      1.12202177    -0.48195090  -130.32932747     0.00360051     0.02089704  0.34D-02  0.34D-02  1  1    25.78    12.27
   2      1.13300802    -0.48170365  -130.32908022     0.00024725    -0.01305341  0.11D-03  0.51D-03  2  2    36.94    12.38
   3      1.13942408    -0.48210520  -130.32948177    -0.00040154    -0.00307818  0.52D-04  0.60D-04  3  3    48.46    12.49
   4      1.14238624    -0.48210441  -130.32948098     0.00000078    -0.00101240  0.50D-05  0.11D-04  4  4    59.78    12.53
   5      1.14361982    -0.48213613  -130.32951270    -0.00003171    -0.00027209  0.12D-05  0.17D-05  5  5    71.23    12.55
   6      1.14400303    -0.48212298  -130.32949955     0.00001315    -0.00005469  0.12D-06  0.41D-06  6  6    83.19    12.64
   7      1.14407956    -0.48212280  -130.32949937     0.00000018     0.00000426  0.16D-07  0.97D-07  6  1    94.59    12.64
   8      1.14410548    -0.48212268  -130.32949925     0.00000012    -0.00000331  0.33D-08  0.21D-07  6  2   105.92    12.63
   9      1.14411050    -0.48212226  -130.32949883     0.00000042     0.00000142  0.26D-08  0.26D-08  6  4   117.33    12.62
  10      1.14411327    -0.48212259  -130.32949916    -0.00000034    -0.00000089  0.56D-09  0.32D-09  6  3   128.63    12.61
  11      1.14411313    -0.48212269  -130.32949926    -0.00000009    -0.00000014  0.17D-09  0.45D-10  6  5   140.10    12.61
  12      1.14411213    -0.48212284  -130.32949941    -0.00000015     0.00000041  0.22D-10  0.13D-10  6  6   151.47    12.60
  13      1.14411120    -0.48212288  -130.32949945    -0.00000005     0.00000023  0.62D-11  0.29D-11  6  1   162.73    12.60
  14      1.14411043    -0.48212292  -130.32949949    -0.00000004     0.00000018  0.38D-12  0.57D-12  6  4   174.00    12.59
  15      1.14411020    -0.48212293  -130.32949950    -0.00000001     0.00000004  0.84D-13  0.50D-13  6  2   185.49    12.60
  16      1.14411014    -0.48212293  -130.32949950    -0.00000000     0.00000001  0.23D-13  0.86D-14  6  3   196.89    12.60
  17      1.14411011    -0.48212293  -130.32949950    -0.00000000     0.00000001  0.47D-14  0.12D-14  6  5   208.30    12.60
  18      1.14411011    -0.48212293  -130.32949950    -0.00000000     0.00000000  0.10D-14  0.30D-15  6  6   219.64    12.60
  19      1.14411011    -0.48212293  -130.32949950    -0.00000000     0.00000000  0.14D-15  0.59D-16  6  1   230.82    12.59
  20      1.14411011    -0.48212293  -130.32949950     0.00000000    -0.00000000  0.16D-16  0.89D-17  6  4   242.13    12.59
  21      1.14411011    -0.48212293  -130.32949950     0.00000000    -0.00000000  0.12D-17  0.13D-17  6  3   253.39    12.59
  22      1.14411011    -0.48212293  -130.32949950     0.00000000    -0.00000000  0.30D-18  0.27D-18  6  2   264.79    12.58
  23      1.14411011    -0.48212293  -130.32949950     0.00000000    -0.00000000  0.86D-19  0.12D-18  6  5   276.10    12.58
  24      1.14411011    -0.48212293  -130.32949950     0.00000000     0.00000000  0.40D-19  0.74D-19  6  6   287.76    12.59
  25      1.14411011    -0.48212293  -130.32949950     0.00000000     0.00000000  0.13D-19  0.38D-19  6  4   299.49    12.61

 Norm of t1 vector:      0.07861698      S-energy:     0.00000000      T1 diagnostic:  0.01604762
                                                                       D1 diagnostic:  0.04418722

 Doubles amplitudes (print threshold =  0.500E-01):

         I         J         SYM. A    SYM. B    A         B      T(IJ, AB)

         6         6         2         2         1         1     -0.09031743
         6         6         2         2         1         2      0.05254148
         6         6         2         2         2         1      0.05254148


 Total CPU time for triples:    117.86 sec


 RESULTS
 =======

  Reference energy                   -129.847376569743
  CCSD singlet pair energy             -0.334726173322
  CCSD triplet pair energy             -0.147396758887
  CCSD correlation energy              -0.482122932207

  Triples (T) contribution             -0.023368844968
  Total correlation energy             -0.505491777175

  CCSD total energy                  -130.329499501950
  CCSD[T] energy                     -130.354010145055
  CCSD-T energy                      -130.352474937535
 !CCSD(T) total energy               -130.352868346918

 Timing summary (sec):

 STEP                 CPU(USER)    SYS     CPU(TOT)    WALL
 Transformation         14.64      1.67     16.31     16.30
 CCSD iterations       284.86     30.28    315.14    315.17
 Triples               117.86      2.06    119.92    119.94

 Program statistics:

 Available memory in ccsd:               994999756
 Min. memory needed in ccsd:               3348832
 Max. memory used in ccsd:                 4143652
 Max. memory used in cckext:               8340089 (25 integral passes)



 **********************************************************************************************************************************
 DATASETS  * FILE   NREC   LENGTH (MB)   RECORD NAMES
              1      20     6809.41       500      610      700      900      950      970     1000      129      960     1100   
                                          VAR    BASINP    GEOM    SYMINP    ZMAT    AOBASIS   BASIS     P2S    ABASIS      S 
                                         1400     1410     1200     1210     1080     1600     1650     1300     1700     1380   
                                           T        V       H0       H01     AOSYM     SMH    MOLCAS    ERIS     OPER     JKOP   

              2       4        4.02       700     1000      520     2100   
                                         GEOM     BASIS   MCVARS     RHF  

 PROGRAMS   *        TOTAL   CCSD(T)        HF       INT
 CPU TIMES  *       640.24    417.39     83.09    139.68
 REAL TIME  *       925.07 SEC
 DISK USED  *        21.32 GB      
 **********************************************************************************************************************************

 CCSD(T)/aug-cc-pV5Z energy=   -130.352868346918

        CCSD(T)         HF-SCF  
   -130.35286835   -129.84737657
 **********************************************************************************************************************************
 Molpro calculation terminated
 Variable memory released
