
 Primary working directories    : /tmp/r2666/234700.maple
 Secondary working directories  : /tmp/r2666/234700.maple
 Wavefunction directory         : /ddn/home4/r2666/wfu/
 Main file repository           : /tmp/r2666/234700.maple/

 SHA1      : d5ffa45e93fdbca01ffc919aa182cfdae0147319
 NAME      : 2015.1.35
 ARCHNAME  : linux/x86_64
 FC        : /opt/intel/composer_xe_2015.1.133/bin/intel64/ifort
 BLASLIB   : -Wl,-_start-group /opt/intel/mkl/lib/intel64/libmkl_intel_ilp64.a /opt/intel/mkl/lib/intel64/libmkl_intel_thread.a /opt/intel/mkl/lib/intel64/libmkl_core.a -Wl,-_end-group
 id        : olemiss

 Nodes     nprocs
 cn043        1

 Using customized tuning parameters: mindgm=1; mindgv=20; mindgc=4; mindgr=1; noblas=0; minvec=7
 default implementation of scratch files=df  

 ***,hno CCSD(T)/TZ-F12 QFF
 memory, 995, m;
 gthresh,energy=1.d-12,zero=1.d-22,oneint=1.d-22,twoint=1.d-22;
 gthresh,optgrad=1.d-8,optstep=1.d-8;
 nocompress;
 geomtyp=xyz
 bohr
 geometry={
 3
         72        72
 N        0.0000000000       -0.1570468069       -1.1444214411
 H        0.0000000000        1.6670758796       -1.9349557185
 O        0.0000000000        0.0317387173        1.1287875686
 }
 
 basis=av5z
   {hf,maxit=500;accu,20;}
 {ccsd(t),nocheck,maxit=250;orbital,IGNORE_ERROR;}

 Variables initialized (889), CPU time= 0.00 sec
 Commands  initialized (702), CPU time= 0.01 sec, 572 directives.
 Default parameters read. Elapsed time= 0.05 sec

 Checking input...
 Passed
1


                                         ***  PROGRAM SYSTEM MOLPRO  ***
                                       Copyright, TTI GmbH Stuttgart, 2015
                                    Version 2015.1 linked Jul  9 2018 13:16:40


 **********************************************************************************************************************************
 LABEL *   hno CCSD(T)/TZ-F12 QFF                                                        
  64 bit serial version                                                                  DATE: 08-Feb-20          TIME: 17:37:01  
 **********************************************************************************************************************************

 SHA1:             d5ffa45e93fdbca01ffc919aa182cfdae0147319
 **********************************************************************************************************************************

 THRESHOLDS:

 ZERO    =  1.00D-22  ONEINT  =  1.00D-22  TWOINT  =  1.00D-22  PREFAC  =  1.00D-14  LOCALI  =  1.00D-09  EORDER  =  1.00D-04
 ENERGY  =  1.00D-12  ETEST   =  0.00D+00  EDENS   =  0.00D+00  THRDEDEF=  1.00D-06  GRADIENT=  1.00D-02  STEP    =  1.00D-03
 ORBITAL =  1.00D-05  CIVEC   =  1.00D-05  COEFF   =  1.00D-04  PRINTCI =  5.00D-02  PUNCHCI =  9.90D+01  OPTGRAD =  3.00D-04
 OPTENERG=  1.00D-06  OPTSTEP =  3.00D-04  THRGRAD =  1.00D-10  COMPRESS=  1.00D-11  VARMIN  =  1.00D-07  VARMAX  =  1.00D-03
 THRDOUB =  0.00D+00  THRDIV  =  1.00D-05  THRRED  =  1.00D-07  THRPSP  =  1.00D+00  THRDC   =  1.00D-10  THRCS   =  1.00D-10
 THRNRM  =  1.00D-08  THREQ   =  0.00D+00  THRDE   =  1.00D+00  THRREF  =  1.00D-05  SPARFAC =  1.00D+00  THRDLP  =  1.00D-07
 THRDIA  =  1.00D-10  THRDLS  =  1.00D-07  THRGPS  =  0.00D+00  THRKEX  =  0.00D+00  THRDIS  =  2.00D-01  THRVAR  =  1.00D-10
 THRLOC  =  1.00D-06  THRGAP  =  1.00D-06  THRLOCT = -1.00D+00  THRGAPT = -1.00D+00  THRORB  =  1.00D-06  THRMLTP =  0.00D+00
 THRCPQCI=  1.00D-10  KEXTA   =  0.00D+00  THRCOARS=  0.00D+00  SYMTOL  =  1.00D-06  GRADTOL =  1.00D-06  THROVL  =  1.00D-08
 THRORTH =  1.00D-08  GRID    =  1.00D-06  GRIDMAX =  1.00D-03  DTMAX   =  0.00D+00  THROCCDE=  1.00D-01  THROCCDE=  1.00D-01



 THRESHOLDS:

 ZERO    =  1.00D-22  ONEINT  =  1.00D-22  TWOINT  =  1.00D-22  PREFAC  =  1.00D-14  LOCALI  =  1.00D-09  EORDER  =  1.00D-04
 ENERGY  =  1.00D-12  ETEST   =  0.00D+00  EDENS   =  0.00D+00  THRDEDEF=  1.00D-06  GRADIENT=  1.00D-02  STEP    =  1.00D-03
 ORBITAL =  1.00D-05  CIVEC   =  1.00D-05  COEFF   =  1.00D-04  PRINTCI =  5.00D-02  PUNCHCI =  9.90D+01  OPTGRAD =  1.00D-08
 OPTENERG=  1.00D-06  OPTSTEP =  1.00D-08  THRGRAD =  1.00D-10  COMPRESS=  1.00D-11  VARMIN  =  1.00D-07  VARMAX  =  1.00D-03
 THRDOUB =  0.00D+00  THRDIV  =  1.00D-05  THRRED  =  1.00D-07  THRPSP  =  1.00D+00  THRDC   =  1.00D-10  THRCS   =  1.00D-10
 THRNRM  =  1.00D-08  THREQ   =  0.00D+00  THRDE   =  1.00D+00  THRREF  =  1.00D-05  SPARFAC =  1.00D+00  THRDLP  =  1.00D-07
 THRDIA  =  1.00D-10  THRDLS  =  1.00D-07  THRGPS  =  0.00D+00  THRKEX  =  0.00D+00  THRDIS  =  2.00D-01  THRVAR  =  1.00D-10
 THRLOC  =  1.00D-06  THRGAP  =  1.00D-06  THRLOCT = -1.00D+00  THRGAPT = -1.00D+00  THRORB  =  1.00D-06  THRMLTP =  0.00D+00
 THRCPQCI=  1.00D-10  KEXTA   =  0.00D+00  THRCOARS=  0.00D+00  SYMTOL  =  1.00D-06  GRADTOL =  1.00D-06  THROVL  =  1.00D-08
 THRORTH =  1.00D-08  GRID    =  1.00D-06  GRIDMAX =  1.00D-03  DTMAX   =  0.00D+00  THROCCDE=  1.00D-01  THROCCDE=  1.00D-01



 Input parameters for SORTINT:

 COMPRESS =    0.000000
 C_FINAL  =    1.000000
 DEBUG    =   -1.000000
 C_SORT1  =    0.000000
 C_SEWARD =    0.000000
 THRESH   =    0.000000
 IO       =  molpro                                                          
 SPRI     =    0.000000
 SETTING GEOMTYP        =    XYZ
 ZUNIT=BOHR
 

 Variable memory set to  995000000 words,  buffer space   230000 words

 SETTING BASIS          =    AV5Z


 Recomputing integrals since basis changed


 Using spherical harmonics

 Library entry N      S aug-cc-pV5Z          selected for orbital group  1
 Library entry N      P aug-cc-pV5Z          selected for orbital group  1
 Library entry N      D aug-cc-pV5Z          selected for orbital group  1
 Library entry N      F aug-cc-pV5Z          selected for orbital group  1
 Library entry N      G aug-cc-pV5Z          selected for orbital group  1
 Library entry N      H aug-cc-pV5Z          selected for orbital group  1
 Library entry H      S aug-cc-pV5Z          selected for orbital group  2
 Library entry H      P aug-cc-pV5Z          selected for orbital group  2
 Library entry H      D aug-cc-pV5Z          selected for orbital group  2
 Library entry H      F aug-cc-pV5Z          selected for orbital group  2
 Library entry H      G aug-cc-pV5Z          selected for orbital group  2
 Library entry O      S aug-cc-pV5Z          selected for orbital group  3
 Library entry O      P aug-cc-pV5Z          selected for orbital group  3
 Library entry O      D aug-cc-pV5Z          selected for orbital group  3
 Library entry O      F aug-cc-pV5Z          selected for orbital group  3
 Library entry O      G aug-cc-pV5Z          selected for orbital group  3
 Library entry O      H aug-cc-pV5Z          selected for orbital group  3


 PROGRAM * SEWARD (Integral evaluation for generally contracted gaussian basis sets)     Author: Roland Lindh, 1990

 Geometry written to block  1 of record 700


 Point group  Cs  



 ATOMIC COORDINATES

 NR  ATOM    CHARGE       X              Y              Z

   1  N       7.00    0.000000000   -0.157046807   -1.144421441
   2  H       1.00    0.000000000    1.667075880   -1.934955718
   3  O       8.00    0.000000000    0.031738717    1.128787569

 Bond lengths in Bohr (Angstrom)

 1-2  1.988056342  1-3  2.281034672
     ( 1.052034110)     ( 1.207071566)

 Bond angles

  2-1-3  108.68343054

 NUCLEAR CHARGE:                   16
 NUMBER OF PRIMITIVE AOS:         506
 NUMBER OF SYMMETRY AOS:          371
 NUMBER OF CONTRACTIONS:          334   ( 204A'  + 130A"  )
 NUMBER OF CORE ORBITALS:           2   (   2A'  +   0A"  )
 NUMBER OF VALENCE ORBITALS:        9   (   7A'  +   2A"  )


 NUCLEAR REPULSION ENERGY   30.37485739


 Eigenvalues of metric

         1 0.112E-04 0.171E-04 0.633E-04 0.997E-04 0.105E-03 0.136E-03 0.198E-03 0.224E-03
         2 0.127E-03 0.363E-03 0.112E-02 0.157E-02 0.193E-02 0.251E-02 0.326E-02 0.391E-02


 Contracted 2-electron integrals neglected if value below      1.0D-22

      756977310. INTEGRALS WRITTEN OUT IN  184855 BLOCKS ON RECORD 1290 OF FILE 1


 NUMBER OF SORTED TWO-ELECTRON INTEGRALS:  789027325.     BUFFER LENGTH:  32768
 NUMBER OF SEGMENTS:  25  SEGMENT LENGTH:   31997130      RECORD LENGTH: 524288

 Memory used in sort:      32.55 MW

 SORT1 READ   756977310. AND WROTE   760993192. INTEGRALS IN   2189 RECORDS. CPU TIME:    23.66 SEC, REAL TIME:    56.28 SEC
 SORT2 READ   760993192. AND WROTE   789027325. INTEGRALS IN     25 RECORDS. CPU TIME:    10.59 SEC, REAL TIME:    40.88 SEC

 FILE SIZES:   FILE 1: 12137.5 MBYTE,  FILE 4:  9181.4 MBYTE,   TOTAL:  21318.9 MBYTE

 OPERATOR DM      FOR CENTER  0  COORDINATES:    0.000000    0.000000    0.000000


 **********************************************************************************************************************************
 DATASETS  * FILE   NREC   LENGTH (MB)   RECORD NAMES
              1      19     6374.22       500      610      700      900      950      970     1000      129      960     1100   
                                          VAR    BASINP    GEOM    SYMINP    ZMAT    AOBASIS   BASIS     P2S    ABASIS      S 
                                         1400     1410     1200     1210     1080     1600     1650     1300     1700   
                                           T        V       H0       H01     AOSYM     SMH    MOLCAS    ERIS     OPER   

 PROGRAMS   *        TOTAL       INT
 CPU TIMES  *       141.69    141.61
 REAL TIME  *       212.06 SEC
 DISK USED  *        21.32 GB      
 **********************************************************************************************************************************


 PROGRAM * RHF-SCF (CLOSED SHELL)       Authors: W. Meyer, H.-J. Werner


 NUMBER OF ELECTRONS:       8+    8-
 CONVERGENCE THRESHOLDS:    1.00E-10 (Density)    1.00E-13 (Energy)
 MAX. NUMBER OF ITERATIONS:      500
 INTERPOLATION TYPE:            DIIS
 INTERPOLATION STEPS:              2 (START)      1 (STEP)
 LEVEL SHIFTS:                  0.00 (CLOSED)  0.00 (OPEN) 



 Orbital guess generated from atomic densities. Full valence occupancy:    9   2

 Molecular orbital dump at record        2100.2

 Initial occupancy:   7   1

 ITERATION    DDIFF          GRAD             ENERGY        2-EL.EN.            DIPOLE MOMENTS         DIIS   ORB.
    1      0.000D+00      0.000D+00      -129.79881048    153.987162    0.00000    0.59924   -1.02733    0    start
    2      0.000D+00      0.641D-02      -129.82605502    155.211795    0.00000    0.60959   -0.21005    1    diag
    3      0.400D-02      0.487D-02      -129.84887241    155.336636    0.00000    0.55808   -0.59508    2    diag
    4      0.206D-02      0.769D-03      -129.84967807    155.052275    0.00000    0.56522   -0.53343    3    diag
    5      0.378D-03      0.249D-03      -129.84980375    155.146101    0.00000    0.57051   -0.53598    4    diag
    6      0.156D-03      0.720D-04      -129.84982384    155.129797    0.00000    0.57080   -0.53178    5    diag
    7      0.599D-04      0.358D-04      -129.84982967    155.132594    0.00000    0.57203   -0.52917    6    diag
    8      0.410D-04      0.126D-04      -129.84983034    155.131892    0.00000    0.57208   -0.52815    7    diag
    9      0.158D-04      0.244D-05      -129.84983037    155.131780    0.00000    0.57204   -0.52792    8    diag
   10      0.319D-05      0.553D-06      -129.84983037    155.131762    0.00000    0.57201   -0.52789    9    orth
   11      0.628D-06      0.111D-06      -129.84983037    155.131758    0.00000    0.57200   -0.52789    9    diag
   12      0.117D-06      0.225D-07      -129.84983037    155.131758    0.00000    0.57200   -0.52789    9    diag
   13      0.252D-07      0.588D-08      -129.84983037    155.131758    0.00000    0.57200   -0.52789    9    diag
   14      0.680D-08      0.114D-08      -129.84983037    155.131758    0.00000    0.57200   -0.52789    9    diag
   15      0.125D-08      0.326D-09      -129.84983037    155.131758    0.00000    0.57200   -0.52789    9    diag
   16      0.374D-09      0.982D-10      -129.84983037    155.131758    0.00000    0.57200   -0.52789    9    diag
   17      0.749D-10      0.257D-10      -129.84983037    155.131758    0.00000    0.57200   -0.52789    9    diag
   18      0.193D-10      0.875D-11      -129.84983037    155.131758    0.00000    0.57200   -0.52789    9    diag
   19      0.155D-10      0.216D-11      -129.84983037    155.131758    0.00000    0.57200   -0.52789    9    fixocc
   20      0.154D-10      0.520D-12      -129.84983037    155.131758    0.00000    0.57200   -0.52789    9    orth
   21      0.102D-10      0.419D-12      -129.84983037    155.131758    0.00000    0.57200   -0.52789    9    diag
   22      0.884D-11      0.352D-12      -129.84983037    155.131758    0.00000    0.57200   -0.52789    9    diag
   23      0.488D-11      0.265D-12      -129.84983037    155.131758    0.00000    0.57200   -0.52789    9    diag
   24      0.332D-11      0.297D-12      -129.84983037    155.131758    0.00000    0.57200   -0.52789    0    orth

 Final occupancy:   7   1

 !RHF STATE 1.1 Energy               -129.849830370408
 Nuclear energy                        30.37485739
 One-electron energy                 -237.79056661
 Two-electron energy                   77.56587885
 Virial quotient                       -1.00168935
 !RHF STATE 1.1 Dipole moment           0.00000000     0.57199879    -0.52788889
 Dipole moment /Debye                   0.00000000     1.45378070    -1.34167186

 Orbital energies:

         1.1          2.1          3.1          4.1          5.1          6.1          7.1          8.1          9.1
    -20.652976   -15.711926    -1.529779    -0.994470    -0.747433    -0.666459    -0.429956     0.022829     0.065541

         1.2          2.2          3.2
     -0.596405     0.060299     0.091660

 HOMO      7.1    -0.429956 =     -11.6997eV
 LUMO      8.1     0.022829 =       0.6212eV
 LUMO-HOMO         0.452785 =      12.3209eV


 **********************************************************************************************************************************
 DATASETS  * FILE   NREC   LENGTH (MB)   RECORD NAMES
              1      19     6374.22       500      610      700      900      950      970     1000      129      960     1100   
                                          VAR    BASINP    GEOM    SYMINP    ZMAT    AOBASIS   BASIS     P2S    ABASIS      S 
                                         1400     1410     1200     1210     1080     1600     1650     1300     1700   
                                           T        V       H0       H01     AOSYM     SMH    MOLCAS    ERIS     OPER   

              2       4        4.02       700     1000      520     2100   
                                         GEOM     BASIS   MCVARS     RHF  

 PROGRAMS   *        TOTAL        HF       INT
 CPU TIMES  *       237.92     96.23    141.61
 REAL TIME  *       335.04 SEC
 DISK USED  *        21.32 GB      
 **********************************************************************************************************************************


 PROGRAM * CCSD (Closed-shell coupled cluster)     Authors: C. Hampel, H.-J. Werner, 1991, M. Deegan, P.J. Knowles, 1992


 Convergence thresholds:  THRVAR = 1.00D-08  THRDEN = 1.00D-12

 CCSD(T)     terms to be evaluated (factor= 1.000)


 Number of core orbitals:           2 (   2   0 )
 Number of closed-shell orbitals:   6 (   5   1 )
 Number of external orbitals:     326 ( 197 129 )

 Molecular orbitals read from record     2100.2  Type=RHF/CANONICAL (state 1.1)

 Number of N-1 electron functions:               6
 Number of N-2 electron functions:              21
 Number of singly external CSFs:              1114
 Number of doubly external CSFs:            975958
 Total number of CSFs:                      977073

 Length of J-op  integral file:               0.00 MB
 Length of K-op  integral file:               4.07 MB
 Length of 3-ext integral record:             0.00 MB

 Memory could be reduced to 151.33 Mwords without degradation in triples

 Integral transformation finished. Total CPU:  13.83 sec, npass=  1  Memory used:  41.21 MW

 Reference energy:                   -129.84983037

 MP2 singlet pair energy:              -0.31108020
 MP2 triplet pair energy:              -0.17195250
 MP2 correlation energy:               -0.48303270
 MP2 total energy:                   -130.33286307

 SCS-MP2 correlation energy:           -0.48028890   (PS=  1.200000  PT=  0.333333)
 SCS-MP2 total energy:               -130.33011927

 ITER.      SQ.NORM     CORR.ENERGY   TOTAL ENERGY   ENERGY CHANGE        DEN1      VAR(S)    VAR(P)  DIIS     TIME  TIME/IT
   1      1.12050266    -0.48006432  -130.32989469     0.00296837     0.01960339  0.32D-02  0.32D-02  1  1    24.58    11.75
   2      1.13111575    -0.47995512  -130.32978549     0.00010921    -0.01265856  0.10D-03  0.49D-03  2  2    35.60    12.00
   3      1.13725684    -0.48033607  -130.33016644    -0.00038095    -0.00299690  0.48D-04  0.56D-04  3  3    46.56    12.06
   4      1.14004152    -0.48033398  -130.33016435     0.00000208    -0.00096706  0.45D-05  0.10D-04  4  4    57.69    12.15
   5      1.14117114    -0.48036300  -130.33019337    -0.00002902    -0.00025053  0.11D-05  0.17D-05  5  5    68.60    12.15
   6      1.14152793    -0.48035147  -130.33018184     0.00001153    -0.00005034  0.12D-06  0.41D-06  6  6    79.82    12.19
   7      1.14160457    -0.48035109  -130.33018146     0.00000039     0.00000328  0.17D-07  0.94D-07  6  1    90.80    12.19
   8      1.14162999    -0.48035114  -130.33018151    -0.00000005    -0.00000306  0.36D-08  0.19D-07  6  2   101.86    12.19
   9      1.14163863    -0.48035058  -130.33018095     0.00000056    -0.00000019  0.23D-08  0.20D-08  6  3   112.84    12.19
  10      1.14163403    -0.48035132  -130.33018169    -0.00000074     0.00000158  0.36D-09  0.33D-09  6  5   123.81    12.20
  11      1.14163597    -0.48035130  -130.33018168     0.00000001    -0.00000035  0.10D-09  0.28D-10  6  4   134.78    12.20
  12      1.14163552    -0.48035137  -130.33018174    -0.00000007     0.00000005  0.19D-10  0.65D-11  6  6   145.74    12.20
  13      1.14163531    -0.48035138  -130.33018175    -0.00000000    -0.00000003  0.32D-11  0.95D-12  6  1   156.72    12.20
  14      1.14163504    -0.48035139  -130.33018176    -0.00000001     0.00000004  0.47D-12  0.17D-12  6  3   167.72    12.20
  15      1.14163496    -0.48035139  -130.33018176    -0.00000000     0.00000001  0.12D-12  0.23D-13  6  2   178.70    12.21
  16      1.14163495    -0.48035139  -130.33018176     0.00000000     0.00000000  0.33D-13  0.90D-14  6  4   189.78    12.21
  17      1.14163495    -0.48035139  -130.33018176    -0.00000000    -0.00000000  0.19D-14  0.11D-14  6  5   200.80    12.21
  18      1.14163495    -0.48035139  -130.33018176     0.00000000    -0.00000000  0.28D-15  0.30D-15  6  6   211.78    12.21
  19      1.14163496    -0.48035139  -130.33018176     0.00000000    -0.00000000  0.54D-16  0.42D-16  6  1   222.79    12.21
  20      1.14163496    -0.48035139  -130.33018176     0.00000000    -0.00000000  0.11D-16  0.63D-17  6  3   233.83    12.21
  21      1.14163496    -0.48035139  -130.33018176    -0.00000000     0.00000000  0.22D-17  0.11D-17  6  2   244.88    12.22
  22      1.14163496    -0.48035139  -130.33018176    -0.00000000     0.00000000  0.46D-18  0.19D-18  6  4   255.81    12.22
  23      1.14163496    -0.48035139  -130.33018176    -0.00000000     0.00000000  0.14D-18  0.64D-19  6  2   266.84    12.22
  24      1.14163496    -0.48035139  -130.33018176    -0.00000000     0.00000000  0.55D-19  0.26D-19  6  5   277.83    12.22
  25      1.14163496    -0.48035139  -130.33018176    -0.00000000     0.00000000  0.31D-19  0.16D-19  6  6   289.05    12.22

 Norm of t1 vector:      0.07622626      S-energy:    -0.00000000      T1 diagnostic:  0.01555962
                                                                       D1 diagnostic:  0.04212200

 Doubles amplitudes (print threshold =  0.500E-01):

         I         J         SYM. A    SYM. B    A         B      T(IJ, AB)

         6         6         2         2         1         1     -0.07859588
         6         6         2         2         1         2      0.05303127
         6         6         2         2         2         1      0.05303127


 Total CPU time for triples:    114.18 sec


 RESULTS
 =======

  Reference energy                   -129.849830370409
  CCSD singlet pair energy             -0.333188435650
  CCSD triplet pair energy             -0.147162953951
  CCSD correlation energy              -0.480351389602

  Triples (T) contribution             -0.022894556793
  Total correlation energy             -0.503245946395

  CCSD total energy                  -130.330181760011
  CCSD[T] energy                     -130.354153221068
  CCSD-T energy                      -130.352697368950
 !CCSD(T) total energy               -130.353076316804

 Timing summary (sec):

 STEP                 CPU(USER)    SYS     CPU(TOT)    WALL
 Transformation         13.89      1.55     15.44     15.45
 CCSD iterations       275.16     30.31    305.47    305.48
 Triples               114.18      2.10    116.28    116.28

 Program statistics:

 Available memory in ccsd:               994999756
 Min. memory needed in ccsd:               3348832
 Max. memory used in ccsd:                 4143652
 Max. memory used in cckext:               8340089 (25 integral passes)



 **********************************************************************************************************************************
 DATASETS  * FILE   NREC   LENGTH (MB)   RECORD NAMES
              1      20     6809.41       500      610      700      900      950      970     1000      129      960     1100   
                                          VAR    BASINP    GEOM    SYMINP    ZMAT    AOBASIS   BASIS     P2S    ABASIS      S 
                                         1400     1410     1200     1210     1080     1600     1650     1300     1700     1380   
                                           T        V       H0       H01     AOSYM     SMH    MOLCAS    ERIS     OPER     JKOP   

              2       4        4.02       700     1000      520     2100   
                                         GEOM     BASIS   MCVARS     RHF  

 PROGRAMS   *        TOTAL   CCSD(T)        HF       INT
 CPU TIMES  *       641.18    403.25     96.23    141.61
 REAL TIME  *       772.30 SEC
 DISK USED  *        21.32 GB      
 **********************************************************************************************************************************

 CCSD(T)/aug-cc-pV5Z energy=   -130.353076316804

        CCSD(T)         HF-SCF  
   -130.35307632   -129.84983037
 **********************************************************************************************************************************
 Molpro calculation terminated
 Variable memory released
