
 Primary working directories    : /tmp/r2666/234638.maple
 Secondary working directories  : /tmp/r2666/234638.maple
 Wavefunction directory         : /ddn/home4/r2666/wfu/
 Main file repository           : /tmp/r2666/234638.maple/

 SHA1      : d5ffa45e93fdbca01ffc919aa182cfdae0147319
 NAME      : 2015.1.35
 ARCHNAME  : linux/x86_64
 FC        : /opt/intel/composer_xe_2015.1.133/bin/intel64/ifort
 BLASLIB   : -Wl,-_start-group /opt/intel/mkl/lib/intel64/libmkl_intel_ilp64.a /opt/intel/mkl/lib/intel64/libmkl_intel_thread.a /opt/intel/mkl/lib/intel64/libmkl_core.a -Wl,-_end-group
 id        : olemiss

 Nodes     nprocs
 cn096        1

 Using customized tuning parameters: mindgm=1; mindgv=20; mindgc=4; mindgr=1; noblas=0; minvec=7
 default implementation of scratch files=df  

 ***,hno CCSD(T)/TZ-F12 QFF
 memory, 995, m;
 gthresh,energy=1.d-12,zero=1.d-22,oneint=1.d-22,twoint=1.d-22;
 gthresh,optgrad=1.d-8,optstep=1.d-8;
 nocompress;
 geomtyp=xyz
 bohr
 geometry={
 3
         10        10
 N        0.0000000000       -0.1517608595       -1.1489539272
 H        0.0000000000        1.6578092967       -1.9255125798
 O        0.0000000000        0.0357193528        1.1238769160
 }
 
 basis=av5z
   {hf,maxit=500;accu,20;}
 {ccsd(t),nocheck,maxit=250;orbital,IGNORE_ERROR;}

 Variables initialized (889), CPU time= 0.01 sec
 Commands  initialized (702), CPU time= 0.00 sec, 572 directives.
 Default parameters read. Elapsed time= 0.06 sec

 Checking input...
 Passed
1


                                         ***  PROGRAM SYSTEM MOLPRO  ***
                                       Copyright, TTI GmbH Stuttgart, 2015
                                    Version 2015.1 linked Jul  9 2018 13:16:40


 **********************************************************************************************************************************
 LABEL *   hno CCSD(T)/TZ-F12 QFF                                                        
  64 bit serial version                                                                  DATE: 08-Feb-20          TIME: 17:24:40  
 **********************************************************************************************************************************

 SHA1:             d5ffa45e93fdbca01ffc919aa182cfdae0147319
 **********************************************************************************************************************************

 THRESHOLDS:

 ZERO    =  1.00D-22  ONEINT  =  1.00D-22  TWOINT  =  1.00D-22  PREFAC  =  1.00D-14  LOCALI  =  1.00D-09  EORDER  =  1.00D-04
 ENERGY  =  1.00D-12  ETEST   =  0.00D+00  EDENS   =  0.00D+00  THRDEDEF=  1.00D-06  GRADIENT=  1.00D-02  STEP    =  1.00D-03
 ORBITAL =  1.00D-05  CIVEC   =  1.00D-05  COEFF   =  1.00D-04  PRINTCI =  5.00D-02  PUNCHCI =  9.90D+01  OPTGRAD =  3.00D-04
 OPTENERG=  1.00D-06  OPTSTEP =  3.00D-04  THRGRAD =  1.00D-10  COMPRESS=  1.00D-11  VARMIN  =  1.00D-07  VARMAX  =  1.00D-03
 THRDOUB =  0.00D+00  THRDIV  =  1.00D-05  THRRED  =  1.00D-07  THRPSP  =  1.00D+00  THRDC   =  1.00D-10  THRCS   =  1.00D-10
 THRNRM  =  1.00D-08  THREQ   =  0.00D+00  THRDE   =  1.00D+00  THRREF  =  1.00D-05  SPARFAC =  1.00D+00  THRDLP  =  1.00D-07
 THRDIA  =  1.00D-10  THRDLS  =  1.00D-07  THRGPS  =  0.00D+00  THRKEX  =  0.00D+00  THRDIS  =  2.00D-01  THRVAR  =  1.00D-10
 THRLOC  =  1.00D-06  THRGAP  =  1.00D-06  THRLOCT = -1.00D+00  THRGAPT = -1.00D+00  THRORB  =  1.00D-06  THRMLTP =  0.00D+00
 THRCPQCI=  1.00D-10  KEXTA   =  0.00D+00  THRCOARS=  0.00D+00  SYMTOL  =  1.00D-06  GRADTOL =  1.00D-06  THROVL  =  1.00D-08
 THRORTH =  1.00D-08  GRID    =  1.00D-06  GRIDMAX =  1.00D-03  DTMAX   =  0.00D+00  THROCCDE=  1.00D-01  THROCCDE=  1.00D-01



 THRESHOLDS:

 ZERO    =  1.00D-22  ONEINT  =  1.00D-22  TWOINT  =  1.00D-22  PREFAC  =  1.00D-14  LOCALI  =  1.00D-09  EORDER  =  1.00D-04
 ENERGY  =  1.00D-12  ETEST   =  0.00D+00  EDENS   =  0.00D+00  THRDEDEF=  1.00D-06  GRADIENT=  1.00D-02  STEP    =  1.00D-03
 ORBITAL =  1.00D-05  CIVEC   =  1.00D-05  COEFF   =  1.00D-04  PRINTCI =  5.00D-02  PUNCHCI =  9.90D+01  OPTGRAD =  1.00D-08
 OPTENERG=  1.00D-06  OPTSTEP =  1.00D-08  THRGRAD =  1.00D-10  COMPRESS=  1.00D-11  VARMIN  =  1.00D-07  VARMAX  =  1.00D-03
 THRDOUB =  0.00D+00  THRDIV  =  1.00D-05  THRRED  =  1.00D-07  THRPSP  =  1.00D+00  THRDC   =  1.00D-10  THRCS   =  1.00D-10
 THRNRM  =  1.00D-08  THREQ   =  0.00D+00  THRDE   =  1.00D+00  THRREF  =  1.00D-05  SPARFAC =  1.00D+00  THRDLP  =  1.00D-07
 THRDIA  =  1.00D-10  THRDLS  =  1.00D-07  THRGPS  =  0.00D+00  THRKEX  =  0.00D+00  THRDIS  =  2.00D-01  THRVAR  =  1.00D-10
 THRLOC  =  1.00D-06  THRGAP  =  1.00D-06  THRLOCT = -1.00D+00  THRGAPT = -1.00D+00  THRORB  =  1.00D-06  THRMLTP =  0.00D+00
 THRCPQCI=  1.00D-10  KEXTA   =  0.00D+00  THRCOARS=  0.00D+00  SYMTOL  =  1.00D-06  GRADTOL =  1.00D-06  THROVL  =  1.00D-08
 THRORTH =  1.00D-08  GRID    =  1.00D-06  GRIDMAX =  1.00D-03  DTMAX   =  0.00D+00  THROCCDE=  1.00D-01  THROCCDE=  1.00D-01



 Input parameters for SORTINT:

 COMPRESS =    0.000000
 C_FINAL  =    1.000000
 DEBUG    =   -1.000000
 C_SORT1  =    0.000000
 C_SEWARD =    0.000000
 THRESH   =    0.000000
 IO       =  molpro                                                          
 SPRI     =    0.000000
 SETTING GEOMTYP        =    XYZ
 ZUNIT=BOHR
 

 Variable memory set to  995000000 words,  buffer space   230000 words

 SETTING BASIS          =    AV5Z


 Recomputing integrals since basis changed


 Using spherical harmonics

 Library entry N      S aug-cc-pV5Z          selected for orbital group  1
 Library entry N      P aug-cc-pV5Z          selected for orbital group  1
 Library entry N      D aug-cc-pV5Z          selected for orbital group  1
 Library entry N      F aug-cc-pV5Z          selected for orbital group  1
 Library entry N      G aug-cc-pV5Z          selected for orbital group  1
 Library entry N      H aug-cc-pV5Z          selected for orbital group  1
 Library entry H      S aug-cc-pV5Z          selected for orbital group  2
 Library entry H      P aug-cc-pV5Z          selected for orbital group  2
 Library entry H      D aug-cc-pV5Z          selected for orbital group  2
 Library entry H      F aug-cc-pV5Z          selected for orbital group  2
 Library entry H      G aug-cc-pV5Z          selected for orbital group  2
 Library entry O      S aug-cc-pV5Z          selected for orbital group  3
 Library entry O      P aug-cc-pV5Z          selected for orbital group  3
 Library entry O      D aug-cc-pV5Z          selected for orbital group  3
 Library entry O      F aug-cc-pV5Z          selected for orbital group  3
 Library entry O      G aug-cc-pV5Z          selected for orbital group  3
 Library entry O      H aug-cc-pV5Z          selected for orbital group  3


 PROGRAM * SEWARD (Integral evaluation for generally contracted gaussian basis sets)     Author: Roland Lindh, 1990

 Geometry written to block  1 of record 700


 Point group  Cs  



 ATOMIC COORDINATES

 NR  ATOM    CHARGE       X              Y              Z

   1  N       7.00    0.000000000   -0.151760860   -1.148953927
   2  H       1.00    0.000000000    1.657809297   -1.925512580
   3  O       8.00    0.000000000    0.035719353    1.123876916

 Bond lengths in Bohr (Angstrom)

 1-2  1.969159082  1-3  2.280550125
     ( 1.042034111)     ( 1.206815154)

 Bond angles

  2-1-3  108.51058714

 NUCLEAR CHARGE:                   16
 NUMBER OF PRIMITIVE AOS:         506
 NUMBER OF SYMMETRY AOS:          371
 NUMBER OF CONTRACTIONS:          334   ( 204A'  + 130A"  )
 NUMBER OF CORE ORBITALS:           2   (   2A'  +   0A"  )
 NUMBER OF VALENCE ORBITALS:        9   (   7A'  +   2A"  )


 NUCLEAR REPULSION ENERGY   30.42646670


 Eigenvalues of metric

         1 0.110E-04 0.169E-04 0.622E-04 0.987E-04 0.104E-03 0.134E-03 0.196E-03 0.223E-03
         2 0.126E-03 0.350E-03 0.111E-02 0.156E-02 0.184E-02 0.249E-02 0.316E-02 0.381E-02


 Contracted 2-electron integrals neglected if value below      1.0D-22

      756977391. INTEGRALS WRITTEN OUT IN  184855 BLOCKS ON RECORD 1290 OF FILE 1


 NUMBER OF SORTED TWO-ELECTRON INTEGRALS:  789027325.     BUFFER LENGTH:  32768
 NUMBER OF SEGMENTS:  25  SEGMENT LENGTH:   31997130      RECORD LENGTH: 524288

 Memory used in sort:      32.55 MW

 SORT1 READ   756977391. AND WROTE   760993280. INTEGRALS IN   2189 RECORDS. CPU TIME:    39.75 SEC, REAL TIME:   295.05 SEC
 SORT2 READ   760993280. AND WROTE   789027325. INTEGRALS IN     25 RECORDS. CPU TIME:    14.86 SEC, REAL TIME:   140.83 SEC

 FILE SIZES:   FILE 1: 12137.5 MBYTE,  FILE 4:  9181.4 MBYTE,   TOTAL:  21318.9 MBYTE

 OPERATOR DM      FOR CENTER  0  COORDINATES:    0.000000    0.000000    0.000000


 **********************************************************************************************************************************
 DATASETS  * FILE   NREC   LENGTH (MB)   RECORD NAMES
              1      19     6374.22       500      610      700      900      950      970     1000      129      960     1100   
                                          VAR    BASINP    GEOM    SYMINP    ZMAT    AOBASIS   BASIS     P2S    ABASIS      S 
                                         1400     1410     1200     1210     1080     1600     1650     1300     1700   
                                           T        V       H0       H01     AOSYM     SMH    MOLCAS    ERIS     OPER   

 PROGRAMS   *        TOTAL       INT
 CPU TIMES  *       167.90    167.81
 REAL TIME  *       640.76 SEC
 DISK USED  *        21.32 GB      
 **********************************************************************************************************************************


 PROGRAM * RHF-SCF (CLOSED SHELL)       Authors: W. Meyer, H.-J. Werner


 NUMBER OF ELECTRONS:       8+    8-
 CONVERGENCE THRESHOLDS:    1.00E-10 (Density)    1.00E-13 (Energy)
 MAX. NUMBER OF ITERATIONS:      500
 INTERPOLATION TYPE:            DIIS
 INTERPOLATION STEPS:              2 (START)      1 (STEP)
 LEVEL SHIFTS:                  0.00 (CLOSED)  0.00 (OPEN) 



 Orbital guess generated from atomic densities. Full valence occupancy:    9   2

 Molecular orbital dump at record        2100.2

 Initial occupancy:   7   1

 ITERATION    DDIFF          GRAD             ENERGY        2-EL.EN.            DIPOLE MOMENTS         DIIS   ORB.
    1      0.000D+00      0.000D+00      -129.79964171    154.087540    0.00000    0.60382   -1.02465    0    start
    2      0.000D+00      0.637D-02      -129.82690629    155.300373    0.00000    0.61037   -0.21360    1    diag
    3      0.397D-02      0.482D-02      -129.84923743    155.427478    0.00000    0.56066   -0.59506    2    diag
    4      0.205D-02      0.769D-03      -129.85004043    155.144794    0.00000    0.56796   -0.53348    3    diag
    5      0.378D-03      0.248D-03      -129.85016420    155.237727    0.00000    0.57310   -0.53596    4    diag
    6      0.155D-03      0.713D-04      -129.85018386    155.221565    0.00000    0.57338   -0.53179    5    diag
    7      0.592D-04      0.355D-04      -129.85018959    155.224311    0.00000    0.57458   -0.52918    6    diag
    8      0.406D-04      0.125D-04      -129.85019024    155.223617    0.00000    0.57463   -0.52816    7    diag
    9      0.156D-04      0.240D-05      -129.85019027    155.223510    0.00000    0.57459   -0.52794    8    diag
   10      0.314D-05      0.543D-06      -129.85019027    155.223493    0.00000    0.57456   -0.52792    9    orth
   11      0.615D-06      0.109D-06      -129.85019027    155.223489    0.00000    0.57455   -0.52791    9    diag
   12      0.115D-06      0.220D-07      -129.85019027    155.223489    0.00000    0.57455   -0.52791    9    diag
   13      0.245D-07      0.574D-08      -129.85019027    155.223489    0.00000    0.57455   -0.52791    9    diag
   14      0.657D-08      0.111D-08      -129.85019027    155.223489    0.00000    0.57455   -0.52791    9    diag
   15      0.120D-08      0.316D-09      -129.85019027    155.223489    0.00000    0.57455   -0.52791    9    diag
   16      0.360D-09      0.952D-10      -129.85019027    155.223489    0.00000    0.57455   -0.52791    9    diag
   17      0.718D-10      0.244D-10      -129.85019027    155.223489    0.00000    0.57455   -0.52791    0    orth

 Final occupancy:   7   1

 !RHF STATE 1.1 Energy               -129.850190273282
 Nuclear energy                        30.42646670
 One-electron energy                 -237.88840146
 Two-electron energy                   77.61174449
 Virial quotient                       -1.00155535
 !RHF STATE 1.1 Dipole moment           0.00000000     0.57454784    -0.52791268
 Dipole moment /Debye                   0.00000000     1.46025929    -1.34173231

 Orbital energies:

         1.1          2.1          3.1          4.1          5.1          6.1          7.1          8.1          9.1
    -20.652718   -15.710559    -1.530200    -0.996876    -0.748611    -0.666502    -0.430584     0.022847     0.065538

         1.2          2.2          3.2
     -0.596406     0.060352     0.091586

 HOMO      7.1    -0.430584 =     -11.7168eV
 LUMO      8.1     0.022847 =       0.6217eV
 LUMO-HOMO         0.453431 =      12.3385eV


 **********************************************************************************************************************************
 DATASETS  * FILE   NREC   LENGTH (MB)   RECORD NAMES
              1      19     6374.22       500      610      700      900      950      970     1000      129      960     1100   
                                          VAR    BASINP    GEOM    SYMINP    ZMAT    AOBASIS   BASIS     P2S    ABASIS      S 
                                         1400     1410     1200     1210     1080     1600     1650     1300     1700   
                                           T        V       H0       H01     AOSYM     SMH    MOLCAS    ERIS     OPER   

              2       4        4.02       700     1000      520     2100   
                                         GEOM     BASIS   MCVARS     RHF  

 PROGRAMS   *        TOTAL        HF       INT
 CPU TIMES  *       230.68     62.78    167.81
 REAL TIME  *       722.94 SEC
 DISK USED  *        21.32 GB      
 **********************************************************************************************************************************


 PROGRAM * CCSD (Closed-shell coupled cluster)     Authors: C. Hampel, H.-J. Werner, 1991, M. Deegan, P.J. Knowles, 1992


 Convergence thresholds:  THRVAR = 1.00D-08  THRDEN = 1.00D-12

 CCSD(T)     terms to be evaluated (factor= 1.000)


 Number of core orbitals:           2 (   2   0 )
 Number of closed-shell orbitals:   6 (   5   1 )
 Number of external orbitals:     326 ( 197 129 )

 Molecular orbitals read from record     2100.2  Type=RHF/CANONICAL (state 1.1)

 Number of N-1 electron functions:               6
 Number of N-2 electron functions:              21
 Number of singly external CSFs:              1114
 Number of doubly external CSFs:            975958
 Total number of CSFs:                      977073

 Length of J-op  integral file:               0.00 MB
 Length of K-op  integral file:               4.07 MB
 Length of 3-ext integral record:             0.00 MB

 Memory could be reduced to 151.33 Mwords without degradation in triples

 Integral transformation finished. Total CPU:  10.36 sec, npass=  1  Memory used:  41.21 MW

 Reference energy:                   -129.85019027

 MP2 singlet pair energy:              -0.31083509
 MP2 triplet pair energy:              -0.17179832
 MP2 correlation energy:               -0.48263342
 MP2 total energy:                   -130.33282369

 SCS-MP2 correlation energy:           -0.47989885   (PS=  1.200000  PT=  0.333333)
 SCS-MP2 total energy:               -130.33008912

 ITER.      SQ.NORM     CORR.ENERGY   TOTAL ENERGY   ENERGY CHANGE        DEN1      VAR(S)    VAR(P)  DIIS     TIME  TIME/IT
   1      1.12013840    -0.47970372  -130.32989399     0.00292970     0.01946117  0.31D-02  0.32D-02  1  1    19.34     9.74
   2      1.13068098    -0.47960501  -130.32979528     0.00009871    -0.01259456  0.10D-03  0.48D-03  2  2    28.28     9.89
   3      1.13676198    -0.47997909  -130.33016937    -0.00037409    -0.00297568  0.47D-04  0.56D-04  3  3    37.11     9.94
   4      1.13952361    -0.47997841  -130.33016868     0.00000069    -0.00095859  0.43D-05  0.99D-05  4  4    46.70    10.14
   5      1.14063423    -0.48000682  -130.33019709    -0.00002841    -0.00024637  0.11D-05  0.17D-05  5  5    57.81    10.58
   6      1.14098566    -0.47999540  -130.33018568     0.00001142    -0.00004968  0.11D-06  0.41D-06  6  6    68.92    10.88
   7      1.14106033    -0.47999519  -130.33018547     0.00000021     0.00000345  0.15D-07  0.94D-07  6  1    80.11    11.10
   8      1.14108510    -0.47999527  -130.33018555    -0.00000008    -0.00000298  0.35D-08  0.19D-07  6  2    91.33    11.27
   9      1.14109334    -0.47999475  -130.33018502     0.00000053    -0.00000020  0.23D-08  0.20D-08  6  3   102.54    11.39
  10      1.14108871    -0.47999548  -130.33018576    -0.00000074     0.00000159  0.35D-09  0.32D-09  6  5   113.74    11.49
  11      1.14109064    -0.47999547  -130.33018574     0.00000002    -0.00000036  0.99D-10  0.27D-10  6  4   125.00    11.58
  12      1.14109020    -0.47999553  -130.33018581    -0.00000007     0.00000005  0.18D-10  0.62D-11  6  6   136.21    11.65
  13      1.14109000    -0.47999554  -130.33018581    -0.00000000    -0.00000003  0.30D-11  0.90D-12  6  1   147.41    11.71
  14      1.14108974    -0.47999555  -130.33018582    -0.00000001     0.00000004  0.43D-12  0.16D-12  6  3   158.56    11.76
  15      1.14108967    -0.47999555  -130.33018582    -0.00000000     0.00000001  0.12D-12  0.21D-13  6  2   169.84    11.80
  16      1.14108966    -0.47999555  -130.33018582     0.00000000     0.00000000  0.31D-13  0.81D-14  6  4   181.00    11.84
  17      1.14108966    -0.47999555  -130.33018582    -0.00000000    -0.00000000  0.18D-14  0.10D-14  6  5   192.14    11.87
  18      1.14108966    -0.47999555  -130.33018582     0.00000000    -0.00000000  0.28D-15  0.28D-15  6  6   203.30    11.90
  19      1.14108967    -0.47999555  -130.33018582     0.00000000    -0.00000000  0.50D-16  0.40D-16  6  1   214.57    11.93
  20      1.14108967    -0.47999555  -130.33018582     0.00000000    -0.00000000  0.11D-16  0.59D-17  6  3   225.67    11.95
  21      1.14108967    -0.47999555  -130.33018582     0.00000000     0.00000000  0.21D-17  0.10D-17  6  2   236.88    11.98
  22      1.14108967    -0.47999555  -130.33018582    -0.00000000     0.00000000  0.41D-18  0.17D-18  6  4   248.12    11.99
  23      1.14108967    -0.47999555  -130.33018582    -0.00000000     0.00000000  0.11D-18  0.50D-19  6  5   259.28    12.01
  24      1.14108967    -0.47999555  -130.33018582    -0.00000000     0.00000000  0.48D-19  0.24D-19  6  6   270.56    12.03
  25      1.14108967    -0.47999555  -130.33018582     0.00000000     0.00000000  0.21D-19  0.13D-19  6  1   281.73    12.04

 Norm of t1 vector:      0.07573697      S-energy:     0.00000000      T1 diagnostic:  0.01545974
                                                                       D1 diagnostic:  0.04205456

 Doubles amplitudes (print threshold =  0.500E-01):

         I         J         SYM. A    SYM. B    A         B      T(IJ, AB)

         6         6         2         2         1         1     -0.07836514
         6         6         2         2         1         2      0.05310582
         6         6         2         2         2         1      0.05310582


 Total CPU time for triples:     90.25 sec


 RESULTS
 =======

  Reference energy                   -129.850190273283
  CCSD singlet pair energy             -0.332886172772
  CCSD triplet pair energy             -0.147109377451
  CCSD correlation energy              -0.479995550221

  Triples (T) contribution             -0.022816615557
  Total correlation energy             -0.502812165777

  CCSD total energy                  -130.330185823503
  CCSD[T] energy                     -130.354067323735
  CCSD-T energy                      -130.352627596206
 !CCSD(T) total energy               -130.353002439060

 Timing summary (sec):

 STEP                 CPU(USER)    SYS     CPU(TOT)    WALL
 Transformation         10.41      1.72     12.13     12.37
 CCSD iterations       271.32     29.63    300.95    300.99
 Triples                90.25      1.63     91.88     91.90

 Program statistics:

 Available memory in ccsd:               994999756
 Min. memory needed in ccsd:               3348832
 Max. memory used in ccsd:                 4143652
 Max. memory used in cckext:               8340089 (25 integral passes)



 **********************************************************************************************************************************
 DATASETS  * FILE   NREC   LENGTH (MB)   RECORD NAMES
              1      20     6809.41       500      610      700      900      950      970     1000      129      960     1100   
                                          VAR    BASINP    GEOM    SYMINP    ZMAT    AOBASIS   BASIS     P2S    ABASIS      S 
                                         1400     1410     1200     1210     1080     1600     1650     1300     1700     1380   
                                           T        V       H0       H01     AOSYM     SMH    MOLCAS    ERIS     OPER     JKOP   

              2       4        4.02       700     1000      520     2100   
                                         GEOM     BASIS   MCVARS     RHF  

 PROGRAMS   *        TOTAL   CCSD(T)        HF       INT
 CPU TIMES  *       602.70    372.02     62.78    167.81
 REAL TIME  *      1128.50 SEC
 DISK USED  *        21.32 GB      
 **********************************************************************************************************************************

 CCSD(T)/aug-cc-pV5Z energy=   -130.353002439060

        CCSD(T)         HF-SCF  
   -130.35300244   -129.85019027
 **********************************************************************************************************************************
 Molpro calculation terminated
 Variable memory released
