
 Primary working directories    : /tmp/r2666/234685.maple
 Secondary working directories  : /tmp/r2666/234685.maple
 Wavefunction directory         : /ddn/home4/r2666/wfu/
 Main file repository           : /tmp/r2666/234685.maple/

 SHA1      : d5ffa45e93fdbca01ffc919aa182cfdae0147319
 NAME      : 2015.1.35
 ARCHNAME  : linux/x86_64
 FC        : /opt/intel/composer_xe_2015.1.133/bin/intel64/ifort
 BLASLIB   : -Wl,-_start-group /opt/intel/mkl/lib/intel64/libmkl_intel_ilp64.a /opt/intel/mkl/lib/intel64/libmkl_intel_thread.a /opt/intel/mkl/lib/intel64/libmkl_core.a -Wl,-_end-group
 id        : olemiss

 Nodes     nprocs
 cn089        1

 Using customized tuning parameters: mindgm=1; mindgv=20; mindgc=4; mindgr=1; noblas=0; minvec=7
 default implementation of scratch files=df  

 ***,hno CCSD(T)/TZ-F12 QFF
 memory, 995, m;
 gthresh,energy=1.d-12,zero=1.d-22,oneint=1.d-22,twoint=1.d-22;
 gthresh,optgrad=1.d-8,optstep=1.d-8;
 nocompress;
 geomtyp=xyz
 bohr
 geometry={
 3
         57        57
 N        0.0000000000       -0.1594673210       -1.1396160791
 H        0.0000000000        1.6655362758       -1.9281145832
 O        0.0000000000        0.0356988353        1.1171410712
 }
 
 basis=av5z
   {hf,maxit=500;accu,20;}
 {ccsd(t),nocheck,maxit=250;orbital,IGNORE_ERROR;}

 Variables initialized (889), CPU time= 0.01 sec
 Commands  initialized (702), CPU time= 0.01 sec, 572 directives.
 Default parameters read. Elapsed time= 0.04 sec

 Checking input...
 Passed
1


                                         ***  PROGRAM SYSTEM MOLPRO  ***
                                       Copyright, TTI GmbH Stuttgart, 2015
                                    Version 2015.1 linked Jul  9 2018 13:16:40


 **********************************************************************************************************************************
 LABEL *   hno CCSD(T)/TZ-F12 QFF                                                        
  64 bit serial version                                                                  DATE: 08-Feb-20          TIME: 17:25:40  
 **********************************************************************************************************************************

 SHA1:             d5ffa45e93fdbca01ffc919aa182cfdae0147319
 **********************************************************************************************************************************

 THRESHOLDS:

 ZERO    =  1.00D-22  ONEINT  =  1.00D-22  TWOINT  =  1.00D-22  PREFAC  =  1.00D-14  LOCALI  =  1.00D-09  EORDER  =  1.00D-04
 ENERGY  =  1.00D-12  ETEST   =  0.00D+00  EDENS   =  0.00D+00  THRDEDEF=  1.00D-06  GRADIENT=  1.00D-02  STEP    =  1.00D-03
 ORBITAL =  1.00D-05  CIVEC   =  1.00D-05  COEFF   =  1.00D-04  PRINTCI =  5.00D-02  PUNCHCI =  9.90D+01  OPTGRAD =  3.00D-04
 OPTENERG=  1.00D-06  OPTSTEP =  3.00D-04  THRGRAD =  1.00D-10  COMPRESS=  1.00D-11  VARMIN  =  1.00D-07  VARMAX  =  1.00D-03
 THRDOUB =  0.00D+00  THRDIV  =  1.00D-05  THRRED  =  1.00D-07  THRPSP  =  1.00D+00  THRDC   =  1.00D-10  THRCS   =  1.00D-10
 THRNRM  =  1.00D-08  THREQ   =  0.00D+00  THRDE   =  1.00D+00  THRREF  =  1.00D-05  SPARFAC =  1.00D+00  THRDLP  =  1.00D-07
 THRDIA  =  1.00D-10  THRDLS  =  1.00D-07  THRGPS  =  0.00D+00  THRKEX  =  0.00D+00  THRDIS  =  2.00D-01  THRVAR  =  1.00D-10
 THRLOC  =  1.00D-06  THRGAP  =  1.00D-06  THRLOCT = -1.00D+00  THRGAPT = -1.00D+00  THRORB  =  1.00D-06  THRMLTP =  0.00D+00
 THRCPQCI=  1.00D-10  KEXTA   =  0.00D+00  THRCOARS=  0.00D+00  SYMTOL  =  1.00D-06  GRADTOL =  1.00D-06  THROVL  =  1.00D-08
 THRORTH =  1.00D-08  GRID    =  1.00D-06  GRIDMAX =  1.00D-03  DTMAX   =  0.00D+00  THROCCDE=  1.00D-01  THROCCDE=  1.00D-01



 THRESHOLDS:

 ZERO    =  1.00D-22  ONEINT  =  1.00D-22  TWOINT  =  1.00D-22  PREFAC  =  1.00D-14  LOCALI  =  1.00D-09  EORDER  =  1.00D-04
 ENERGY  =  1.00D-12  ETEST   =  0.00D+00  EDENS   =  0.00D+00  THRDEDEF=  1.00D-06  GRADIENT=  1.00D-02  STEP    =  1.00D-03
 ORBITAL =  1.00D-05  CIVEC   =  1.00D-05  COEFF   =  1.00D-04  PRINTCI =  5.00D-02  PUNCHCI =  9.90D+01  OPTGRAD =  1.00D-08
 OPTENERG=  1.00D-06  OPTSTEP =  1.00D-08  THRGRAD =  1.00D-10  COMPRESS=  1.00D-11  VARMIN  =  1.00D-07  VARMAX  =  1.00D-03
 THRDOUB =  0.00D+00  THRDIV  =  1.00D-05  THRRED  =  1.00D-07  THRPSP  =  1.00D+00  THRDC   =  1.00D-10  THRCS   =  1.00D-10
 THRNRM  =  1.00D-08  THREQ   =  0.00D+00  THRDE   =  1.00D+00  THRREF  =  1.00D-05  SPARFAC =  1.00D+00  THRDLP  =  1.00D-07
 THRDIA  =  1.00D-10  THRDLS  =  1.00D-07  THRGPS  =  0.00D+00  THRKEX  =  0.00D+00  THRDIS  =  2.00D-01  THRVAR  =  1.00D-10
 THRLOC  =  1.00D-06  THRGAP  =  1.00D-06  THRLOCT = -1.00D+00  THRGAPT = -1.00D+00  THRORB  =  1.00D-06  THRMLTP =  0.00D+00
 THRCPQCI=  1.00D-10  KEXTA   =  0.00D+00  THRCOARS=  0.00D+00  SYMTOL  =  1.00D-06  GRADTOL =  1.00D-06  THROVL  =  1.00D-08
 THRORTH =  1.00D-08  GRID    =  1.00D-06  GRIDMAX =  1.00D-03  DTMAX   =  0.00D+00  THROCCDE=  1.00D-01  THROCCDE=  1.00D-01



 Input parameters for SORTINT:

 COMPRESS =    0.000000
 C_FINAL  =    1.000000
 DEBUG    =   -1.000000
 C_SORT1  =    0.000000
 C_SEWARD =    0.000000
 THRESH   =    0.000000
 IO       =  molpro                                                          
 SPRI     =    0.000000
 SETTING GEOMTYP        =    XYZ
 ZUNIT=BOHR
 

 Variable memory set to  995000000 words,  buffer space   230000 words

 SETTING BASIS          =    AV5Z


 Recomputing integrals since basis changed


 Using spherical harmonics

 Library entry N      S aug-cc-pV5Z          selected for orbital group  1
 Library entry N      P aug-cc-pV5Z          selected for orbital group  1
 Library entry N      D aug-cc-pV5Z          selected for orbital group  1
 Library entry N      F aug-cc-pV5Z          selected for orbital group  1
 Library entry N      G aug-cc-pV5Z          selected for orbital group  1
 Library entry N      H aug-cc-pV5Z          selected for orbital group  1
 Library entry H      S aug-cc-pV5Z          selected for orbital group  2
 Library entry H      P aug-cc-pV5Z          selected for orbital group  2
 Library entry H      D aug-cc-pV5Z          selected for orbital group  2
 Library entry H      F aug-cc-pV5Z          selected for orbital group  2
 Library entry H      G aug-cc-pV5Z          selected for orbital group  2
 Library entry O      S aug-cc-pV5Z          selected for orbital group  3
 Library entry O      P aug-cc-pV5Z          selected for orbital group  3
 Library entry O      D aug-cc-pV5Z          selected for orbital group  3
 Library entry O      F aug-cc-pV5Z          selected for orbital group  3
 Library entry O      G aug-cc-pV5Z          selected for orbital group  3
 Library entry O      H aug-cc-pV5Z          selected for orbital group  3


 PROGRAM * SEWARD (Integral evaluation for generally contracted gaussian basis sets)     Author: Roland Lindh, 1990

 Geometry written to block  1 of record 700


 Point group  Cs  



 ATOMIC COORDINATES

 NR  ATOM    CHARGE       X              Y              Z

   1  N       7.00    0.000000000   -0.159467321   -1.139616079
   2  H       1.00    0.000000000    1.665536276   -1.928114583
   3  O       8.00    0.000000000    0.035698835    1.117141071

 Bond lengths in Bohr (Angstrom)

 1-2  1.988056342  1-3  2.265180493
     ( 1.052034110)     ( 1.198681895)

 Bond angles

  2-1-3  108.42422233

 NUCLEAR CHARGE:                   16
 NUMBER OF PRIMITIVE AOS:         506
 NUMBER OF SYMMETRY AOS:          371
 NUMBER OF CONTRACTIONS:          334   ( 204A'  + 130A"  )
 NUMBER OF CORE ORBITALS:           2   (   2A'  +   0A"  )
 NUMBER OF VALENCE ORBITALS:        9   (   7A'  +   2A"  )


 NUCLEAR REPULSION ENERGY   30.55928983


 Eigenvalues of metric

         1 0.111E-04 0.168E-04 0.630E-04 0.971E-04 0.102E-03 0.133E-03 0.197E-03 0.223E-03
         2 0.124E-03 0.362E-03 0.109E-02 0.151E-02 0.191E-02 0.244E-02 0.324E-02 0.386E-02


 Contracted 2-electron integrals neglected if value below      1.0D-22

      756977454. INTEGRALS WRITTEN OUT IN  184855 BLOCKS ON RECORD 1290 OF FILE 1


 NUMBER OF SORTED TWO-ELECTRON INTEGRALS:  789027325.     BUFFER LENGTH:  32768
 NUMBER OF SEGMENTS:  25  SEGMENT LENGTH:   31997130      RECORD LENGTH: 524288

 Memory used in sort:      32.55 MW

 SORT1 READ   756977454. AND WROTE   760993343. INTEGRALS IN   2189 RECORDS. CPU TIME:    27.72 SEC, REAL TIME:   100.58 SEC
 SORT2 READ   760993343. AND WROTE   789027325. INTEGRALS IN     25 RECORDS. CPU TIME:    10.53 SEC, REAL TIME:    38.74 SEC

 FILE SIZES:   FILE 1: 12137.5 MBYTE,  FILE 4:  9181.4 MBYTE,   TOTAL:  21318.9 MBYTE

 OPERATOR DM      FOR CENTER  0  COORDINATES:    0.000000    0.000000    0.000000


 **********************************************************************************************************************************
 DATASETS  * FILE   NREC   LENGTH (MB)   RECORD NAMES
              1      19     6374.22       500      610      700      900      950      970     1000      129      960     1100   
                                          VAR    BASINP    GEOM    SYMINP    ZMAT    AOBASIS   BASIS     P2S    ABASIS      S 
                                         1400     1410     1200     1210     1080     1600     1650     1300     1700   
                                           T        V       H0       H01     AOSYM     SMH    MOLCAS    ERIS     OPER   

 PROGRAMS   *        TOTAL       INT
 CPU TIMES  *       129.32    129.23
 REAL TIME  *       237.08 SEC
 DISK USED  *        21.32 GB      
 **********************************************************************************************************************************


 PROGRAM * RHF-SCF (CLOSED SHELL)       Authors: W. Meyer, H.-J. Werner


 NUMBER OF ELECTRONS:       8+    8-
 CONVERGENCE THRESHOLDS:    1.00E-10 (Density)    1.00E-13 (Energy)
 MAX. NUMBER OF ITERATIONS:      500
 INTERPOLATION TYPE:            DIIS
 INTERPOLATION STEPS:              2 (START)      1 (STEP)
 LEVEL SHIFTS:                  0.00 (CLOSED)  0.00 (OPEN) 



 Orbital guess generated from atomic densities. Full valence occupancy:    9   2

 Molecular orbital dump at record        2100.2

 Initial occupancy:   7   1

 ITERATION    DDIFF          GRAD             ENERGY        2-EL.EN.            DIPOLE MOMENTS         DIIS   ORB.
    1      0.000D+00      0.000D+00      -129.80106704    154.319125    0.00000    0.59314   -0.99968    0    start
    2      0.000D+00      0.635D-02      -129.82854500    155.557868    0.00000    0.60445   -0.21237    1    diag
    3      0.393D-02      0.474D-02      -129.85003349    155.664307    0.00000    0.55311   -0.58126    2    diag
    4      0.201D-02      0.760D-03      -129.85081888    155.386794    0.00000    0.56057   -0.52116    3    diag
    5      0.374D-03      0.246D-03      -129.85094118    155.479732    0.00000    0.56584   -0.52385    4    diag
    6      0.154D-03      0.711D-04      -129.85096068    155.463545    0.00000    0.56616   -0.51980    5    diag
    7      0.590D-04      0.351D-04      -129.85096624    155.466422    0.00000    0.56741   -0.51731    6    diag
    8      0.402D-04      0.120D-04      -129.85096683    155.465748    0.00000    0.56746   -0.51635    7    diag
    9      0.148D-04      0.230D-05      -129.85096686    155.465643    0.00000    0.56743   -0.51614    8    diag
   10      0.294D-05      0.530D-06      -129.85096686    155.465625    0.00000    0.56740   -0.51611    9    orth
   11      0.599D-06      0.108D-06      -129.85096686    155.465621    0.00000    0.56739   -0.51611    9    diag
   12      0.115D-06      0.217D-07      -129.85096686    155.465621    0.00000    0.56739   -0.51611    9    diag
   13      0.250D-07      0.560D-08      -129.85096686    155.465621    0.00000    0.56739   -0.51611    9    diag
   14      0.659D-08      0.110D-08      -129.85096686    155.465621    0.00000    0.56739   -0.51611    9    diag
   15      0.122D-08      0.321D-09      -129.85096686    155.465621    0.00000    0.56739   -0.51611    9    diag
   16      0.365D-09      0.992D-10      -129.85096686    155.465621    0.00000    0.56739   -0.51611    9    diag
   17      0.715D-10      0.271D-10      -129.85096686    155.465621    0.00000    0.56739   -0.51611    9    diag
   18      0.213D-10      0.923D-11      -129.85096686    155.465621    0.00000    0.56739   -0.51611    9    diag
   19      0.208D-10      0.234D-11      -129.85096686    155.465621    0.00000    0.56739   -0.51611    9    fixocc
   20      0.243D-10      0.615D-12      -129.85096686    155.465621    0.00000    0.56739   -0.51611    9    orth
   21      0.136D-10      0.416D-12      -129.85096686    155.465621    0.00000    0.56739   -0.51611    9    diag
   22      0.734D-11      0.321D-12      -129.85096686    155.465621    0.00000    0.56739   -0.51611    9    diag
   23      0.411D-11      0.302D-12      -129.85096686    155.465621    0.00000    0.56739   -0.51611    0    orth

 Final occupancy:   7   1

 !RHF STATE 1.1 Energy               -129.850966857241
 Nuclear energy                        30.55928983
 One-electron energy                 -238.14306719
 Two-electron energy                   77.73281050
 Virial quotient                       -1.00142456
 !RHF STATE 1.1 Dipole moment           0.00000000     0.56738613    -0.51610580
 Dipole moment /Debye                   0.00000000     1.44205723    -1.31172419

 Orbital energies:

         1.1          2.1          3.1          4.1          5.1          6.1          7.1          8.1          9.1
    -20.652107   -15.710534    -1.536852    -0.992359    -0.750029    -0.668834    -0.427532     0.022944     0.065555

         1.2          2.2          3.2
     -0.600476     0.061967     0.092481

 HOMO      7.1    -0.427532 =     -11.6337eV
 LUMO      8.1     0.022944 =       0.6243eV
 LUMO-HOMO         0.450475 =      12.2581eV


 **********************************************************************************************************************************
 DATASETS  * FILE   NREC   LENGTH (MB)   RECORD NAMES
              1      19     6374.22       500      610      700      900      950      970     1000      129      960     1100   
                                          VAR    BASINP    GEOM    SYMINP    ZMAT    AOBASIS   BASIS     P2S    ABASIS      S 
                                         1400     1410     1200     1210     1080     1600     1650     1300     1700   
                                           T        V       H0       H01     AOSYM     SMH    MOLCAS    ERIS     OPER   

              2       4        4.02       700     1000      520     2100   
                                         GEOM     BASIS   MCVARS     RHF  

 PROGRAMS   *        TOTAL        HF       INT
 CPU TIMES  *       205.55     76.23    129.23
 REAL TIME  *       337.99 SEC
 DISK USED  *        21.32 GB      
 **********************************************************************************************************************************


 PROGRAM * CCSD (Closed-shell coupled cluster)     Authors: C. Hampel, H.-J. Werner, 1991, M. Deegan, P.J. Knowles, 1992


 Convergence thresholds:  THRVAR = 1.00D-08  THRDEN = 1.00D-12

 CCSD(T)     terms to be evaluated (factor= 1.000)


 Number of core orbitals:           2 (   2   0 )
 Number of closed-shell orbitals:   6 (   5   1 )
 Number of external orbitals:     326 ( 197 129 )

 Molecular orbitals read from record     2100.2  Type=RHF/CANONICAL (state 1.1)

 Number of N-1 electron functions:               6
 Number of N-2 electron functions:              21
 Number of singly external CSFs:              1114
 Number of doubly external CSFs:            975958
 Total number of CSFs:                      977073

 Length of J-op  integral file:               0.00 MB
 Length of K-op  integral file:               4.07 MB
 Length of 3-ext integral record:             0.00 MB

 Memory could be reduced to 151.33 Mwords without degradation in triples

 Integral transformation finished. Total CPU:  10.47 sec, npass=  1  Memory used:  41.21 MW

 Reference energy:                   -129.85096686

 MP2 singlet pair energy:              -0.31023803
 MP2 triplet pair energy:              -0.17138752
 MP2 correlation energy:               -0.48162555
 MP2 total energy:                   -130.33259240

 SCS-MP2 correlation energy:           -0.47892676   (PS=  1.200000  PT=  0.333333)
 SCS-MP2 total energy:               -130.32989362

 ITER.      SQ.NORM     CORR.ENERGY   TOTAL ENERGY   ENERGY CHANGE        DEN1      VAR(S)    VAR(P)  DIIS     TIME  TIME/IT
   1      1.11960593    -0.47899108  -130.32995794     0.00263447     0.01890150  0.30D-02  0.31D-02  1  1    19.07     9.64
   2      1.13000602    -0.47895376  -130.32992062     0.00003732    -0.01243777  0.10D-03  0.47D-03  2  2    27.96     9.77
   3      1.13598599    -0.47932168  -130.33028853    -0.00036791    -0.00294867  0.45D-04  0.54D-04  3  3    36.71     9.83
   4      1.13867153    -0.47931952  -130.33028638     0.00000216    -0.00094069  0.42D-05  0.96D-05  4  4    45.64     9.86
   5      1.13974189    -0.47934706  -130.33031391    -0.00002754    -0.00023820  0.11D-05  0.16D-05  5  5    54.38     9.88
   6      1.14008302    -0.47933637  -130.33030322     0.00001069    -0.00004790  0.11D-06  0.40D-06  6  6    63.10     9.89
   7      1.14015866    -0.47933593  -130.33030279     0.00000044     0.00000286  0.17D-07  0.90D-07  6  1    71.89     9.90
   8      1.14018349    -0.47933606  -130.33030291    -0.00000013    -0.00000291  0.37D-08  0.18D-07  6  2    80.67     9.91
   9      1.14019197    -0.47933553  -130.33030239     0.00000053    -0.00000024  0.21D-08  0.18D-08  6  3    89.43     9.91
  10      1.14018763    -0.47933624  -130.33030309    -0.00000070     0.00000150  0.33D-09  0.29D-09  6  5    98.01     9.91
  11      1.14018938    -0.47933623  -130.33030309     0.00000001    -0.00000030  0.92D-10  0.25D-10  6  4   106.83     9.91
  12      1.14018895    -0.47933629  -130.33030315    -0.00000006     0.00000005  0.17D-10  0.58D-11  6  6   115.55     9.92
  13      1.14018874    -0.47933630  -130.33030315    -0.00000000    -0.00000003  0.30D-11  0.88D-12  6  1   124.45     9.92
  14      1.14018848    -0.47933630  -130.33030316    -0.00000001     0.00000004  0.47D-12  0.16D-12  6  3   133.35     9.92
  15      1.14018841    -0.47933631  -130.33030317    -0.00000000     0.00000001  0.12D-12  0.22D-13  6  2   142.17     9.92
  16      1.14018840    -0.47933631  -130.33030317     0.00000000     0.00000000  0.31D-13  0.87D-14  6  4   151.00     9.93
  17      1.14018840    -0.47933631  -130.33030317    -0.00000000    -0.00000000  0.17D-14  0.11D-14  6  5   159.76     9.93
  18      1.14018840    -0.47933631  -130.33030317     0.00000000    -0.00000000  0.27D-15  0.30D-15  6  6   168.63     9.93
  19      1.14018841    -0.47933631  -130.33030316     0.00000000    -0.00000000  0.34D-16  0.44D-16  6  2   177.43     9.93
  20      1.14018841    -0.47933631  -130.33030316     0.00000000    -0.00000000  0.88D-17  0.61D-17  6  1   186.08     9.93
  21      1.14018841    -0.47933631  -130.33030316    -0.00000000     0.00000000  0.15D-17  0.88D-18  6  3   195.01     9.93
  22      1.14018841    -0.47933631  -130.33030316    -0.00000000     0.00000000  0.33D-18  0.15D-18  6  4   203.84     9.93
  23      1.14018841    -0.47933631  -130.33030316    -0.00000000     0.00000000  0.10D-18  0.50D-19  6  5   212.69     9.93
  24      1.14018841    -0.47933631  -130.33030316    -0.00000000     0.00000000  0.37D-19  0.20D-19  6  6   221.54     9.93
  25      1.14018841    -0.47933631  -130.33030316     0.00000000    -0.00000000  0.24D-19  0.13D-19  6  2   230.24     9.93

 Norm of t1 vector:      0.07479505      S-energy:    -0.00000000      T1 diagnostic:  0.01526748
                                                                       D1 diagnostic:  0.04101577

 Doubles amplitudes (print threshold =  0.500E-01):

         I         J         SYM. A    SYM. B    A         B      T(IJ, AB)

         6         6         2         2         1         1     -0.07210223
         6         6         2         2         1         2      0.05280344
         6         6         2         2         2         1      0.05280344


 Total CPU time for triples:     89.02 sec


 RESULTS
 =======

  Reference energy                   -129.850966857242
  CCSD singlet pair energy             -0.332308256400
  CCSD triplet pair energy             -0.147028051235
  CCSD correlation energy              -0.479336307638

  Triples (T) contribution             -0.022625841897
  Total correlation energy             -0.501962149535

  CCSD total energy                  -130.330303164879
  CCSD[T] energy                     -130.353968598163
  CCSD-T energy                      -130.352559179729
 !CCSD(T) total energy               -130.352929006776

 Timing summary (sec):

 STEP                 CPU(USER)    SYS     CPU(TOT)    WALL
 Transformation         10.52      1.49     12.01     12.01
 CCSD iterations       219.73     28.48    248.21    248.24
 Triples                89.02      1.81     90.83     90.84

 Program statistics:

 Available memory in ccsd:               994999756
 Min. memory needed in ccsd:               3348832
 Max. memory used in ccsd:                 4143652
 Max. memory used in cckext:               8340089 (25 integral passes)



 **********************************************************************************************************************************
 DATASETS  * FILE   NREC   LENGTH (MB)   RECORD NAMES
              1      20     6809.41       500      610      700      900      950      970     1000      129      960     1100   
                                          VAR    BASINP    GEOM    SYMINP    ZMAT    AOBASIS   BASIS     P2S    ABASIS      S 
                                         1400     1410     1200     1210     1080     1600     1650     1300     1700     1380   
                                           T        V       H0       H01     AOSYM     SMH    MOLCAS    ERIS     OPER     JKOP   

              2       4        4.02       700     1000      520     2100   
                                         GEOM     BASIS   MCVARS     RHF  

 PROGRAMS   *        TOTAL   CCSD(T)        HF       INT
 CPU TIMES  *       524.85    319.29     76.23    129.23
 REAL TIME  *       689.12 SEC
 DISK USED  *        21.32 GB      
 **********************************************************************************************************************************

 CCSD(T)/aug-cc-pV5Z energy=   -130.352929006776

        CCSD(T)         HF-SCF  
   -130.35292901   -129.85096686
 **********************************************************************************************************************************
 Molpro calculation terminated
 Variable memory released
