
 Primary working directories    : /tmp/r2666/234735.maple
 Secondary working directories  : /tmp/r2666/234735.maple
 Wavefunction directory         : /ddn/home4/r2666/wfu/
 Main file repository           : /tmp/r2666/234735.maple/

 SHA1      : d5ffa45e93fdbca01ffc919aa182cfdae0147319
 NAME      : 2015.1.35
 ARCHNAME  : linux/x86_64
 FC        : /opt/intel/composer_xe_2015.1.133/bin/intel64/ifort
 BLASLIB   : -Wl,-_start-group /opt/intel/mkl/lib/intel64/libmkl_intel_ilp64.a /opt/intel/mkl/lib/intel64/libmkl_intel_thread.a /opt/intel/mkl/lib/intel64/libmkl_core.a -Wl,-_end-group
 id        : olemiss

 Nodes     nprocs
 cn040        1

 Using customized tuning parameters: mindgm=1; mindgv=20; mindgc=4; mindgr=1; noblas=0; minvec=7
 default implementation of scratch files=df  

 ***,hno CCSD(T)/TZ-F12 QFF
 memory, 995, m;
 gthresh,energy=1.d-12,zero=1.d-22,oneint=1.d-22,twoint=1.d-22;
 gthresh,optgrad=1.d-8,optstep=1.d-8;
 nocompress;
 geomtyp=xyz
 bohr
 geometry={
 3
        107       107
 N        0.0000000000       -0.1611388897       -1.1449743018
 H        0.0000000000        1.6719815317       -1.9385079392
 O        0.0000000000        0.0309251480        1.1328926500
 }
 
 basis=av5z
   {hf,maxit=500;accu,20;}
 {ccsd(t),nocheck,maxit=250;orbital,IGNORE_ERROR;}

 Variables initialized (889), CPU time= 0.00 sec
 Commands  initialized (702), CPU time= 0.01 sec, 572 directives.
 Default parameters read. Elapsed time= 0.06 sec

 Checking input...
 Passed
1


                                         ***  PROGRAM SYSTEM MOLPRO  ***
                                       Copyright, TTI GmbH Stuttgart, 2015
                                    Version 2015.1 linked Jul  9 2018 13:16:40


 **********************************************************************************************************************************
 LABEL *   hno CCSD(T)/TZ-F12 QFF                                                        
  64 bit serial version                                                                  DATE: 08-Feb-20          TIME: 17:40:59  
 **********************************************************************************************************************************

 SHA1:             d5ffa45e93fdbca01ffc919aa182cfdae0147319
 **********************************************************************************************************************************

 THRESHOLDS:

 ZERO    =  1.00D-22  ONEINT  =  1.00D-22  TWOINT  =  1.00D-22  PREFAC  =  1.00D-14  LOCALI  =  1.00D-09  EORDER  =  1.00D-04
 ENERGY  =  1.00D-12  ETEST   =  0.00D+00  EDENS   =  0.00D+00  THRDEDEF=  1.00D-06  GRADIENT=  1.00D-02  STEP    =  1.00D-03
 ORBITAL =  1.00D-05  CIVEC   =  1.00D-05  COEFF   =  1.00D-04  PRINTCI =  5.00D-02  PUNCHCI =  9.90D+01  OPTGRAD =  3.00D-04
 OPTENERG=  1.00D-06  OPTSTEP =  3.00D-04  THRGRAD =  1.00D-10  COMPRESS=  1.00D-11  VARMIN  =  1.00D-07  VARMAX  =  1.00D-03
 THRDOUB =  0.00D+00  THRDIV  =  1.00D-05  THRRED  =  1.00D-07  THRPSP  =  1.00D+00  THRDC   =  1.00D-10  THRCS   =  1.00D-10
 THRNRM  =  1.00D-08  THREQ   =  0.00D+00  THRDE   =  1.00D+00  THRREF  =  1.00D-05  SPARFAC =  1.00D+00  THRDLP  =  1.00D-07
 THRDIA  =  1.00D-10  THRDLS  =  1.00D-07  THRGPS  =  0.00D+00  THRKEX  =  0.00D+00  THRDIS  =  2.00D-01  THRVAR  =  1.00D-10
 THRLOC  =  1.00D-06  THRGAP  =  1.00D-06  THRLOCT = -1.00D+00  THRGAPT = -1.00D+00  THRORB  =  1.00D-06  THRMLTP =  0.00D+00
 THRCPQCI=  1.00D-10  KEXTA   =  0.00D+00  THRCOARS=  0.00D+00  SYMTOL  =  1.00D-06  GRADTOL =  1.00D-06  THROVL  =  1.00D-08
 THRORTH =  1.00D-08  GRID    =  1.00D-06  GRIDMAX =  1.00D-03  DTMAX   =  0.00D+00  THROCCDE=  1.00D-01  THROCCDE=  1.00D-01



 THRESHOLDS:

 ZERO    =  1.00D-22  ONEINT  =  1.00D-22  TWOINT  =  1.00D-22  PREFAC  =  1.00D-14  LOCALI  =  1.00D-09  EORDER  =  1.00D-04
 ENERGY  =  1.00D-12  ETEST   =  0.00D+00  EDENS   =  0.00D+00  THRDEDEF=  1.00D-06  GRADIENT=  1.00D-02  STEP    =  1.00D-03
 ORBITAL =  1.00D-05  CIVEC   =  1.00D-05  COEFF   =  1.00D-04  PRINTCI =  5.00D-02  PUNCHCI =  9.90D+01  OPTGRAD =  1.00D-08
 OPTENERG=  1.00D-06  OPTSTEP =  1.00D-08  THRGRAD =  1.00D-10  COMPRESS=  1.00D-11  VARMIN  =  1.00D-07  VARMAX  =  1.00D-03
 THRDOUB =  0.00D+00  THRDIV  =  1.00D-05  THRRED  =  1.00D-07  THRPSP  =  1.00D+00  THRDC   =  1.00D-10  THRCS   =  1.00D-10
 THRNRM  =  1.00D-08  THREQ   =  0.00D+00  THRDE   =  1.00D+00  THRREF  =  1.00D-05  SPARFAC =  1.00D+00  THRDLP  =  1.00D-07
 THRDIA  =  1.00D-10  THRDLS  =  1.00D-07  THRGPS  =  0.00D+00  THRKEX  =  0.00D+00  THRDIS  =  2.00D-01  THRVAR  =  1.00D-10
 THRLOC  =  1.00D-06  THRGAP  =  1.00D-06  THRLOCT = -1.00D+00  THRGAPT = -1.00D+00  THRORB  =  1.00D-06  THRMLTP =  0.00D+00
 THRCPQCI=  1.00D-10  KEXTA   =  0.00D+00  THRCOARS=  0.00D+00  SYMTOL  =  1.00D-06  GRADTOL =  1.00D-06  THROVL  =  1.00D-08
 THRORTH =  1.00D-08  GRID    =  1.00D-06  GRIDMAX =  1.00D-03  DTMAX   =  0.00D+00  THROCCDE=  1.00D-01  THROCCDE=  1.00D-01



 Input parameters for SORTINT:

 COMPRESS =    0.000000
 C_FINAL  =    1.000000
 DEBUG    =   -1.000000
 C_SORT1  =    0.000000
 C_SEWARD =    0.000000
 THRESH   =    0.000000
 IO       =  molpro                                                          
 SPRI     =    0.000000
 SETTING GEOMTYP        =    XYZ
 ZUNIT=BOHR
 

 Variable memory set to  995000000 words,  buffer space   230000 words

 SETTING BASIS          =    AV5Z


 Recomputing integrals since basis changed


 Using spherical harmonics

 Library entry N      S aug-cc-pV5Z          selected for orbital group  1
 Library entry N      P aug-cc-pV5Z          selected for orbital group  1
 Library entry N      D aug-cc-pV5Z          selected for orbital group  1
 Library entry N      F aug-cc-pV5Z          selected for orbital group  1
 Library entry N      G aug-cc-pV5Z          selected for orbital group  1
 Library entry N      H aug-cc-pV5Z          selected for orbital group  1
 Library entry H      S aug-cc-pV5Z          selected for orbital group  2
 Library entry H      P aug-cc-pV5Z          selected for orbital group  2
 Library entry H      D aug-cc-pV5Z          selected for orbital group  2
 Library entry H      F aug-cc-pV5Z          selected for orbital group  2
 Library entry H      G aug-cc-pV5Z          selected for orbital group  2
 Library entry O      S aug-cc-pV5Z          selected for orbital group  3
 Library entry O      P aug-cc-pV5Z          selected for orbital group  3
 Library entry O      D aug-cc-pV5Z          selected for orbital group  3
 Library entry O      F aug-cc-pV5Z          selected for orbital group  3
 Library entry O      G aug-cc-pV5Z          selected for orbital group  3
 Library entry O      H aug-cc-pV5Z          selected for orbital group  3


 PROGRAM * SEWARD (Integral evaluation for generally contracted gaussian basis sets)     Author: Roland Lindh, 1990

 Geometry written to block  1 of record 700


 Point group  Cs  



 ATOMIC COORDINATES

 NR  ATOM    CHARGE       X              Y              Z

   1  N       7.00    0.000000000   -0.161138890   -1.144974302
   2  H       1.00    0.000000000    1.671981532   -1.938507939
   3  O       8.00    0.000000000    0.030925148    1.132892650

 Bond lengths in Bohr (Angstrom)

 1-2  1.997504972  1-3  2.285949790
     ( 1.057034110)     ( 1.209672534)

 Bond angles

  2-1-3  108.58751303

 NUCLEAR CHARGE:                   16
 NUMBER OF PRIMITIVE AOS:         506
 NUMBER OF SYMMETRY AOS:          371
 NUMBER OF CONTRACTIONS:          334   ( 204A'  + 130A"  )
 NUMBER OF CORE ORBITALS:           2   (   2A'  +   0A"  )
 NUMBER OF VALENCE ORBITALS:        9   (   7A'  +   2A"  )


 NUCLEAR REPULSION ENERGY   30.29916530


 Eigenvalues of metric

         1 0.114E-04 0.173E-04 0.642E-04 0.101E-03 0.105E-03 0.137E-03 0.200E-03 0.225E-03
         2 0.128E-03 0.370E-03 0.114E-02 0.159E-02 0.198E-02 0.254E-02 0.332E-02 0.397E-02


 Contracted 2-electron integrals neglected if value below      1.0D-22

      756977307. INTEGRALS WRITTEN OUT IN  184855 BLOCKS ON RECORD 1290 OF FILE 1


 NUMBER OF SORTED TWO-ELECTRON INTEGRALS:  789027325.     BUFFER LENGTH:  32768
 NUMBER OF SEGMENTS:  25  SEGMENT LENGTH:   31997130      RECORD LENGTH: 524288

 Memory used in sort:      32.55 MW

 SORT1 READ   756977307. AND WROTE   760993187. INTEGRALS IN   2189 RECORDS. CPU TIME:    28.19 SEC, REAL TIME:    35.29 SEC
 SORT2 READ   760993187. AND WROTE   789027325. INTEGRALS IN     25 RECORDS. CPU TIME:    11.95 SEC, REAL TIME:    16.74 SEC

 FILE SIZES:   FILE 1: 12137.5 MBYTE,  FILE 4:  9181.4 MBYTE,   TOTAL:  21318.9 MBYTE

 OPERATOR DM      FOR CENTER  0  COORDINATES:    0.000000    0.000000    0.000000


 **********************************************************************************************************************************
 DATASETS  * FILE   NREC   LENGTH (MB)   RECORD NAMES
              1      19     6374.22       500      610      700      900      950      970     1000      129      960     1100   
                                          VAR    BASINP    GEOM    SYMINP    ZMAT    AOBASIS   BASIS     P2S    ABASIS      S 
                                         1400     1410     1200     1210     1080     1600     1650     1300     1700   
                                           T        V       H0       H01     AOSYM     SMH    MOLCAS    ERIS     OPER   

 PROGRAMS   *        TOTAL       INT
 CPU TIMES  *       168.47    168.36
 REAL TIME  *       189.46 SEC
 DISK USED  *        21.32 GB      
 **********************************************************************************************************************************


 PROGRAM * RHF-SCF (CLOSED SHELL)       Authors: W. Meyer, H.-J. Werner


 NUMBER OF ELECTRONS:       8+    8-
 CONVERGENCE THRESHOLDS:    1.00E-10 (Density)    1.00E-13 (Energy)
 MAX. NUMBER OF ITERATIONS:      500
 INTERPOLATION TYPE:            DIIS
 INTERPOLATION STEPS:              2 (START)      1 (STEP)
 LEVEL SHIFTS:                  0.00 (CLOSED)  0.00 (OPEN) 



 Orbital guess generated from atomic densities. Full valence occupancy:    9   2

 Molecular orbital dump at record        2100.2

 Initial occupancy:   7   1

 ITERATION    DDIFF          GRAD             ENERGY        2-EL.EN.            DIPOLE MOMENTS         DIIS   ORB.
    1      0.000D+00      0.000D+00      -129.79762210    153.848156    0.00000    0.59639   -1.03619    0    start
    2      0.000D+00      0.644D-02      -129.82477561    155.073086    0.00000    0.61086   -0.20632    1    diag
    3      0.403D-02      0.494D-02      -129.84826994    155.202524    0.00000    0.55721   -0.59808    2    diag
    4      0.209D-02      0.771D-03      -129.84908224    154.915444    0.00000    0.56430   -0.53601    3    diag
    5      0.379D-03      0.250D-03      -129.84920997    155.009907    0.00000    0.56965   -0.53853    4    diag
    6      0.157D-03      0.727D-04      -129.84923046    154.993492    0.00000    0.56992   -0.53426    5    diag
    7      0.606D-04      0.362D-04      -129.84923645    154.996291    0.00000    0.57117   -0.53162    6    diag
    8      0.415D-04      0.128D-04      -129.84923715    154.995575    0.00000    0.57121   -0.53057    7    diag
    9      0.162D-04      0.250D-05      -129.84923718    154.995459    0.00000    0.57118   -0.53034    8    diag
   10      0.329D-05      0.563D-06      -129.84923718    154.995440    0.00000    0.57114   -0.53031    9    orth
   11      0.641D-06      0.113D-06      -129.84923718    154.995436    0.00000    0.57113   -0.53031    9    diag
   12      0.119D-06      0.229D-07      -129.84923718    154.995436    0.00000    0.57113   -0.53031    9    diag
   13      0.257D-07      0.606D-08      -129.84923718    154.995436    0.00000    0.57113   -0.53031    9    diag
   14      0.701D-08      0.118D-08      -129.84923718    154.995436    0.00000    0.57113   -0.53031    9    diag
   15      0.128D-08      0.335D-09      -129.84923718    154.995436    0.00000    0.57113   -0.53031    9    diag
   16      0.382D-09      0.100D-09      -129.84923718    154.995436    0.00000    0.57113   -0.53031    9    diag
   17      0.727D-10      0.261D-10      -129.84923718    154.995436    0.00000    0.57113   -0.53031    9    diag
   18      0.237D-10      0.890D-11      -129.84923718    154.995436    0.00000    0.57113   -0.53031    9    diag
   19      0.214D-10      0.217D-11      -129.84923718    154.995436    0.00000    0.57113   -0.53031    9    fixocc
   20      0.151D-10      0.538D-12      -129.84923718    154.995436    0.00000    0.57113   -0.53031    9    orth
   21      0.122D-10      0.583D-12      -129.84923718    154.995436    0.00000    0.57113   -0.53031    9    diag
   22      0.821D-11      0.317D-12      -129.84923718    154.995436    0.00000    0.57113   -0.53031    9    diag
   23      0.458D-11      0.303D-12      -129.84923718    154.995436    0.00000    0.57113   -0.53031    9    diag
   24      0.322D-11      0.297D-12      -129.84923718    154.995436    0.00000    0.57113   -0.53031    9    diag
   25      0.247D-11      0.258D-12      -129.84923718    154.995436    0.00000    0.57113   -0.53031    9    diag
   26      0.279D-11      0.313D-12      -129.84923718    154.995436    0.00000    0.57113   -0.53031    9    diag
   27      0.221D-11      0.287D-12      -129.84923718    154.995436    0.00000    0.57113   -0.53031    9    diag
   28      0.834D-12      0.326D-12      -129.84923718    154.995436    0.00000    0.57113   -0.53031    9    diag
   29      0.373D-12      0.300D-12      -129.84923718    154.995436    0.00000    0.57113   -0.53031    9    diag
   30      0.558D-12      0.292D-12      -129.84923718    154.995436    0.00000    0.57113   -0.53031    9    orth
   31      0.251D-12      0.350D-12      -129.84923718    154.995436    0.00000    0.57113   -0.53031    9    diag
   32      0.641D-12      0.254D-12      -129.84923718    154.995436    0.00000    0.57113   -0.53031    0    orth

 Final occupancy:   7   1

 !RHF STATE 1.1 Energy               -129.849237181324
 Nuclear energy                        30.29916530
 One-electron energy                 -237.64612033
 Two-electron energy                   77.49771785
 Virial quotient                       -1.00182319
 !RHF STATE 1.1 Dipole moment           0.00000000     0.57113154    -0.53030685
 Dipole moment /Debye                   0.00000000     1.45157650    -1.34781728

 Orbital energies:

         1.1          2.1          3.1          4.1          5.1          6.1          7.1          8.1          9.1
    -20.653298   -15.713066    -1.527646    -0.993763    -0.746093    -0.665693    -0.430525     0.022804     0.065542

         1.2          2.2          3.2
     -0.595257     0.059797     0.091485

 HOMO      7.1    -0.430525 =     -11.7152eV
 LUMO      8.1     0.022804 =       0.6205eV
 LUMO-HOMO         0.453329 =      12.3357eV


 **********************************************************************************************************************************
 DATASETS  * FILE   NREC   LENGTH (MB)   RECORD NAMES
              1      19     6374.22       500      610      700      900      950      970     1000      129      960     1100   
                                          VAR    BASINP    GEOM    SYMINP    ZMAT    AOBASIS   BASIS     P2S    ABASIS      S 
                                         1400     1410     1200     1210     1080     1600     1650     1300     1700   
                                           T        V       H0       H01     AOSYM     SMH    MOLCAS    ERIS     OPER   

              2       4        4.02       700     1000      520     2100   
                                         GEOM     BASIS   MCVARS     RHF  

 PROGRAMS   *        TOTAL        HF       INT
 CPU TIMES  *       328.91    160.44    168.36
 REAL TIME  *       390.26 SEC
 DISK USED  *        21.32 GB      
 **********************************************************************************************************************************


 PROGRAM * CCSD (Closed-shell coupled cluster)     Authors: C. Hampel, H.-J. Werner, 1991, M. Deegan, P.J. Knowles, 1992


 Convergence thresholds:  THRVAR = 1.00D-08  THRDEN = 1.00D-12

 CCSD(T)     terms to be evaluated (factor= 1.000)


 Number of core orbitals:           2 (   2   0 )
 Number of closed-shell orbitals:   6 (   5   1 )
 Number of external orbitals:     326 ( 197 129 )

 Molecular orbitals read from record     2100.2  Type=RHF/CANONICAL (state 1.1)

 Number of N-1 electron functions:               6
 Number of N-2 electron functions:              21
 Number of singly external CSFs:              1114
 Number of doubly external CSFs:            975958
 Total number of CSFs:                      977073

 Length of J-op  integral file:               0.00 MB
 Length of K-op  integral file:               4.07 MB
 Length of 3-ext integral record:             0.00 MB

 Memory could be reduced to 151.33 Mwords without degradation in triples

 Integral transformation finished. Total CPU:  17.42 sec, npass=  1  Memory used:  41.21 MW

 Reference energy:                   -129.84923718

 MP2 singlet pair energy:              -0.31145462
 MP2 triplet pair energy:              -0.17219833
 MP2 correlation energy:               -0.48365294
 MP2 total energy:                   -130.33289013

 SCS-MP2 correlation energy:           -0.48089117   (PS=  1.200000  PT=  0.333333)
 SCS-MP2 total energy:               -130.33012835

 ITER.      SQ.NORM     CORR.ENERGY   TOTAL ENERGY   ENERGY CHANGE        DEN1      VAR(S)    VAR(P)  DIIS     TIME  TIME/IT
   1      1.12094607    -0.48056583  -130.32980301     0.00308712     0.01988051  0.32D-02  0.32D-02  1  1    31.32    15.28
   2      1.13165524    -0.48043037  -130.32966755     0.00013546    -0.01275467  0.11D-03  0.49D-03  2  2    45.45    15.44
   3      1.13787148    -0.48081822  -130.33005540    -0.00038785    -0.00302172  0.49D-04  0.57D-04  3  3    59.44    15.46
   4      1.14069512    -0.48081558  -130.33005276     0.00000264    -0.00097865  0.47D-05  0.10D-04  4  4    73.52    15.47
   5      1.14184943    -0.48084532  -130.33008250    -0.00002975    -0.00025583  0.12D-05  0.17D-05  5  5    87.66    15.47
   6      1.14221245    -0.48083349  -130.33007068     0.00001183    -0.00005129  0.12D-06  0.41D-06  6  6   101.77    15.48
   7      1.14228993    -0.48083304  -130.33007022     0.00000045     0.00000334  0.18D-07  0.94D-07  6  1   115.87    15.48
   8      1.14231573    -0.48083305  -130.33007023    -0.00000001    -0.00000314  0.36D-08  0.19D-07  6  2   129.83    15.48
   9      1.14232455    -0.48083246  -130.33006964     0.00000059    -0.00000017  0.23D-08  0.21D-08  6  3   144.08    15.49
  10      1.14231991    -0.48083321  -130.33007040    -0.00000075     0.00000159  0.36D-09  0.34D-09  6  5   158.21    15.50
  11      1.14232191    -0.48083320  -130.33007038     0.00000002    -0.00000036  0.10D-09  0.29D-10  6  4   172.35    15.50
  12      1.14232146    -0.48083327  -130.33007045    -0.00000007     0.00000005  0.19D-10  0.67D-11  6  6   186.35    15.49
  13      1.14232124    -0.48083327  -130.33007045    -0.00000000    -0.00000003  0.33D-11  0.98D-12  6  1   200.49    15.49
  14      1.14232096    -0.48083328  -130.33007046    -0.00000001     0.00000004  0.48D-12  0.18D-12  6  3   214.59    15.49
  15      1.14232088    -0.48083328  -130.33007047    -0.00000000     0.00000001  0.13D-12  0.24D-13  6  2   228.76    15.50
  16      1.14232086    -0.48083328  -130.33007047     0.00000000     0.00000000  0.34D-13  0.94D-14  6  4   242.77    15.50
  17      1.14232086    -0.48083328  -130.33007047    -0.00000000    -0.00000000  0.19D-14  0.12D-14  6  5   256.95    15.51
  18      1.14232087    -0.48083328  -130.33007047     0.00000000    -0.00000000  0.29D-15  0.31D-15  6  6   271.35    15.53
  19      1.14232088    -0.48083328  -130.33007047     0.00000000    -0.00000000  0.55D-16  0.43D-16  6  1   285.81    15.55
  20      1.14232088    -0.48083328  -130.33007047     0.00000000    -0.00000000  0.12D-16  0.64D-17  6  3   300.28    15.57
  21      1.14232088    -0.48083328  -130.33007047    -0.00000000     0.00000000  0.22D-17  0.12D-17  6  2   314.66    15.58
  22      1.14232088    -0.48083328  -130.33007047    -0.00000000     0.00000000  0.41D-18  0.18D-18  6  4   328.85    15.59
  23      1.14232088    -0.48083328  -130.33007047    -0.00000000     0.00000000  0.94D-19  0.49D-19  6  5   342.80    15.58
  24      1.14232088    -0.48083328  -130.33007047    -0.00000000     0.00000000  0.47D-19  0.26D-19  6  6   356.98    15.57
  25      1.14232088    -0.48083328  -130.33007047    -0.00000000     0.00000000  0.22D-19  0.13D-19  6  1   371.40    15.58

 Norm of t1 vector:      0.07683918      S-energy:    -0.00000000      T1 diagnostic:  0.01568473
                                                                       D1 diagnostic:  0.04246473

 Doubles amplitudes (print threshold =  0.500E-01):

         I         J         SYM. A    SYM. B    A         B      T(IJ, AB)

         6         6         2         2         1         1     -0.08058644
         6         6         2         2         1         2      0.05298362
         6         6         2         2         2         1      0.05298362


 Total CPU time for triples:    141.93 sec


 RESULTS
 =======

  Reference energy                   -129.849237181323
  CCSD singlet pair energy             -0.333602752048
  CCSD triplet pair energy             -0.147230531670
  CCSD correlation energy              -0.480833283720

  Triples (T) contribution             -0.023011333447
  Total correlation energy             -0.503844617168

  CCSD total energy                  -130.330070465043
  CCSD[T] energy                     -130.354174864253
  CCSD-T energy                      -130.352698356590
 !CCSD(T) total energy               -130.353081798491

 Timing summary (sec):

 STEP                 CPU(USER)    SYS     CPU(TOT)    WALL
 Transformation         17.52      2.02     19.54     19.54
 CCSD iterations       353.89     35.54    389.43    389.60
 Triples               141.93      2.69    144.62    145.11

 Program statistics:

 Available memory in ccsd:               994999756
 Min. memory needed in ccsd:               3348832
 Max. memory used in ccsd:                 4143652
 Max. memory used in cckext:               8340089 (25 integral passes)



 **********************************************************************************************************************************
 DATASETS  * FILE   NREC   LENGTH (MB)   RECORD NAMES
              1      20     6809.41       500      610      700      900      950      970     1000      129      960     1100   
                                          VAR    BASINP    GEOM    SYMINP    ZMAT    AOBASIS   BASIS     P2S    ABASIS      S 
                                         1400     1410     1200     1210     1080     1600     1650     1300     1700     1380   
                                           T        V       H0       H01     AOSYM     SMH    MOLCAS    ERIS     OPER     JKOP   

              2       4        4.02       700     1000      520     2100   
                                         GEOM     BASIS   MCVARS     RHF  

 PROGRAMS   *        TOTAL   CCSD(T)        HF       INT
 CPU TIMES  *       842.29    513.37    160.44    168.36
 REAL TIME  *       944.58 SEC
 DISK USED  *        21.32 GB      
 **********************************************************************************************************************************

 CCSD(T)/aug-cc-pV5Z energy=   -130.353081798491

        CCSD(T)         HF-SCF  
   -130.35308180   -129.84923718
 **********************************************************************************************************************************
 Molpro calculation terminated
 Variable memory released
