
 Primary working directories    : /tmp/r2666/234756.maple
 Secondary working directories  : /tmp/r2666/234756.maple
 Wavefunction directory         : /ddn/home4/r2666/wfu/
 Main file repository           : /tmp/r2666/234756.maple/

 SHA1      : d5ffa45e93fdbca01ffc919aa182cfdae0147319
 NAME      : 2015.1.35
 ARCHNAME  : linux/x86_64
 FC        : /opt/intel/composer_xe_2015.1.133/bin/intel64/ifort
 BLASLIB   : -Wl,-_start-group /opt/intel/mkl/lib/intel64/libmkl_intel_ilp64.a /opt/intel/mkl/lib/intel64/libmkl_intel_thread.a /opt/intel/mkl/lib/intel64/libmkl_core.a -Wl,-_end-group
 id        : olemiss

 Nodes     nprocs
 cn096        1

 Using customized tuning parameters: mindgm=1; mindgv=20; mindgc=4; mindgr=1; noblas=0; minvec=7
 default implementation of scratch files=df  

 ***,hno CCSD(T)/TZ-F12 QFF
 memory, 995, m;
 gthresh,energy=1.d-12,zero=1.d-22,oneint=1.d-22,twoint=1.d-22;
 gthresh,optgrad=1.d-8,optstep=1.d-8;
 nocompress;
 geomtyp=xyz
 bohr
 geometry={
 3
        128       128
 N        0.0000000000       -0.1759082017       -1.1446679504
 H        0.0000000000        1.6800258830       -1.9329487598
 O        0.0000000000        0.0376501087        1.1270271192
 }
 
 basis=av5z
   {hf,maxit=500;accu,20;}
 {ccsd(t),nocheck,maxit=250;orbital,IGNORE_ERROR;}

 Variables initialized (889), CPU time= 0.01 sec
 Commands  initialized (702), CPU time= 0.01 sec, 572 directives.
 Default parameters read. Elapsed time= 0.04 sec

 Checking input...
 Passed
1


                                         ***  PROGRAM SYSTEM MOLPRO  ***
                                       Copyright, TTI GmbH Stuttgart, 2015
                                    Version 2015.1 linked Jul  9 2018 13:16:40


 **********************************************************************************************************************************
 LABEL *   hno CCSD(T)/TZ-F12 QFF                                                        
  64 bit serial version                                                                  DATE: 08-Feb-20          TIME: 17:43:57  
 **********************************************************************************************************************************

 SHA1:             d5ffa45e93fdbca01ffc919aa182cfdae0147319
 **********************************************************************************************************************************

 THRESHOLDS:

 ZERO    =  1.00D-22  ONEINT  =  1.00D-22  TWOINT  =  1.00D-22  PREFAC  =  1.00D-14  LOCALI  =  1.00D-09  EORDER  =  1.00D-04
 ENERGY  =  1.00D-12  ETEST   =  0.00D+00  EDENS   =  0.00D+00  THRDEDEF=  1.00D-06  GRADIENT=  1.00D-02  STEP    =  1.00D-03
 ORBITAL =  1.00D-05  CIVEC   =  1.00D-05  COEFF   =  1.00D-04  PRINTCI =  5.00D-02  PUNCHCI =  9.90D+01  OPTGRAD =  3.00D-04
 OPTENERG=  1.00D-06  OPTSTEP =  3.00D-04  THRGRAD =  1.00D-10  COMPRESS=  1.00D-11  VARMIN  =  1.00D-07  VARMAX  =  1.00D-03
 THRDOUB =  0.00D+00  THRDIV  =  1.00D-05  THRRED  =  1.00D-07  THRPSP  =  1.00D+00  THRDC   =  1.00D-10  THRCS   =  1.00D-10
 THRNRM  =  1.00D-08  THREQ   =  0.00D+00  THRDE   =  1.00D+00  THRREF  =  1.00D-05  SPARFAC =  1.00D+00  THRDLP  =  1.00D-07
 THRDIA  =  1.00D-10  THRDLS  =  1.00D-07  THRGPS  =  0.00D+00  THRKEX  =  0.00D+00  THRDIS  =  2.00D-01  THRVAR  =  1.00D-10
 THRLOC  =  1.00D-06  THRGAP  =  1.00D-06  THRLOCT = -1.00D+00  THRGAPT = -1.00D+00  THRORB  =  1.00D-06  THRMLTP =  0.00D+00
 THRCPQCI=  1.00D-10  KEXTA   =  0.00D+00  THRCOARS=  0.00D+00  SYMTOL  =  1.00D-06  GRADTOL =  1.00D-06  THROVL  =  1.00D-08
 THRORTH =  1.00D-08  GRID    =  1.00D-06  GRIDMAX =  1.00D-03  DTMAX   =  0.00D+00  THROCCDE=  1.00D-01  THROCCDE=  1.00D-01



 THRESHOLDS:

 ZERO    =  1.00D-22  ONEINT  =  1.00D-22  TWOINT  =  1.00D-22  PREFAC  =  1.00D-14  LOCALI  =  1.00D-09  EORDER  =  1.00D-04
 ENERGY  =  1.00D-12  ETEST   =  0.00D+00  EDENS   =  0.00D+00  THRDEDEF=  1.00D-06  GRADIENT=  1.00D-02  STEP    =  1.00D-03
 ORBITAL =  1.00D-05  CIVEC   =  1.00D-05  COEFF   =  1.00D-04  PRINTCI =  5.00D-02  PUNCHCI =  9.90D+01  OPTGRAD =  1.00D-08
 OPTENERG=  1.00D-06  OPTSTEP =  1.00D-08  THRGRAD =  1.00D-10  COMPRESS=  1.00D-11  VARMIN  =  1.00D-07  VARMAX  =  1.00D-03
 THRDOUB =  0.00D+00  THRDIV  =  1.00D-05  THRRED  =  1.00D-07  THRPSP  =  1.00D+00  THRDC   =  1.00D-10  THRCS   =  1.00D-10
 THRNRM  =  1.00D-08  THREQ   =  0.00D+00  THRDE   =  1.00D+00  THRREF  =  1.00D-05  SPARFAC =  1.00D+00  THRDLP  =  1.00D-07
 THRDIA  =  1.00D-10  THRDLS  =  1.00D-07  THRGPS  =  0.00D+00  THRKEX  =  0.00D+00  THRDIS  =  2.00D-01  THRVAR  =  1.00D-10
 THRLOC  =  1.00D-06  THRGAP  =  1.00D-06  THRLOCT = -1.00D+00  THRGAPT = -1.00D+00  THRORB  =  1.00D-06  THRMLTP =  0.00D+00
 THRCPQCI=  1.00D-10  KEXTA   =  0.00D+00  THRCOARS=  0.00D+00  SYMTOL  =  1.00D-06  GRADTOL =  1.00D-06  THROVL  =  1.00D-08
 THRORTH =  1.00D-08  GRID    =  1.00D-06  GRIDMAX =  1.00D-03  DTMAX   =  0.00D+00  THROCCDE=  1.00D-01  THROCCDE=  1.00D-01



 Input parameters for SORTINT:

 COMPRESS =    0.000000
 C_FINAL  =    1.000000
 DEBUG    =   -1.000000
 C_SORT1  =    0.000000
 C_SEWARD =    0.000000
 THRESH   =    0.000000
 IO       =  molpro                                                          
 SPRI     =    0.000000
 SETTING GEOMTYP        =    XYZ
 ZUNIT=BOHR
 

 Variable memory set to  995000000 words,  buffer space   230000 words

 SETTING BASIS          =    AV5Z


 Recomputing integrals since basis changed


 Using spherical harmonics

 Library entry N      S aug-cc-pV5Z          selected for orbital group  1
 Library entry N      P aug-cc-pV5Z          selected for orbital group  1
 Library entry N      D aug-cc-pV5Z          selected for orbital group  1
 Library entry N      F aug-cc-pV5Z          selected for orbital group  1
 Library entry N      G aug-cc-pV5Z          selected for orbital group  1
 Library entry N      H aug-cc-pV5Z          selected for orbital group  1
 Library entry H      S aug-cc-pV5Z          selected for orbital group  2
 Library entry H      P aug-cc-pV5Z          selected for orbital group  2
 Library entry H      D aug-cc-pV5Z          selected for orbital group  2
 Library entry H      F aug-cc-pV5Z          selected for orbital group  2
 Library entry H      G aug-cc-pV5Z          selected for orbital group  2
 Library entry O      S aug-cc-pV5Z          selected for orbital group  3
 Library entry O      P aug-cc-pV5Z          selected for orbital group  3
 Library entry O      D aug-cc-pV5Z          selected for orbital group  3
 Library entry O      F aug-cc-pV5Z          selected for orbital group  3
 Library entry O      G aug-cc-pV5Z          selected for orbital group  3
 Library entry O      H aug-cc-pV5Z          selected for orbital group  3


 PROGRAM * SEWARD (Integral evaluation for generally contracted gaussian basis sets)     Author: Roland Lindh, 1990

 Geometry written to block  1 of record 700


 Point group  Cs  



 ATOMIC COORDINATES

 NR  ATOM    CHARGE       X              Y              Z

   1  N       7.00    0.000000000   -0.175908202   -1.144667950
   2  H       1.00    0.000000000    1.680025883   -1.932948760
   3  O       8.00    0.000000000    0.037650109    1.127027119

 Bond lengths in Bohr (Angstrom)

 1-2  2.016402232  1-3  2.281711121
     ( 1.067034109)     ( 1.207429527)

 Bond angles

  2-1-3  107.64214899

 NUCLEAR CHARGE:                   16
 NUMBER OF PRIMITIVE AOS:         506
 NUMBER OF SYMMETRY AOS:          371
 NUMBER OF CONTRACTIONS:          334   ( 204A'  + 130A"  )
 NUMBER OF CORE ORBITALS:           2   (   2A'  +   0A"  )
 NUMBER OF VALENCE ORBITALS:        9   (   7A'  +   2A"  )


 NUCLEAR REPULSION ENERGY   30.31808169


 Eigenvalues of metric

         1 0.116E-04 0.176E-04 0.657E-04 0.101E-03 0.105E-03 0.139E-03 0.204E-03 0.225E-03
         2 0.127E-03 0.384E-03 0.114E-02 0.158E-02 0.206E-02 0.256E-02 0.342E-02 0.401E-02


 Contracted 2-electron integrals neglected if value below      1.0D-22

      756977545. INTEGRALS WRITTEN OUT IN  184855 BLOCKS ON RECORD 1290 OF FILE 1


 NUMBER OF SORTED TWO-ELECTRON INTEGRALS:  789027325.     BUFFER LENGTH:  32768
 NUMBER OF SEGMENTS:  25  SEGMENT LENGTH:   31997130      RECORD LENGTH: 524288

 Memory used in sort:      32.55 MW

 SORT1 READ   756977545. AND WROTE   760993427. INTEGRALS IN   2189 RECORDS. CPU TIME:    37.76 SEC, REAL TIME:   234.65 SEC
 SORT2 READ   760993427. AND WROTE   789027325. INTEGRALS IN     25 RECORDS. CPU TIME:    11.95 SEC, REAL TIME:    49.59 SEC

 FILE SIZES:   FILE 1: 12137.5 MBYTE,  FILE 4:  9181.4 MBYTE,   TOTAL:  21318.9 MBYTE

 OPERATOR DM      FOR CENTER  0  COORDINATES:    0.000000    0.000000    0.000000


 **********************************************************************************************************************************
 DATASETS  * FILE   NREC   LENGTH (MB)   RECORD NAMES
              1      19     6374.22       500      610      700      900      950      970     1000      129      960     1100   
                                          VAR    BASINP    GEOM    SYMINP    ZMAT    AOBASIS   BASIS     P2S    ABASIS      S 
                                         1400     1410     1200     1210     1080     1600     1650     1300     1700   
                                           T        V       H0       H01     AOSYM     SMH    MOLCAS    ERIS     OPER   

 PROGRAMS   *        TOTAL       INT
 CPU TIMES  *       152.11    152.01
 REAL TIME  *       425.64 SEC
 DISK USED  *        21.32 GB      
 **********************************************************************************************************************************


 PROGRAM * RHF-SCF (CLOSED SHELL)       Authors: W. Meyer, H.-J. Werner


 NUMBER OF ELECTRONS:       8+    8-
 CONVERGENCE THRESHOLDS:    1.00E-10 (Density)    1.00E-13 (Energy)
 MAX. NUMBER OF ITERATIONS:      500
 INTERPOLATION TYPE:            DIIS
 INTERPOLATION STEPS:              2 (START)      1 (STEP)
 LEVEL SHIFTS:                  0.00 (CLOSED)  0.00 (OPEN) 



 Orbital guess generated from atomic densities. Full valence occupancy:    9   2

 Molecular orbital dump at record        2100.2

 Initial occupancy:   7   1

 ITERATION    DDIFF          GRAD             ENERGY        2-EL.EN.            DIPOLE MOMENTS         DIIS   ORB.
    1      0.000D+00      0.000D+00      -129.79724555    153.878119    0.00000    0.58044   -1.02768    0    start
    2      0.000D+00      0.646D-02      -129.82447013    155.115320    0.00000    0.60928   -0.19915    1    diag
    3      0.404D-02      0.496D-02      -129.84812184    155.237460    0.00000    0.54896   -0.58961    2    diag
    4      0.209D-02      0.767D-03      -129.84892847    154.951231    0.00000    0.55651   -0.52820    3    diag
    5      0.378D-03      0.251D-03      -129.84905749    155.046006    0.00000    0.56191   -0.53074    4    diag
    6      0.158D-03      0.734D-04      -129.84907837    155.029459    0.00000    0.56217   -0.52647    5    diag
    7      0.612D-04      0.364D-04      -129.84908442    155.032336    0.00000    0.56344   -0.52384    6    diag
    8      0.418D-04      0.128D-04      -129.84908511    155.031612    0.00000    0.56349   -0.52281    7    diag
    9      0.161D-04      0.249D-05      -129.84908515    155.031496    0.00000    0.56346   -0.52258    8    diag
   10      0.326D-05      0.561D-06      -129.84908515    155.031476    0.00000    0.56342   -0.52255    9    orth
   11      0.636D-06      0.113D-06      -129.84908515    155.031472    0.00000    0.56341   -0.52255    9    diag
   12      0.120D-06      0.231D-07      -129.84908515    155.031472    0.00000    0.56341   -0.52255    9    diag
   13      0.264D-07      0.612D-08      -129.84908515    155.031472    0.00000    0.56341   -0.52255    9    diag
   14      0.720D-08      0.120D-08      -129.84908515    155.031472    0.00000    0.56341   -0.52255    9    diag
   15      0.132D-08      0.344D-09      -129.84908515    155.031472    0.00000    0.56341   -0.52255    9    diag
   16      0.391D-09      0.104D-09      -129.84908515    155.031472    0.00000    0.56341   -0.52255    9    diag
   17      0.787D-10      0.285D-10      -129.84908515    155.031472    0.00000    0.56341   -0.52255    9    diag
   18      0.277D-10      0.989D-11      -129.84908515    155.031472    0.00000    0.56341   -0.52255    9    diag
   19      0.185D-10      0.247D-11      -129.84908515    155.031472    0.00000    0.56341   -0.52255    9    fixocc
   20      0.134D-10      0.583D-12      -129.84908515    155.031472    0.00000    0.56341   -0.52255    0    orth

 Final occupancy:   7   1

 !RHF STATE 1.1 Energy               -129.849085146693
 Nuclear energy                        30.31808169
 One-electron energy                 -237.68290262
 Two-electron energy                   77.51573579
 Virial quotient                       -1.00184371
 !RHF STATE 1.1 Dipole moment           0.00000000     0.56341134    -0.52254988
 Dipole moment /Debye                   0.00000000     1.43195500    -1.32810232

 Orbital energies:

         1.1          2.1          3.1          4.1          5.1          6.1          7.1          8.1          9.1
    -20.653058   -15.714203    -1.529861    -0.990239    -0.745725    -0.666166    -0.429859     0.022893     0.065562

         1.2          2.2          3.2
     -0.596604     0.060408     0.091832

 HOMO      7.1    -0.429859 =     -11.6971eV
 LUMO      8.1     0.022893 =       0.6230eV
 LUMO-HOMO         0.452753 =      12.3200eV


 **********************************************************************************************************************************
 DATASETS  * FILE   NREC   LENGTH (MB)   RECORD NAMES
              1      19     6374.22       500      610      700      900      950      970     1000      129      960     1100   
                                          VAR    BASINP    GEOM    SYMINP    ZMAT    AOBASIS   BASIS     P2S    ABASIS      S 
                                         1400     1410     1200     1210     1080     1600     1650     1300     1700   
                                           T        V       H0       H01     AOSYM     SMH    MOLCAS    ERIS     OPER   

              2       4        4.02       700     1000      520     2100   
                                         GEOM     BASIS   MCVARS     RHF  

 PROGRAMS   *        TOTAL        HF       INT
 CPU TIMES  *       220.09     67.98    152.01
 REAL TIME  *       517.01 SEC
 DISK USED  *        21.32 GB      
 **********************************************************************************************************************************


 PROGRAM * CCSD (Closed-shell coupled cluster)     Authors: C. Hampel, H.-J. Werner, 1991, M. Deegan, P.J. Knowles, 1992


 Convergence thresholds:  THRVAR = 1.00D-08  THRDEN = 1.00D-12

 CCSD(T)     terms to be evaluated (factor= 1.000)


 Number of core orbitals:           2 (   2   0 )
 Number of closed-shell orbitals:   6 (   5   1 )
 Number of external orbitals:     326 ( 197 129 )

 Molecular orbitals read from record     2100.2  Type=RHF/CANONICAL (state 1.1)

 Number of N-1 electron functions:               6
 Number of N-2 electron functions:              21
 Number of singly external CSFs:              1114
 Number of doubly external CSFs:            975958
 Total number of CSFs:                      977073

 Length of J-op  integral file:               0.00 MB
 Length of K-op  integral file:               4.07 MB
 Length of 3-ext integral record:             0.00 MB

 Memory could be reduced to 151.33 Mwords without degradation in triples

 Integral transformation finished. Total CPU:  10.68 sec, npass=  1  Memory used:  41.21 MW

 Reference energy:                   -129.84908515

 MP2 singlet pair energy:              -0.31145350
 MP2 triplet pair energy:              -0.17218318
 MP2 correlation energy:               -0.48363668
 MP2 total energy:                   -130.33272183

 SCS-MP2 correlation energy:           -0.48088040   (PS=  1.200000  PT=  0.333333)
 SCS-MP2 total energy:               -130.32996555

 ITER.      SQ.NORM     CORR.ENERGY   TOTAL ENERGY   ENERGY CHANGE        DEN1      VAR(S)    VAR(P)  DIIS     TIME  TIME/IT
   1      1.12102340    -0.48061402  -130.32969916     0.00302267     0.01978898  0.32D-02  0.32D-02  1  1    19.69    10.15
   2      1.13172563    -0.48049503  -130.32958018     0.00011899    -0.01274207  0.11D-03  0.49D-03  2  2    29.72    10.68
   3      1.13793947    -0.48088381  -130.32996896    -0.00038878    -0.00302811  0.49D-04  0.57D-04  3  3    41.33    11.52
   4      1.14074544    -0.48088029  -130.32996544     0.00000352    -0.00097677  0.47D-05  0.10D-04  4  4    52.66    11.84
   5      1.14188688    -0.48091004  -130.32999519    -0.00002975    -0.00025377  0.12D-05  0.16D-05  5  5    63.61    11.96
   6      1.14224489    -0.48089842  -130.32998357     0.00001161    -0.00005064  0.13D-06  0.39D-06  6  6    72.72    11.71
   7      1.14232207    -0.48089780  -130.32998295     0.00000062     0.00000312  0.20D-07  0.90D-07  6  1    81.69    11.54
   8      1.14234789    -0.48089777  -130.32998292     0.00000003    -0.00000313  0.35D-08  0.19D-07  6  2    90.82    11.41
   9      1.14235682    -0.48089718  -130.32998232     0.00000060    -0.00000017  0.21D-08  0.20D-08  6  3    99.89    11.31
  10      1.14235238    -0.48089791  -130.32998305    -0.00000073     0.00000154  0.33D-09  0.33D-09  6  5   108.96    11.22
  11      1.14235431    -0.48089789  -130.32998304     0.00000001    -0.00000034  0.98D-10  0.27D-10  6  4   117.97    11.15
  12      1.14235387    -0.48089796  -130.32998311    -0.00000007     0.00000005  0.18D-10  0.63D-11  6  6   127.79    11.16
  13      1.14235365    -0.48089796  -130.32998311    -0.00000000    -0.00000003  0.32D-11  0.94D-12  6  1   139.10    11.29
  14      1.14235338    -0.48089797  -130.32998312    -0.00000001     0.00000004  0.47D-12  0.18D-12  6  3   150.43    11.40
  15      1.14235330    -0.48089798  -130.32998312    -0.00000000     0.00000001  0.13D-12  0.24D-13  6  2   161.64    11.49
  16      1.14235328    -0.48089798  -130.32998312     0.00000000     0.00000000  0.33D-13  0.97D-14  6  4   172.96    11.58
  17      1.14235328    -0.48089798  -130.32998312    -0.00000000    -0.00000000  0.18D-14  0.12D-14  6  5   184.34    11.65
  18      1.14235329    -0.48089798  -130.32998312     0.00000000    -0.00000000  0.28D-15  0.31D-15  6  6   195.74    11.72
  19      1.14235329    -0.48089798  -130.32998312     0.00000000    -0.00000000  0.55D-16  0.41D-16  6  1   207.07    11.78
  20      1.14235329    -0.48089798  -130.32998312     0.00000000    -0.00000000  0.11D-16  0.63D-17  6  3   218.45    11.84
  21      1.14235329    -0.48089798  -130.32998312    -0.00000000     0.00000000  0.22D-17  0.11D-17  6  2   229.74    11.88
  22      1.14235329    -0.48089798  -130.32998312    -0.00000000     0.00000000  0.39D-18  0.17D-18  6  4   240.91    11.92
  23      1.14235329    -0.48089798  -130.32998312    -0.00000000     0.00000000  0.10D-18  0.55D-19  6  5   252.14    11.95
  24      1.14235329    -0.48089798  -130.32998312    -0.00000000     0.00000000  0.33D-19  0.21D-19  6  6   263.27    11.97
  25      1.14235329    -0.48089798  -130.32998312     0.00000000    -0.00000000  0.18D-19  0.11D-19  6  1   274.40    12.00

 Norm of t1 vector:      0.07663248      S-energy:    -0.00000000      T1 diagnostic:  0.01564254
                                                                       D1 diagnostic:  0.04210291

 Doubles amplitudes (print threshold =  0.500E-01):

         I         J         SYM. A    SYM. B    A         B      T(IJ, AB)

         6         6         2         2         1         1     -0.07887887
         6         6         2         2         1         2      0.05290257
         6         6         2         2         2         1      0.05290257


 Total CPU time for triples:    108.17 sec


 RESULTS
 =======

  Reference energy                   -129.849085146693
  CCSD singlet pair energy             -0.333650690346
  CCSD triplet pair energy             -0.147247286056
  CCSD correlation energy              -0.480897976404

  Triples (T) contribution             -0.022998687520
  Total correlation energy             -0.503896663924

  CCSD total energy                  -130.329983123097
  CCSD[T] energy                     -130.354070411068
  CCSD-T energy                      -130.352598134580
 !CCSD(T) total energy               -130.352981810617

 Timing summary (sec):

 STEP                 CPU(USER)    SYS     CPU(TOT)    WALL
 Transformation         10.72      1.71     12.43     12.58
 CCSD iterations       263.69     36.01    299.70    299.94
 Triples               108.17      2.16    110.33    110.40

 Program statistics:

 Available memory in ccsd:               994999756
 Min. memory needed in ccsd:               3348832
 Max. memory used in ccsd:                 4143652
 Max. memory used in cckext:               8340089 (25 integral passes)



 **********************************************************************************************************************************
 DATASETS  * FILE   NREC   LENGTH (MB)   RECORD NAMES
              1      20     6809.41       500      610      700      900      950      970     1000      129      960     1100   
                                          VAR    BASINP    GEOM    SYMINP    ZMAT    AOBASIS   BASIS     P2S    ABASIS      S 
                                         1400     1410     1200     1210     1080     1600     1650     1300     1700     1380   
                                           T        V       H0       H01     AOSYM     SMH    MOLCAS    ERIS     OPER     JKOP   

              2       4        4.02       700     1000      520     2100   
                                         GEOM     BASIS   MCVARS     RHF  

 PROGRAMS   *        TOTAL   CCSD(T)        HF       INT
 CPU TIMES  *       602.71    382.61     67.98    152.01
 REAL TIME  *       940.32 SEC
 DISK USED  *        21.32 GB      
 **********************************************************************************************************************************

 CCSD(T)/aug-cc-pV5Z energy=   -130.352981810617

        CCSD(T)         HF-SCF  
   -130.35298181   -129.84908515
 **********************************************************************************************************************************
 Molpro calculation terminated
 Variable memory released
