
 Primary working directories    : /tmp/r2666/234710.maple
 Secondary working directories  : /tmp/r2666/234710.maple
 Wavefunction directory         : /ddn/home4/r2666/wfu/
 Main file repository           : /tmp/r2666/234710.maple/

 SHA1      : d5ffa45e93fdbca01ffc919aa182cfdae0147319
 NAME      : 2015.1.35
 ARCHNAME  : linux/x86_64
 FC        : /opt/intel/composer_xe_2015.1.133/bin/intel64/ifort
 BLASLIB   : -Wl,-_start-group /opt/intel/mkl/lib/intel64/libmkl_intel_ilp64.a /opt/intel/mkl/lib/intel64/libmkl_intel_thread.a /opt/intel/mkl/lib/intel64/libmkl_core.a -Wl,-_end-group
 id        : olemiss

 Nodes     nprocs
 cn022        1

 Using customized tuning parameters: mindgm=1; mindgv=20; mindgc=4; mindgr=1; noblas=0; minvec=7
 default implementation of scratch files=df  

 ***,hno CCSD(T)/TZ-F12 QFF
 memory, 995, m;
 gthresh,energy=1.d-12,zero=1.d-22,oneint=1.d-22,twoint=1.d-22;
 gthresh,optgrad=1.d-8,optstep=1.d-8;
 nocompress;
 geomtyp=xyz
 bohr
 geometry={
 3
         82        82
 N        0.0000000000       -0.1546325333       -1.1492399406
 H        0.0000000000        1.6686154288       -1.9417895529
 O        0.0000000000        0.0277848945        1.1404399024
 }
 
 basis=av5z
   {hf,maxit=500;accu,20;}
 {ccsd(t),nocheck,maxit=250;orbital,IGNORE_ERROR;}

 Variables initialized (889), CPU time= 0.00 sec
 Commands  initialized (702), CPU time= 0.01 sec, 572 directives.
 Default parameters read. Elapsed time= 0.05 sec

 Checking input...
 Passed
1


                                         ***  PROGRAM SYSTEM MOLPRO  ***
                                       Copyright, TTI GmbH Stuttgart, 2015
                                    Version 2015.1 linked Jul  9 2018 13:16:40


 **********************************************************************************************************************************
 LABEL *   hno CCSD(T)/TZ-F12 QFF                                                        
  64 bit serial version                                                                  DATE: 08-Feb-20          TIME: 17:37:55  
 **********************************************************************************************************************************

 SHA1:             d5ffa45e93fdbca01ffc919aa182cfdae0147319
 **********************************************************************************************************************************

 THRESHOLDS:

 ZERO    =  1.00D-22  ONEINT  =  1.00D-22  TWOINT  =  1.00D-22  PREFAC  =  1.00D-14  LOCALI  =  1.00D-09  EORDER  =  1.00D-04
 ENERGY  =  1.00D-12  ETEST   =  0.00D+00  EDENS   =  0.00D+00  THRDEDEF=  1.00D-06  GRADIENT=  1.00D-02  STEP    =  1.00D-03
 ORBITAL =  1.00D-05  CIVEC   =  1.00D-05  COEFF   =  1.00D-04  PRINTCI =  5.00D-02  PUNCHCI =  9.90D+01  OPTGRAD =  3.00D-04
 OPTENERG=  1.00D-06  OPTSTEP =  3.00D-04  THRGRAD =  1.00D-10  COMPRESS=  1.00D-11  VARMIN  =  1.00D-07  VARMAX  =  1.00D-03
 THRDOUB =  0.00D+00  THRDIV  =  1.00D-05  THRRED  =  1.00D-07  THRPSP  =  1.00D+00  THRDC   =  1.00D-10  THRCS   =  1.00D-10
 THRNRM  =  1.00D-08  THREQ   =  0.00D+00  THRDE   =  1.00D+00  THRREF  =  1.00D-05  SPARFAC =  1.00D+00  THRDLP  =  1.00D-07
 THRDIA  =  1.00D-10  THRDLS  =  1.00D-07  THRGPS  =  0.00D+00  THRKEX  =  0.00D+00  THRDIS  =  2.00D-01  THRVAR  =  1.00D-10
 THRLOC  =  1.00D-06  THRGAP  =  1.00D-06  THRLOCT = -1.00D+00  THRGAPT = -1.00D+00  THRORB  =  1.00D-06  THRMLTP =  0.00D+00
 THRCPQCI=  1.00D-10  KEXTA   =  0.00D+00  THRCOARS=  0.00D+00  SYMTOL  =  1.00D-06  GRADTOL =  1.00D-06  THROVL  =  1.00D-08
 THRORTH =  1.00D-08  GRID    =  1.00D-06  GRIDMAX =  1.00D-03  DTMAX   =  0.00D+00  THROCCDE=  1.00D-01  THROCCDE=  1.00D-01



 THRESHOLDS:

 ZERO    =  1.00D-22  ONEINT  =  1.00D-22  TWOINT  =  1.00D-22  PREFAC  =  1.00D-14  LOCALI  =  1.00D-09  EORDER  =  1.00D-04
 ENERGY  =  1.00D-12  ETEST   =  0.00D+00  EDENS   =  0.00D+00  THRDEDEF=  1.00D-06  GRADIENT=  1.00D-02  STEP    =  1.00D-03
 ORBITAL =  1.00D-05  CIVEC   =  1.00D-05  COEFF   =  1.00D-04  PRINTCI =  5.00D-02  PUNCHCI =  9.90D+01  OPTGRAD =  1.00D-08
 OPTENERG=  1.00D-06  OPTSTEP =  1.00D-08  THRGRAD =  1.00D-10  COMPRESS=  1.00D-11  VARMIN  =  1.00D-07  VARMAX  =  1.00D-03
 THRDOUB =  0.00D+00  THRDIV  =  1.00D-05  THRRED  =  1.00D-07  THRPSP  =  1.00D+00  THRDC   =  1.00D-10  THRCS   =  1.00D-10
 THRNRM  =  1.00D-08  THREQ   =  0.00D+00  THRDE   =  1.00D+00  THRREF  =  1.00D-05  SPARFAC =  1.00D+00  THRDLP  =  1.00D-07
 THRDIA  =  1.00D-10  THRDLS  =  1.00D-07  THRGPS  =  0.00D+00  THRKEX  =  0.00D+00  THRDIS  =  2.00D-01  THRVAR  =  1.00D-10
 THRLOC  =  1.00D-06  THRGAP  =  1.00D-06  THRLOCT = -1.00D+00  THRGAPT = -1.00D+00  THRORB  =  1.00D-06  THRMLTP =  0.00D+00
 THRCPQCI=  1.00D-10  KEXTA   =  0.00D+00  THRCOARS=  0.00D+00  SYMTOL  =  1.00D-06  GRADTOL =  1.00D-06  THROVL  =  1.00D-08
 THRORTH =  1.00D-08  GRID    =  1.00D-06  GRIDMAX =  1.00D-03  DTMAX   =  0.00D+00  THROCCDE=  1.00D-01  THROCCDE=  1.00D-01



 Input parameters for SORTINT:

 COMPRESS =    0.000000
 C_FINAL  =    1.000000
 DEBUG    =   -1.000000
 C_SORT1  =    0.000000
 C_SEWARD =    0.000000
 THRESH   =    0.000000
 IO       =  molpro                                                          
 SPRI     =    0.000000
 SETTING GEOMTYP        =    XYZ
 ZUNIT=BOHR
 

 Variable memory set to  995000000 words,  buffer space   230000 words

 SETTING BASIS          =    AV5Z


 Recomputing integrals since basis changed


 Using spherical harmonics

 Library entry N      S aug-cc-pV5Z          selected for orbital group  1
 Library entry N      P aug-cc-pV5Z          selected for orbital group  1
 Library entry N      D aug-cc-pV5Z          selected for orbital group  1
 Library entry N      F aug-cc-pV5Z          selected for orbital group  1
 Library entry N      G aug-cc-pV5Z          selected for orbital group  1
 Library entry N      H aug-cc-pV5Z          selected for orbital group  1
 Library entry H      S aug-cc-pV5Z          selected for orbital group  2
 Library entry H      P aug-cc-pV5Z          selected for orbital group  2
 Library entry H      D aug-cc-pV5Z          selected for orbital group  2
 Library entry H      F aug-cc-pV5Z          selected for orbital group  2
 Library entry H      G aug-cc-pV5Z          selected for orbital group  2
 Library entry O      S aug-cc-pV5Z          selected for orbital group  3
 Library entry O      P aug-cc-pV5Z          selected for orbital group  3
 Library entry O      D aug-cc-pV5Z          selected for orbital group  3
 Library entry O      F aug-cc-pV5Z          selected for orbital group  3
 Library entry O      G aug-cc-pV5Z          selected for orbital group  3
 Library entry O      H aug-cc-pV5Z          selected for orbital group  3


 PROGRAM * SEWARD (Integral evaluation for generally contracted gaussian basis sets)     Author: Roland Lindh, 1990

 Geometry written to block  1 of record 700


 Point group  Cs  



 ATOMIC COORDINATES

 NR  ATOM    CHARGE       X              Y              Z

   1  N       7.00    0.000000000   -0.154632533   -1.149239941
   2  H       1.00    0.000000000    1.668615429   -1.941789553
   3  O       8.00    0.000000000    0.027784895    1.140439902

 Bond lengths in Bohr (Angstrom)

 1-2  1.988056342  1-3  2.296934893
     ( 1.052034110)     ( 1.215485600)

 Bond angles

  2-1-3  108.93905525

 NUCLEAR CHARGE:                   16
 NUMBER OF PRIMITIVE AOS:         506
 NUMBER OF SYMMETRY AOS:          371
 NUMBER OF CONTRACTIONS:          334   ( 204A'  + 130A"  )
 NUMBER OF CORE ORBITALS:           2   (   2A'  +   0A"  )
 NUMBER OF VALENCE ORBITALS:        9   (   7A'  +   2A"  )


 NUCLEAR REPULSION ENERGY   30.19244475


 Eigenvalues of metric

         1 0.114E-04 0.175E-04 0.636E-04 0.102E-03 0.107E-03 0.138E-03 0.200E-03 0.225E-03
         2 0.130E-03 0.364E-03 0.115E-02 0.164E-02 0.194E-02 0.258E-02 0.328E-02 0.394E-02


 Contracted 2-electron integrals neglected if value below      1.0D-22

      756969986. INTEGRALS WRITTEN OUT IN  184853 BLOCKS ON RECORD 1290 OF FILE 1


 NUMBER OF SORTED TWO-ELECTRON INTEGRALS:  789027325.     BUFFER LENGTH:  32768
 NUMBER OF SEGMENTS:  25  SEGMENT LENGTH:   31997130      RECORD LENGTH: 524288

 Memory used in sort:      32.55 MW

 SORT1 READ   756969986. AND WROTE   760985873. INTEGRALS IN   2189 RECORDS. CPU TIME:    19.90 SEC, REAL TIME:    35.28 SEC
 SORT2 READ   760985873. AND WROTE   789027325. INTEGRALS IN     25 RECORDS. CPU TIME:    11.12 SEC, REAL TIME:    44.75 SEC

 FILE SIZES:   FILE 1: 12137.4 MBYTE,  FILE 4:  9181.4 MBYTE,   TOTAL:  21318.7 MBYTE

 OPERATOR DM      FOR CENTER  0  COORDINATES:    0.000000    0.000000    0.000000


 **********************************************************************************************************************************
 DATASETS  * FILE   NREC   LENGTH (MB)   RECORD NAMES
              1      19     6374.17       500      610      700      900      950      970     1000      129      960     1100   
                                          VAR    BASINP    GEOM    SYMINP    ZMAT    AOBASIS   BASIS     P2S    ABASIS      S 
                                         1400     1410     1200     1210     1080     1600     1650     1300     1700   
                                           T        V       H0       H01     AOSYM     SMH    MOLCAS    ERIS     OPER   

 PROGRAMS   *        TOTAL       INT
 CPU TIMES  *       124.10    123.99
 REAL TIME  *       181.50 SEC
 DISK USED  *        21.32 GB      
 **********************************************************************************************************************************


 PROGRAM * RHF-SCF (CLOSED SHELL)       Authors: W. Meyer, H.-J. Werner


 NUMBER OF ELECTRONS:       8+    8-
 CONVERGENCE THRESHOLDS:    1.00E-10 (Density)    1.00E-13 (Energy)
 MAX. NUMBER OF ITERATIONS:      500
 INTERPOLATION TYPE:            DIIS
 INTERPOLATION STEPS:              2 (START)      1 (STEP)
 LEVEL SHIFTS:                  0.00 (CLOSED)  0.00 (OPEN) 



 Orbital guess generated from atomic densities. Full valence occupancy:    9   2

 Molecular orbital dump at record        2100.2

 Initial occupancy:   7   1

 ITERATION    DDIFF          GRAD             ENERGY        2-EL.EN.            DIPOLE MOMENTS         DIIS   ORB.
    1      0.000D+00      0.000D+00      -129.79629299    153.658979    0.00000    0.60526   -1.05522    0    start
    2      0.000D+00      0.646D-02      -129.82324154    154.867757    0.00000    0.61456   -0.20679    1    diag
    3      0.407D-02      0.501D-02      -129.84748083    155.011631    0.00000    0.56295   -0.60871    2    diag
    4      0.211D-02      0.778D-03      -129.84830640    154.720523    0.00000    0.56975   -0.54553    3    diag
    5      0.383D-03      0.252D-03      -129.84843541    154.815249    0.00000    0.57508   -0.54796    4    diag
    6      0.158D-03      0.728D-04      -129.84845605    154.798830    0.00000    0.57532   -0.54360    5    diag
    7      0.608D-04      0.365D-04      -129.84846217    154.801547    0.00000    0.57654   -0.54088    6    diag
    8      0.419D-04      0.132D-04      -129.84846292    154.800815    0.00000    0.57658   -0.53979    7    diag
    9      0.168D-04      0.258D-05      -129.84846295    154.800696    0.00000    0.57654   -0.53955    8    diag
   10      0.347D-05      0.577D-06      -129.84846295    154.800677    0.00000    0.57651   -0.53952    9    orth
   11      0.658D-06      0.114D-06      -129.84846296    154.800673    0.00000    0.57650   -0.53952    9    diag
   12      0.120D-06      0.235D-07      -129.84846296    154.800673    0.00000    0.57650   -0.53952    9    diag
   13      0.256D-07      0.628D-08      -129.84846296    154.800673    0.00000    0.57650   -0.53952    9    diag
   14      0.710D-08      0.122D-08      -129.84846296    154.800673    0.00000    0.57650   -0.53952    9    diag
   15      0.129D-08      0.344D-09      -129.84846296    154.800673    0.00000    0.57650   -0.53952    9    diag
   16      0.387D-09      0.101D-09      -129.84846296    154.800673    0.00000    0.57650   -0.53952    9    diag
   17      0.733D-10      0.253D-10      -129.84846296    154.800673    0.00000    0.57650   -0.53952    9    diag
   18      0.258D-10      0.837D-11      -129.84846296    154.800673    0.00000    0.57650   -0.53952    9    diag
   19      0.188D-10      0.198D-11      -129.84846296    154.800673    0.00000    0.57650   -0.53952    9    fixocc
   20      0.146D-10      0.464D-12      -129.84846296    154.800673    0.00000    0.57650   -0.53952    9    orth
   21      0.951D-11      0.450D-12      -129.84846296    154.800673    0.00000    0.57650   -0.53952    0    orth

 Final occupancy:   7   1

 !RHF STATE 1.1 Energy               -129.848462955035
 Nuclear energy                        30.19244475
 One-electron energy                 -237.44124409
 Two-electron energy                   77.40033639
 Virial quotient                       -1.00194384
 !RHF STATE 1.1 Dipole moment           0.00000000     0.57649755    -0.53951662
 Dipole moment /Debye                   0.00000000     1.46521465    -1.37122466

 Orbital energies:

         1.1          2.1          3.1          4.1          5.1          6.1          7.1          8.1          9.1
    -20.653841   -15.713326    -1.522812    -0.996588    -0.744883    -0.664090    -0.432342     0.022714     0.065526

         1.2          2.2          3.2
     -0.592404     0.058523     0.090927

 HOMO      7.1    -0.432342 =     -11.7646eV
 LUMO      8.1     0.022714 =       0.6181eV
 LUMO-HOMO         0.455057 =      12.3827eV


 **********************************************************************************************************************************
 DATASETS  * FILE   NREC   LENGTH (MB)   RECORD NAMES
              1      19     6374.17       500      610      700      900      950      970     1000      129      960     1100   
                                          VAR    BASINP    GEOM    SYMINP    ZMAT    AOBASIS   BASIS     P2S    ABASIS      S 
                                         1400     1410     1200     1210     1080     1600     1650     1300     1700   
                                           T        V       H0       H01     AOSYM     SMH    MOLCAS    ERIS     OPER   

              2       4        4.02       700     1000      520     2100   
                                         GEOM     BASIS   MCVARS     RHF  

 PROGRAMS   *        TOTAL        HF       INT
 CPU TIMES  *       214.62     90.52    123.99
 REAL TIME  *       292.18 SEC
 DISK USED  *        21.32 GB      
 **********************************************************************************************************************************


 PROGRAM * CCSD (Closed-shell coupled cluster)     Authors: C. Hampel, H.-J. Werner, 1991, M. Deegan, P.J. Knowles, 1992


 Convergence thresholds:  THRVAR = 1.00D-08  THRDEN = 1.00D-12

 CCSD(T)     terms to be evaluated (factor= 1.000)


 Number of core orbitals:           2 (   2   0 )
 Number of closed-shell orbitals:   6 (   5   1 )
 Number of external orbitals:     326 ( 197 129 )

 Molecular orbitals read from record     2100.2  Type=RHF/CANONICAL (state 1.1)

 Number of N-1 electron functions:               6
 Number of N-2 electron functions:              21
 Number of singly external CSFs:              1114
 Number of doubly external CSFs:            975958
 Total number of CSFs:                      977073

 Length of J-op  integral file:               0.00 MB
 Length of K-op  integral file:               4.07 MB
 Length of 3-ext integral record:             0.00 MB

 Memory could be reduced to 151.33 Mwords without degradation in triples

 Integral transformation finished. Total CPU:  14.29 sec, npass=  1  Memory used:  41.21 MW

 Reference energy:                   -129.84846296

 MP2 singlet pair energy:              -0.31193600
 MP2 triplet pair energy:              -0.17252914
 MP2 correlation energy:               -0.48446514
 MP2 total energy:                   -130.33292810

 SCS-MP2 correlation energy:           -0.48167467   (PS=  1.200000  PT=  0.333333)
 SCS-MP2 total energy:               -130.33013762

 ITER.      SQ.NORM     CORR.ENERGY   TOTAL ENERGY   ENERGY CHANGE        DEN1      VAR(S)    VAR(P)  DIIS     TIME  TIME/IT
   1      1.12141195    -0.48115468  -130.32961763     0.00331046     0.02032695  0.33D-02  0.33D-02  1  1    26.25    12.82
   2      1.13224529    -0.48096942  -130.32943237     0.00018526    -0.01288654  0.11D-03  0.50D-03  2  2    38.45    12.99
   3      1.13855333    -0.48136399  -130.32982694    -0.00039457    -0.00304598  0.51D-04  0.59D-04  3  3    50.57    13.05
   4      1.14144194    -0.48136202  -130.32982497     0.00000197    -0.00099433  0.49D-05  0.10D-04  4  4    62.80    13.08
   5      1.14263582    -0.48139265  -130.32985561    -0.00003063    -0.00026377  0.12D-05  0.17D-05  5  5    74.96    13.10
   6      1.14300982    -0.48138023  -130.32984318     0.00001242    -0.00005299  0.12D-06  0.41D-06  6  6    87.08    13.11
   7      1.14308768    -0.48137990  -130.32984285     0.00000033     0.00000371  0.17D-07  0.96D-07  6  1    99.19    13.12
   8      1.14311373    -0.48137987  -130.32984282     0.00000003    -0.00000323  0.35D-08  0.20D-07  6  2   111.39    13.13
   9      1.14312252    -0.48137927  -130.32984223     0.00000060    -0.00000013  0.24D-08  0.22D-08  6  3   123.58    13.14
  10      1.14311764    -0.48138005  -130.32984300    -0.00000078     0.00000166  0.38D-09  0.37D-09  6  5   135.65    13.14
  11      1.14311979    -0.48138003  -130.32984298     0.00000002    -0.00000041  0.11D-09  0.31D-10  6  4   147.70    13.14
  12      1.14311933    -0.48138010  -130.32984305    -0.00000007     0.00000005  0.20D-10  0.71D-11  6  6   159.96    13.15
  13      1.14311911    -0.48138010  -130.32984306    -0.00000000    -0.00000004  0.34D-11  0.10D-11  6  1   172.16    13.15
  14      1.14311882    -0.48138011  -130.32984307    -0.00000001     0.00000004  0.46D-12  0.19D-12  6  3   184.37    13.15
  15      1.14311874    -0.48138012  -130.32984307    -0.00000000     0.00000001  0.13D-12  0.24D-13  6  2   196.55    13.15
  16      1.14311873    -0.48138012  -130.32984307     0.00000000     0.00000000  0.35D-13  0.92D-14  6  4   208.59    13.16
  17      1.14311873    -0.48138012  -130.32984307    -0.00000000    -0.00000000  0.21D-14  0.12D-14  6  5   220.77    13.16
  18      1.14311873    -0.48138012  -130.32984307     0.00000000    -0.00000000  0.30D-15  0.31D-15  6  6   232.93    13.16
  19      1.14311874    -0.48138012  -130.32984307     0.00000000    -0.00000000  0.54D-16  0.43D-16  6  1   245.14    13.16
  20      1.14311874    -0.48138012  -130.32984307     0.00000000    -0.00000000  0.12D-16  0.65D-17  6  3   257.28    13.16
  21      1.14311874    -0.48138012  -130.32984307    -0.00000000     0.00000000  0.22D-17  0.12D-17  6  2   269.42    13.16
  22      1.14311874    -0.48138012  -130.32984307    -0.00000000     0.00000000  0.39D-18  0.18D-18  6  4   281.50    13.16
  23      1.14311874    -0.48138012  -130.32984307    -0.00000000     0.00000000  0.89D-19  0.49D-19  6  5   293.61    13.16
  24      1.14311874    -0.48138012  -130.32984307    -0.00000000     0.00000000  0.32D-19  0.21D-19  6  6   305.75    13.16
  25      1.14311874    -0.48138012  -130.32984307     0.00000000    -0.00000000  0.18D-19  0.11D-19  6  1   317.88    13.16

 Norm of t1 vector:      0.07771257      S-energy:    -0.00000000      T1 diagnostic:  0.01586301
                                                                       D1 diagnostic:  0.04326383

 Doubles amplitudes (print threshold =  0.500E-01):

         I         J         SYM. A    SYM. B    A         B      T(IJ, AB)

         6         6         2         2         1         1     -0.08495689
         6         6         2         2         1         2      0.05289221
         6         6         2         2         2         1      0.05289221


 Total CPU time for triples:    131.46 sec


 RESULTS
 =======

  Reference energy                   -129.848462955035
  CCSD singlet pair energy             -0.334080852448
  CCSD triplet pair energy             -0.147299264650
  CCSD correlation energy              -0.481380117101

  Triples (T) contribution             -0.023169145426
  Total correlation energy             -0.504549262527

  CCSD total energy                  -130.329843072135
  CCSD[T] energy                     -130.354128219508
  CCSD-T energy                      -130.352624064179
 !CCSD(T) total energy               -130.353012217561

 Timing summary (sec):

 STEP                 CPU(USER)    SYS     CPU(TOT)    WALL
 Transformation         14.37      1.37     15.74     15.75
 CCSD iterations       303.53     25.52    329.05    329.05
 Triples               131.46      1.74    133.20    133.22

 Program statistics:

 Available memory in ccsd:               994999756
 Min. memory needed in ccsd:               3348832
 Max. memory used in ccsd:                 4143652
 Max. memory used in cckext:               8340089 (25 integral passes)



 **********************************************************************************************************************************
 DATASETS  * FILE   NREC   LENGTH (MB)   RECORD NAMES
              1      20     6809.36       500      610      700      900      950      970     1000      129      960     1100   
                                          VAR    BASINP    GEOM    SYMINP    ZMAT    AOBASIS   BASIS     P2S    ABASIS      S 
                                         1400     1410     1200     1210     1080     1600     1650     1300     1700     1380   
                                           T        V       H0       H01     AOSYM     SMH    MOLCAS    ERIS     OPER     JKOP   

              2       4        4.02       700     1000      520     2100   
                                         GEOM     BASIS   MCVARS     RHF  

 PROGRAMS   *        TOTAL   CCSD(T)        HF       INT
 CPU TIMES  *       664.00    449.38     90.52    123.99
 REAL TIME  *       770.26 SEC
 DISK USED  *        21.32 GB      
 **********************************************************************************************************************************

 CCSD(T)/aug-cc-pV5Z energy=   -130.353012217561

        CCSD(T)         HF-SCF  
   -130.35301222   -129.84846296
 **********************************************************************************************************************************
 Molpro calculation terminated
 Variable memory released
