
 Primary working directories    : /tmp/r2666/234725.maple
 Secondary working directories  : /tmp/r2666/234725.maple
 Wavefunction directory         : /ddn/home4/r2666/wfu/
 Main file repository           : /tmp/r2666/234725.maple/

 SHA1      : d5ffa45e93fdbca01ffc919aa182cfdae0147319
 NAME      : 2015.1.35
 ARCHNAME  : linux/x86_64
 FC        : /opt/intel/composer_xe_2015.1.133/bin/intel64/ifort
 BLASLIB   : -Wl,-_start-group /opt/intel/mkl/lib/intel64/libmkl_intel_ilp64.a /opt/intel/mkl/lib/intel64/libmkl_intel_thread.a /opt/intel/mkl/lib/intel64/libmkl_core.a -Wl,-_end-group
 id        : olemiss

 Nodes     nprocs
 cn037        1

 Using customized tuning parameters: mindgm=1; mindgv=20; mindgc=4; mindgr=1; noblas=0; minvec=7
 default implementation of scratch files=df  

 ***,hno CCSD(T)/TZ-F12 QFF
 memory, 995, m;
 gthresh,energy=1.d-12,zero=1.d-22,oneint=1.d-22,twoint=1.d-22;
 gthresh,optgrad=1.d-8,optstep=1.d-8;
 nocompress;
 geomtyp=xyz
 bohr
 geometry={
 3
         97        97
 N        0.0000000000       -0.1635617136       -1.1401738589
 H        0.0000000000        1.6704419361       -1.9316640523
 O        0.0000000000        0.0348875675        1.1212483202
 }
 
 basis=av5z
   {hf,maxit=500;accu,20;}
 {ccsd(t),nocheck,maxit=250;orbital,IGNORE_ERROR;}

 Variables initialized (889), CPU time= 0.00 sec
 Commands  initialized (702), CPU time= 0.01 sec, 572 directives.
 Default parameters read. Elapsed time= 0.06 sec

 Checking input...
 Passed
1


                                         ***  PROGRAM SYSTEM MOLPRO  ***
                                       Copyright, TTI GmbH Stuttgart, 2015
                                    Version 2015.1 linked Jul  9 2018 13:16:40


 **********************************************************************************************************************************
 LABEL *   hno CCSD(T)/TZ-F12 QFF                                                        
  64 bit serial version                                                                  DATE: 08-Feb-20          TIME: 17:39:55  
 **********************************************************************************************************************************

 SHA1:             d5ffa45e93fdbca01ffc919aa182cfdae0147319
 **********************************************************************************************************************************

 THRESHOLDS:

 ZERO    =  1.00D-22  ONEINT  =  1.00D-22  TWOINT  =  1.00D-22  PREFAC  =  1.00D-14  LOCALI  =  1.00D-09  EORDER  =  1.00D-04
 ENERGY  =  1.00D-12  ETEST   =  0.00D+00  EDENS   =  0.00D+00  THRDEDEF=  1.00D-06  GRADIENT=  1.00D-02  STEP    =  1.00D-03
 ORBITAL =  1.00D-05  CIVEC   =  1.00D-05  COEFF   =  1.00D-04  PRINTCI =  5.00D-02  PUNCHCI =  9.90D+01  OPTGRAD =  3.00D-04
 OPTENERG=  1.00D-06  OPTSTEP =  3.00D-04  THRGRAD =  1.00D-10  COMPRESS=  1.00D-11  VARMIN  =  1.00D-07  VARMAX  =  1.00D-03
 THRDOUB =  0.00D+00  THRDIV  =  1.00D-05  THRRED  =  1.00D-07  THRPSP  =  1.00D+00  THRDC   =  1.00D-10  THRCS   =  1.00D-10
 THRNRM  =  1.00D-08  THREQ   =  0.00D+00  THRDE   =  1.00D+00  THRREF  =  1.00D-05  SPARFAC =  1.00D+00  THRDLP  =  1.00D-07
 THRDIA  =  1.00D-10  THRDLS  =  1.00D-07  THRGPS  =  0.00D+00  THRKEX  =  0.00D+00  THRDIS  =  2.00D-01  THRVAR  =  1.00D-10
 THRLOC  =  1.00D-06  THRGAP  =  1.00D-06  THRLOCT = -1.00D+00  THRGAPT = -1.00D+00  THRORB  =  1.00D-06  THRMLTP =  0.00D+00
 THRCPQCI=  1.00D-10  KEXTA   =  0.00D+00  THRCOARS=  0.00D+00  SYMTOL  =  1.00D-06  GRADTOL =  1.00D-06  THROVL  =  1.00D-08
 THRORTH =  1.00D-08  GRID    =  1.00D-06  GRIDMAX =  1.00D-03  DTMAX   =  0.00D+00  THROCCDE=  1.00D-01  THROCCDE=  1.00D-01



 THRESHOLDS:

 ZERO    =  1.00D-22  ONEINT  =  1.00D-22  TWOINT  =  1.00D-22  PREFAC  =  1.00D-14  LOCALI  =  1.00D-09  EORDER  =  1.00D-04
 ENERGY  =  1.00D-12  ETEST   =  0.00D+00  EDENS   =  0.00D+00  THRDEDEF=  1.00D-06  GRADIENT=  1.00D-02  STEP    =  1.00D-03
 ORBITAL =  1.00D-05  CIVEC   =  1.00D-05  COEFF   =  1.00D-04  PRINTCI =  5.00D-02  PUNCHCI =  9.90D+01  OPTGRAD =  1.00D-08
 OPTENERG=  1.00D-06  OPTSTEP =  1.00D-08  THRGRAD =  1.00D-10  COMPRESS=  1.00D-11  VARMIN  =  1.00D-07  VARMAX  =  1.00D-03
 THRDOUB =  0.00D+00  THRDIV  =  1.00D-05  THRRED  =  1.00D-07  THRPSP  =  1.00D+00  THRDC   =  1.00D-10  THRCS   =  1.00D-10
 THRNRM  =  1.00D-08  THREQ   =  0.00D+00  THRDE   =  1.00D+00  THRREF  =  1.00D-05  SPARFAC =  1.00D+00  THRDLP  =  1.00D-07
 THRDIA  =  1.00D-10  THRDLS  =  1.00D-07  THRGPS  =  0.00D+00  THRKEX  =  0.00D+00  THRDIS  =  2.00D-01  THRVAR  =  1.00D-10
 THRLOC  =  1.00D-06  THRGAP  =  1.00D-06  THRLOCT = -1.00D+00  THRGAPT = -1.00D+00  THRORB  =  1.00D-06  THRMLTP =  0.00D+00
 THRCPQCI=  1.00D-10  KEXTA   =  0.00D+00  THRCOARS=  0.00D+00  SYMTOL  =  1.00D-06  GRADTOL =  1.00D-06  THROVL  =  1.00D-08
 THRORTH =  1.00D-08  GRID    =  1.00D-06  GRIDMAX =  1.00D-03  DTMAX   =  0.00D+00  THROCCDE=  1.00D-01  THROCCDE=  1.00D-01



 Input parameters for SORTINT:

 COMPRESS =    0.000000
 C_FINAL  =    1.000000
 DEBUG    =   -1.000000
 C_SORT1  =    0.000000
 C_SEWARD =    0.000000
 THRESH   =    0.000000
 IO       =  molpro                                                          
 SPRI     =    0.000000
 SETTING GEOMTYP        =    XYZ
 ZUNIT=BOHR
 

 Variable memory set to  995000000 words,  buffer space   230000 words

 SETTING BASIS          =    AV5Z


 Recomputing integrals since basis changed


 Using spherical harmonics

 Library entry N      S aug-cc-pV5Z          selected for orbital group  1
 Library entry N      P aug-cc-pV5Z          selected for orbital group  1
 Library entry N      D aug-cc-pV5Z          selected for orbital group  1
 Library entry N      F aug-cc-pV5Z          selected for orbital group  1
 Library entry N      G aug-cc-pV5Z          selected for orbital group  1
 Library entry N      H aug-cc-pV5Z          selected for orbital group  1
 Library entry H      S aug-cc-pV5Z          selected for orbital group  2
 Library entry H      P aug-cc-pV5Z          selected for orbital group  2
 Library entry H      D aug-cc-pV5Z          selected for orbital group  2
 Library entry H      F aug-cc-pV5Z          selected for orbital group  2
 Library entry H      G aug-cc-pV5Z          selected for orbital group  2
 Library entry O      S aug-cc-pV5Z          selected for orbital group  3
 Library entry O      P aug-cc-pV5Z          selected for orbital group  3
 Library entry O      D aug-cc-pV5Z          selected for orbital group  3
 Library entry O      F aug-cc-pV5Z          selected for orbital group  3
 Library entry O      G aug-cc-pV5Z          selected for orbital group  3
 Library entry O      H aug-cc-pV5Z          selected for orbital group  3


 PROGRAM * SEWARD (Integral evaluation for generally contracted gaussian basis sets)     Author: Roland Lindh, 1990

 Geometry written to block  1 of record 700


 Point group  Cs  



 ATOMIC COORDINATES

 NR  ATOM    CHARGE       X              Y              Z

   1  N       7.00    0.000000000   -0.163561714   -1.140173859
   2  H       1.00    0.000000000    1.670441936   -1.931664052
   3  O       8.00    0.000000000    0.034887568    1.121248320

 Bond lengths in Bohr (Angstrom)

 1-2  1.997504972  1-3  2.270112858
     ( 1.057034110)     ( 1.201291991)

 Bond angles

  2-1-3  108.32819752

 NUCLEAR CHARGE:                   16
 NUMBER OF PRIMITIVE AOS:         506
 NUMBER OF SYMMETRY AOS:          371
 NUMBER OF CONTRACTIONS:          334   ( 204A'  + 130A"  )
 NUMBER OF CORE ORBITALS:           2   (   2A'  +   0A"  )
 NUMBER OF VALENCE ORBITALS:        9   (   7A'  +   2A"  )


 NUCLEAR REPULSION ENERGY   30.48260114


 Eigenvalues of metric

         1 0.112E-04 0.170E-04 0.638E-04 0.984E-04 0.103E-03 0.135E-03 0.199E-03 0.224E-03
         2 0.125E-03 0.369E-03 0.110E-02 0.153E-02 0.196E-02 0.248E-02 0.330E-02 0.391E-02


 Contracted 2-electron integrals neglected if value below      1.0D-22

      756977439. INTEGRALS WRITTEN OUT IN  184855 BLOCKS ON RECORD 1290 OF FILE 1


 NUMBER OF SORTED TWO-ELECTRON INTEGRALS:  789027325.     BUFFER LENGTH:  32768
 NUMBER OF SEGMENTS:  25  SEGMENT LENGTH:   31997130      RECORD LENGTH: 524288

 Memory used in sort:      32.55 MW

 SORT1 READ   756977439. AND WROTE   760993323. INTEGRALS IN   2189 RECORDS. CPU TIME:    24.25 SEC, REAL TIME:    70.34 SEC
 SORT2 READ   760993323. AND WROTE   789027325. INTEGRALS IN     25 RECORDS. CPU TIME:    13.05 SEC, REAL TIME:   109.36 SEC

 FILE SIZES:   FILE 1: 12137.5 MBYTE,  FILE 4:  9181.4 MBYTE,   TOTAL:  21318.9 MBYTE

 OPERATOR DM      FOR CENTER  0  COORDINATES:    0.000000    0.000000    0.000000


 **********************************************************************************************************************************
 DATASETS  * FILE   NREC   LENGTH (MB)   RECORD NAMES
              1      19     6374.22       500      610      700      900      950      970     1000      129      960     1100   
                                          VAR    BASINP    GEOM    SYMINP    ZMAT    AOBASIS   BASIS     P2S    ABASIS      S 
                                         1400     1410     1200     1210     1080     1600     1650     1300     1700   
                                           T        V       H0       H01     AOSYM     SMH    MOLCAS    ERIS     OPER   

 PROGRAMS   *        TOTAL       INT
 CPU TIMES  *       146.14    146.05
 REAL TIME  *       296.84 SEC
 DISK USED  *        21.32 GB      
 **********************************************************************************************************************************


 PROGRAM * RHF-SCF (CLOSED SHELL)       Authors: W. Meyer, H.-J. Werner


 NUMBER OF ELECTRONS:       8+    8-
 CONVERGENCE THRESHOLDS:    1.00E-10 (Density)    1.00E-13 (Energy)
 MAX. NUMBER OF ITERATIONS:      500
 INTERPOLATION TYPE:            DIIS
 INTERPOLATION STEPS:              2 (START)      1 (STEP)
 LEVEL SHIFTS:                  0.00 (CLOSED)  0.00 (OPEN) 



 Orbital guess generated from atomic densities. Full valence occupancy:    9   2

 Molecular orbital dump at record        2100.2

 Initial occupancy:   7   1

 ITERATION    DDIFF          GRAD             ENERGY        2-EL.EN.            DIPOLE MOMENTS         DIIS   ORB.
    1      0.000D+00      0.000D+00      -129.79996261    154.177854    0.00000    0.59026   -1.00834    0    start
    2      0.000D+00      0.638D-02      -129.82737441    155.417726    0.00000    0.60565   -0.20889    1    diag
    3      0.396D-02      0.481D-02      -129.84949994    155.528520    0.00000    0.55219   -0.58424    2    diag
    4      0.204D-02      0.762D-03      -129.85029218    155.248240    0.00000    0.55961   -0.52370    3    diag
    5      0.375D-03      0.247D-03      -129.85041652    155.341812    0.00000    0.56494   -0.52636    4    diag
    6      0.155D-03      0.718D-04      -129.85043644    155.325516    0.00000    0.56524   -0.52225    5    diag
    7      0.597D-04      0.355D-04      -129.85044214    155.328395    0.00000    0.56651   -0.51972    6    diag
    8      0.407D-04      0.123D-04      -129.85044276    155.327708    0.00000    0.56656   -0.51874    7    diag
    9      0.152D-04      0.236D-05      -129.85044279    155.327599    0.00000    0.56652   -0.51853    8    diag
   10      0.303D-05      0.540D-06      -129.85044279    155.327581    0.00000    0.56649   -0.51850    9    orth
   11      0.611D-06      0.110D-06      -129.85044279    155.327577    0.00000    0.56648   -0.51849    9    diag
   12      0.117D-06      0.221D-07      -129.85044279    155.327577    0.00000    0.56648   -0.51849    9    diag
   13      0.254D-07      0.575D-08      -129.85044279    155.327577    0.00000    0.56648   -0.51849    9    diag
   14      0.678D-08      0.113D-08      -129.85044279    155.327577    0.00000    0.56648   -0.51849    9    diag
   15      0.125D-08      0.328D-09      -129.85044279    155.327577    0.00000    0.56648   -0.51849    9    diag
   16      0.376D-09      0.101D-09      -129.85044279    155.327577    0.00000    0.56648   -0.51849    9    diag
   17      0.752D-10      0.275D-10      -129.85044279    155.327577    0.00000    0.56648   -0.51849    9    diag
   18      0.277D-10      0.945D-11      -129.85044279    155.327577    0.00000    0.56648   -0.51849    9    diag
   19      0.225D-10      0.236D-11      -129.85044279    155.327577    0.00000    0.56648   -0.51849    9    fixocc
   20      0.964D-11      0.664D-12      -129.85044279    155.327577    0.00000    0.56648   -0.51849    9    orth
   21      0.934D-11      0.391D-12      -129.85044279    155.327577    0.00000    0.56648   -0.51849    9    diag
   22      0.796D-11      0.370D-12      -129.85044279    155.327577    0.00000    0.56648   -0.51849    9    diag
   23      0.525D-11      0.466D-12      -129.85044279    155.327577    0.00000    0.56648   -0.51849    9    diag
   24      0.319D-11      0.476D-12      -129.85044279    155.327577    0.00000    0.56648   -0.51849    9    diag
   25      0.293D-11      0.239D-12      -129.85044279    155.327577    0.00000    0.56648   -0.51849    9    diag
   26      0.251D-11      0.388D-12      -129.85044279    155.327577    0.00000    0.56648   -0.51849    9    diag
   27      0.126D-11      0.288D-12      -129.85044279    155.327577    0.00000    0.56648   -0.51849    0    orth

 Final occupancy:   7   1

 !RHF STATE 1.1 Energy               -129.850442791367
 Nuclear energy                        30.48260114
 One-electron energy                 -237.99683221
 Two-electron energy                   77.66378828
 Virial quotient                       -1.00156213
 !RHF STATE 1.1 Dipole moment           0.00000000     0.56647905    -0.51849180
 Dipole moment /Debye                   0.00000000     1.43975182    -1.31778839

 Orbital energies:

         1.1          2.1          3.1          4.1          5.1          6.1          7.1          8.1          9.1
    -20.652441   -15.711681    -1.534682    -0.991656    -0.748684    -0.668063    -0.428116     0.022920     0.065556

         1.2          2.2          3.2
     -0.599305     0.061496     0.092274

 HOMO      7.1    -0.428116 =     -11.6496eV
 LUMO      8.1     0.022920 =       0.6237eV
 LUMO-HOMO         0.451036 =      12.2733eV


 **********************************************************************************************************************************
 DATASETS  * FILE   NREC   LENGTH (MB)   RECORD NAMES
              1      19     6374.22       500      610      700      900      950      970     1000      129      960     1100   
                                          VAR    BASINP    GEOM    SYMINP    ZMAT    AOBASIS   BASIS     P2S    ABASIS      S 
                                         1400     1410     1200     1210     1080     1600     1650     1300     1700   
                                           T        V       H0       H01     AOSYM     SMH    MOLCAS    ERIS     OPER   

              2       4        4.02       700     1000      520     2100   
                                         GEOM     BASIS   MCVARS     RHF  

 PROGRAMS   *        TOTAL        HF       INT
 CPU TIMES  *       254.28    108.14    146.05
 REAL TIME  *       433.37 SEC
 DISK USED  *        21.32 GB      
 **********************************************************************************************************************************


 PROGRAM * CCSD (Closed-shell coupled cluster)     Authors: C. Hampel, H.-J. Werner, 1991, M. Deegan, P.J. Knowles, 1992


 Convergence thresholds:  THRVAR = 1.00D-08  THRDEN = 1.00D-12

 CCSD(T)     terms to be evaluated (factor= 1.000)


 Number of core orbitals:           2 (   2   0 )
 Number of closed-shell orbitals:   6 (   5   1 )
 Number of external orbitals:     326 ( 197 129 )

 Molecular orbitals read from record     2100.2  Type=RHF/CANONICAL (state 1.1)

 Number of N-1 electron functions:               6
 Number of N-2 electron functions:              21
 Number of singly external CSFs:              1114
 Number of doubly external CSFs:            975958
 Total number of CSFs:                      977073

 Length of J-op  integral file:               0.00 MB
 Length of K-op  integral file:               4.07 MB
 Length of 3-ext integral record:             0.00 MB

 Memory could be reduced to 151.33 Mwords without degradation in triples

 Integral transformation finished. Total CPU:  13.89 sec, npass=  1  Memory used:  41.21 MW

 Reference energy:                   -129.85044279

 MP2 singlet pair energy:              -0.31061013
 MP2 triplet pair energy:              -0.17163070
 MP2 correlation energy:               -0.48224083
 MP2 total energy:                   -130.33268362

 SCS-MP2 correlation energy:           -0.47952459   (PS=  1.200000  PT=  0.333333)
 SCS-MP2 total energy:               -130.32996738

 ITER.      SQ.NORM     CORR.ENERGY   TOTAL ENERGY   ENERGY CHANGE        DEN1      VAR(S)    VAR(P)  DIIS     TIME  TIME/IT
   1      1.12004830    -0.47948977  -130.32993256     0.00275106     0.01917273  0.31D-02  0.31D-02  1  1    24.74    11.78
   2      1.13054293    -0.47942765  -130.32987044     0.00006212    -0.01253202  0.10D-03  0.48D-03  2  2    35.72    11.99
   3      1.13659676    -0.47980229  -130.33024508    -0.00037464    -0.00297341  0.47D-04  0.55D-04  3  3    46.84    12.10
   4      1.13932008    -0.47979957  -130.33024236     0.00000271    -0.00095204  0.44D-05  0.97D-05  4  4    57.92    12.14
   5      1.14041364    -0.47982779  -130.33027058    -0.00002822    -0.00024324  0.11D-05  0.16D-05  5  5    69.06    12.17
   6      1.14076055    -0.47981682  -130.33025961     0.00001097    -0.00004879  0.12D-06  0.40D-06  6  6    80.14    12.19
   7      1.14083697    -0.47981631  -130.33025910     0.00000051     0.00000291  0.18D-07  0.91D-07  6  1    91.30    12.20
   8      1.14086218    -0.47981640  -130.33025919    -0.00000008    -0.00000298  0.36D-08  0.18D-07  6  2   102.49    12.21
   9      1.14087085    -0.47981585  -130.33025864     0.00000055    -0.00000022  0.21D-08  0.19D-08  6  3   113.75    12.22
  10      1.14086647    -0.47981656  -130.33025935    -0.00000071     0.00000151  0.33D-09  0.31D-09  6  5   124.85    12.22
  11      1.14086828    -0.47981655  -130.33025934     0.00000001    -0.00000032  0.94D-10  0.26D-10  6  4   135.86    12.23
  12      1.14086784    -0.47981662  -130.33025941    -0.00000006     0.00000005  0.18D-10  0.60D-11  6  6   147.01    12.23
  13      1.14086763    -0.47981662  -130.33025941    -0.00000000    -0.00000003  0.31D-11  0.91D-12  6  1   158.19    12.24
  14      1.14086736    -0.47981663  -130.33025942    -0.00000001     0.00000004  0.47D-12  0.17D-12  6  3   169.36    12.24
  15      1.14086729    -0.47981663  -130.33025943    -0.00000000     0.00000001  0.12D-12  0.23D-13  6  2   180.52    12.24
  16      1.14086727    -0.47981663  -130.33025943     0.00000000     0.00000000  0.32D-13  0.91D-14  6  4   191.64    12.24
  17      1.14086727    -0.47981663  -130.33025943    -0.00000000    -0.00000000  0.17D-14  0.12D-14  6  5   202.82    12.24
  18      1.14086728    -0.47981663  -130.33025943     0.00000000    -0.00000000  0.27D-15  0.30D-15  6  6   213.92    12.25
  19      1.14086728    -0.47981663  -130.33025943     0.00000000    -0.00000000  0.34D-16  0.44D-16  6  2   225.02    12.25
  20      1.14086729    -0.47981663  -130.33025943     0.00000000    -0.00000000  0.88D-17  0.63D-17  6  1   236.08    12.25
  21      1.14086728    -0.47981663  -130.33025943    -0.00000000     0.00000000  0.15D-17  0.89D-18  6  3   247.07    12.25
  22      1.14086728    -0.47981663  -130.33025943    -0.00000000     0.00000000  0.30D-18  0.14D-18  6  4   258.16    12.25
  23      1.14086728    -0.47981663  -130.33025943    -0.00000000     0.00000000  0.98D-19  0.54D-19  6  5   269.33    12.25
  24      1.14086728    -0.47981663  -130.33025943    -0.00000000     0.00000000  0.44D-19  0.25D-19  6  6   280.39    12.25
  25      1.14086728    -0.47981663  -130.33025943    -0.00000000     0.00000000  0.21D-19  0.11D-19  6  2   291.47    12.25

 Norm of t1 vector:      0.07539662      S-energy:    -0.00000000      T1 diagnostic:  0.01539027
                                                                       D1 diagnostic:  0.04134923

 Doubles amplitudes (print threshold =  0.500E-01):

         I         J         SYM. A    SYM. B    A         B      T(IJ, AB)

         6         6         2         2         1         1     -0.07415132
         6         6         2         2         1         2      0.05287629
         6         6         2         2         2         1      0.05287629


 Total CPU time for triples:    115.52 sec


 RESULTS
 =======

  Reference energy                   -129.850442791367
  CCSD singlet pair energy             -0.332721034081
  CCSD triplet pair energy             -0.147095599766
  CCSD correlation energy              -0.479816633849

  Triples (T) contribution             -0.022741475625
  Total correlation energy             -0.502558109475

  CCSD total energy                  -130.330259425217
  CCSD[T] energy                     -130.354056126991
  CCSD-T energy                      -130.352626595270
 !CCSD(T) total energy               -130.353000900842

 Timing summary (sec):

 STEP                 CPU(USER)    SYS     CPU(TOT)    WALL
 Transformation         13.96      1.55     15.51     15.51
 CCSD iterations       277.51     28.79    306.30    306.34
 Triples               115.52      2.08    117.60    117.60

 Program statistics:

 Available memory in ccsd:               994999756
 Min. memory needed in ccsd:               3348832
 Max. memory used in ccsd:                 4143652
 Max. memory used in cckext:               8340089 (25 integral passes)



 **********************************************************************************************************************************
 DATASETS  * FILE   NREC   LENGTH (MB)   RECORD NAMES
              1      20     6809.41       500      610      700      900      950      970     1000      129      960     1100   
                                          VAR    BASINP    GEOM    SYMINP    ZMAT    AOBASIS   BASIS     P2S    ABASIS      S 
                                         1400     1410     1200     1210     1080     1600     1650     1300     1700     1380   
                                           T        V       H0       H01     AOSYM     SMH    MOLCAS    ERIS     OPER     JKOP   

              2       4        4.02       700     1000      520     2100   
                                         GEOM     BASIS   MCVARS     RHF  

 PROGRAMS   *        TOTAL   CCSD(T)        HF       INT
 CPU TIMES  *       661.30    407.02    108.14    146.05
 REAL TIME  *       873.15 SEC
 DISK USED  *        21.32 GB      
 **********************************************************************************************************************************

 CCSD(T)/aug-cc-pV5Z energy=   -130.353000900842

        CCSD(T)         HF-SCF  
   -130.35300090   -129.85044279
 **********************************************************************************************************************************
 Molpro calculation terminated
 Variable memory released
