
 Primary working directories    : /tmp/r2666/234707.maple
 Secondary working directories  : /tmp/r2666/234707.maple
 Wavefunction directory         : /ddn/home4/r2666/wfu/
 Main file repository           : /tmp/r2666/234707.maple/

 SHA1      : d5ffa45e93fdbca01ffc919aa182cfdae0147319
 NAME      : 2015.1.35
 ARCHNAME  : linux/x86_64
 FC        : /opt/intel/composer_xe_2015.1.133/bin/intel64/ifort
 BLASLIB   : -Wl,-_start-group /opt/intel/mkl/lib/intel64/libmkl_intel_ilp64.a /opt/intel/mkl/lib/intel64/libmkl_intel_thread.a /opt/intel/mkl/lib/intel64/libmkl_core.a -Wl,-_end-group
 id        : olemiss

 Nodes     nprocs
 cn023        1

 Using customized tuning parameters: mindgm=1; mindgv=20; mindgc=4; mindgr=1; noblas=0; minvec=7
 default implementation of scratch files=df  

 ***,hno CCSD(T)/TZ-F12 QFF
 memory, 995, m;
 gthresh,energy=1.d-12,zero=1.d-22,oneint=1.d-22,twoint=1.d-22;
 gthresh,optgrad=1.d-8,optstep=1.d-8;
 nocompress;
 geomtyp=xyz
 bohr
 geometry={
 3
         79        79
 N        0.0000000000       -0.1587603528       -1.1525155113
 H        0.0000000000        1.6683945186       -1.9360160507
 O        0.0000000000        0.0321336241        1.1379419710
 }
 
 basis=av5z
   {hf,maxit=500;accu,20;}
 {ccsd(t),nocheck,maxit=250;orbital,IGNORE_ERROR;}

 Variables initialized (889), CPU time= 0.01 sec
 Commands  initialized (702), CPU time= 0.01 sec, 572 directives.
 Default parameters read. Elapsed time= 0.05 sec

 Checking input...
 Passed
1


                                         ***  PROGRAM SYSTEM MOLPRO  ***
                                       Copyright, TTI GmbH Stuttgart, 2015
                                    Version 2015.1 linked Jul  9 2018 13:16:40


 **********************************************************************************************************************************
 LABEL *   hno CCSD(T)/TZ-F12 QFF                                                        
  64 bit serial version                                                                  DATE: 08-Feb-20          TIME: 17:37:37  
 **********************************************************************************************************************************

 SHA1:             d5ffa45e93fdbca01ffc919aa182cfdae0147319
 **********************************************************************************************************************************

 THRESHOLDS:

 ZERO    =  1.00D-22  ONEINT  =  1.00D-22  TWOINT  =  1.00D-22  PREFAC  =  1.00D-14  LOCALI  =  1.00D-09  EORDER  =  1.00D-04
 ENERGY  =  1.00D-12  ETEST   =  0.00D+00  EDENS   =  0.00D+00  THRDEDEF=  1.00D-06  GRADIENT=  1.00D-02  STEP    =  1.00D-03
 ORBITAL =  1.00D-05  CIVEC   =  1.00D-05  COEFF   =  1.00D-04  PRINTCI =  5.00D-02  PUNCHCI =  9.90D+01  OPTGRAD =  3.00D-04
 OPTENERG=  1.00D-06  OPTSTEP =  3.00D-04  THRGRAD =  1.00D-10  COMPRESS=  1.00D-11  VARMIN  =  1.00D-07  VARMAX  =  1.00D-03
 THRDOUB =  0.00D+00  THRDIV  =  1.00D-05  THRRED  =  1.00D-07  THRPSP  =  1.00D+00  THRDC   =  1.00D-10  THRCS   =  1.00D-10
 THRNRM  =  1.00D-08  THREQ   =  0.00D+00  THRDE   =  1.00D+00  THRREF  =  1.00D-05  SPARFAC =  1.00D+00  THRDLP  =  1.00D-07
 THRDIA  =  1.00D-10  THRDLS  =  1.00D-07  THRGPS  =  0.00D+00  THRKEX  =  0.00D+00  THRDIS  =  2.00D-01  THRVAR  =  1.00D-10
 THRLOC  =  1.00D-06  THRGAP  =  1.00D-06  THRLOCT = -1.00D+00  THRGAPT = -1.00D+00  THRORB  =  1.00D-06  THRMLTP =  0.00D+00
 THRCPQCI=  1.00D-10  KEXTA   =  0.00D+00  THRCOARS=  0.00D+00  SYMTOL  =  1.00D-06  GRADTOL =  1.00D-06  THROVL  =  1.00D-08
 THRORTH =  1.00D-08  GRID    =  1.00D-06  GRIDMAX =  1.00D-03  DTMAX   =  0.00D+00  THROCCDE=  1.00D-01  THROCCDE=  1.00D-01



 THRESHOLDS:

 ZERO    =  1.00D-22  ONEINT  =  1.00D-22  TWOINT  =  1.00D-22  PREFAC  =  1.00D-14  LOCALI  =  1.00D-09  EORDER  =  1.00D-04
 ENERGY  =  1.00D-12  ETEST   =  0.00D+00  EDENS   =  0.00D+00  THRDEDEF=  1.00D-06  GRADIENT=  1.00D-02  STEP    =  1.00D-03
 ORBITAL =  1.00D-05  CIVEC   =  1.00D-05  COEFF   =  1.00D-04  PRINTCI =  5.00D-02  PUNCHCI =  9.90D+01  OPTGRAD =  1.00D-08
 OPTENERG=  1.00D-06  OPTSTEP =  1.00D-08  THRGRAD =  1.00D-10  COMPRESS=  1.00D-11  VARMIN  =  1.00D-07  VARMAX  =  1.00D-03
 THRDOUB =  0.00D+00  THRDIV  =  1.00D-05  THRRED  =  1.00D-07  THRPSP  =  1.00D+00  THRDC   =  1.00D-10  THRCS   =  1.00D-10
 THRNRM  =  1.00D-08  THREQ   =  0.00D+00  THRDE   =  1.00D+00  THRREF  =  1.00D-05  SPARFAC =  1.00D+00  THRDLP  =  1.00D-07
 THRDIA  =  1.00D-10  THRDLS  =  1.00D-07  THRGPS  =  0.00D+00  THRKEX  =  0.00D+00  THRDIS  =  2.00D-01  THRVAR  =  1.00D-10
 THRLOC  =  1.00D-06  THRGAP  =  1.00D-06  THRLOCT = -1.00D+00  THRGAPT = -1.00D+00  THRORB  =  1.00D-06  THRMLTP =  0.00D+00
 THRCPQCI=  1.00D-10  KEXTA   =  0.00D+00  THRCOARS=  0.00D+00  SYMTOL  =  1.00D-06  GRADTOL =  1.00D-06  THROVL  =  1.00D-08
 THRORTH =  1.00D-08  GRID    =  1.00D-06  GRIDMAX =  1.00D-03  DTMAX   =  0.00D+00  THROCCDE=  1.00D-01  THROCCDE=  1.00D-01



 Input parameters for SORTINT:

 COMPRESS =    0.000000
 C_FINAL  =    1.000000
 DEBUG    =   -1.000000
 C_SORT1  =    0.000000
 C_SEWARD =    0.000000
 THRESH   =    0.000000
 IO       =  molpro                                                          
 SPRI     =    0.000000
 SETTING GEOMTYP        =    XYZ
 ZUNIT=BOHR
 

 Variable memory set to  995000000 words,  buffer space   230000 words

 SETTING BASIS          =    AV5Z


 Recomputing integrals since basis changed


 Using spherical harmonics

 Library entry N      S aug-cc-pV5Z          selected for orbital group  1
 Library entry N      P aug-cc-pV5Z          selected for orbital group  1
 Library entry N      D aug-cc-pV5Z          selected for orbital group  1
 Library entry N      F aug-cc-pV5Z          selected for orbital group  1
 Library entry N      G aug-cc-pV5Z          selected for orbital group  1
 Library entry N      H aug-cc-pV5Z          selected for orbital group  1
 Library entry H      S aug-cc-pV5Z          selected for orbital group  2
 Library entry H      P aug-cc-pV5Z          selected for orbital group  2
 Library entry H      D aug-cc-pV5Z          selected for orbital group  2
 Library entry H      F aug-cc-pV5Z          selected for orbital group  2
 Library entry H      G aug-cc-pV5Z          selected for orbital group  2
 Library entry O      S aug-cc-pV5Z          selected for orbital group  3
 Library entry O      P aug-cc-pV5Z          selected for orbital group  3
 Library entry O      D aug-cc-pV5Z          selected for orbital group  3
 Library entry O      F aug-cc-pV5Z          selected for orbital group  3
 Library entry O      G aug-cc-pV5Z          selected for orbital group  3
 Library entry O      H aug-cc-pV5Z          selected for orbital group  3


 PROGRAM * SEWARD (Integral evaluation for generally contracted gaussian basis sets)     Author: Roland Lindh, 1990

 Geometry written to block  1 of record 700


 Point group  Cs  



 ATOMIC COORDINATES

 NR  ATOM    CHARGE       X              Y              Z

   1  N       7.00    0.000000000   -0.158760353   -1.152515511
   2  H       1.00    0.000000000    1.668394519   -1.936016051
   3  O       8.00    0.000000000    0.032133624    1.137941971

 Bond lengths in Bohr (Angstrom)

 1-2  1.988056342  1-3  2.298398570
     ( 1.052034110)     ( 1.216260145)

 Bond angles

  2-1-3  108.44589032

 NUCLEAR CHARGE:                   16
 NUMBER OF PRIMITIVE AOS:         506
 NUMBER OF SYMMETRY AOS:          371
 NUMBER OF CONTRACTIONS:          334   ( 204A'  + 130A"  )
 NUMBER OF CORE ORBITALS:           2   (   2A'  +   0A"  )
 NUMBER OF VALENCE ORBITALS:        9   (   7A'  +   2A"  )


 NUCLEAR REPULSION ENERGY   30.18313522


 Eigenvalues of metric

         1 0.114E-04 0.175E-04 0.639E-04 0.102E-03 0.108E-03 0.139E-03 0.201E-03 0.225E-03
         2 0.130E-03 0.364E-03 0.116E-02 0.164E-02 0.195E-02 0.259E-02 0.328E-02 0.394E-02


 Contracted 2-electron integrals neglected if value below      1.0D-22

      756970161. INTEGRALS WRITTEN OUT IN  184853 BLOCKS ON RECORD 1290 OF FILE 1


 NUMBER OF SORTED TWO-ELECTRON INTEGRALS:  789027325.     BUFFER LENGTH:  32768
 NUMBER OF SEGMENTS:  25  SEGMENT LENGTH:   31997130      RECORD LENGTH: 524288

 Memory used in sort:      32.55 MW

 SORT1 READ   756970161. AND WROTE   760986055. INTEGRALS IN   2189 RECORDS. CPU TIME:    21.36 SEC, REAL TIME:    81.62 SEC
 SORT2 READ   760986055. AND WROTE   789027325. INTEGRALS IN     25 RECORDS. CPU TIME:    10.41 SEC, REAL TIME:    30.21 SEC

 FILE SIZES:   FILE 1: 12137.4 MBYTE,  FILE 4:  9181.4 MBYTE,   TOTAL:  21318.7 MBYTE

 OPERATOR DM      FOR CENTER  0  COORDINATES:    0.000000    0.000000    0.000000


 **********************************************************************************************************************************
 DATASETS  * FILE   NREC   LENGTH (MB)   RECORD NAMES
              1      19     6374.17       500      610      700      900      950      970     1000      129      960     1100   
                                          VAR    BASINP    GEOM    SYMINP    ZMAT    AOBASIS   BASIS     P2S    ABASIS      S 
                                         1400     1410     1200     1210     1080     1600     1650     1300     1700   
                                           T        V       H0       H01     AOSYM     SMH    MOLCAS    ERIS     OPER   

 PROGRAMS   *        TOTAL       INT
 CPU TIMES  *       124.80    124.71
 REAL TIME  *       216.30 SEC
 DISK USED  *        21.32 GB      
 **********************************************************************************************************************************


 PROGRAM * RHF-SCF (CLOSED SHELL)       Authors: W. Meyer, H.-J. Werner


 NUMBER OF ELECTRONS:       8+    8-
 CONVERGENCE THRESHOLDS:    1.00E-10 (Density)    1.00E-13 (Energy)
 MAX. NUMBER OF ITERATIONS:      500
 INTERPOLATION TYPE:            DIIS
 INTERPOLATION STEPS:              2 (START)      1 (STEP)
 LEVEL SHIFTS:                  0.00 (CLOSED)  0.00 (OPEN) 



 Orbital guess generated from atomic densities. Full valence occupancy:    9   2

 Molecular orbital dump at record        2100.2

 Initial occupancy:   7   1

 ITERATION    DDIFF          GRAD             ENERGY        2-EL.EN.            DIPOLE MOMENTS         DIIS   ORB.
    1      0.000D+00      0.000D+00      -129.79603939    153.644593    0.00000    0.60122   -1.05666    0    start
    2      0.000D+00      0.647D-02      -129.82296571    154.849329    0.00000    0.61542   -0.20426    1    diag
    3      0.408D-02      0.503D-02      -129.84738853    154.995547    0.00000    0.56137   -0.60789    2    diag
    4      0.212D-02      0.778D-03      -129.84821450    154.704086    0.00000    0.56840   -0.54472    3    diag
    5      0.383D-03      0.252D-03      -129.84834401    154.798731    0.00000    0.57368   -0.54709    4    diag
    6      0.159D-03      0.730D-04      -129.84836477    154.782291    0.00000    0.57392   -0.54271    5    diag
    7      0.610D-04      0.367D-04      -129.84837094    154.785003    0.00000    0.57512   -0.53997    6    diag
    8      0.420D-04      0.133D-04      -129.84837170    154.784264    0.00000    0.57517   -0.53887    7    diag
    9      0.169D-04      0.259D-05      -129.84837174    154.784145    0.00000    0.57513   -0.53863    8    diag
   10      0.349D-05      0.576D-06      -129.84837174    154.784126    0.00000    0.57509   -0.53860    9    orth
   11      0.656D-06      0.114D-06      -129.84837174    154.784122    0.00000    0.57509   -0.53860    9    diag
   12      0.119D-06      0.236D-07      -129.84837174    154.784122    0.00000    0.57508   -0.53860    9    diag
   13      0.256D-07      0.631D-08      -129.84837174    154.784122    0.00000    0.57508   -0.53860    9    diag
   14      0.713D-08      0.122D-08      -129.84837174    154.784122    0.00000    0.57508   -0.53860    9    diag
   15      0.129D-08      0.344D-09      -129.84837174    154.784122    0.00000    0.57508   -0.53860    9    diag
   16      0.390D-09      0.101D-09      -129.84837174    154.784122    0.00000    0.57508   -0.53860    9    diag
   17      0.721D-10      0.253D-10      -129.84837174    154.784122    0.00000    0.57508   -0.53860    9    diag
   18      0.252D-10      0.839D-11      -129.84837174    154.784122    0.00000    0.57508   -0.53860    9    diag
   19      0.291D-10      0.200D-11      -129.84837174    154.784122    0.00000    0.57508   -0.53860    9    fixocc
   20      0.158D-10      0.602D-12      -129.84837174    154.784122    0.00000    0.57508   -0.53860    9    orth
   21      0.790D-11      0.521D-12      -129.84837174    154.784122    0.00000    0.57508   -0.53860    9    diag
   22      0.531D-11      0.231D-12      -129.84837174    154.784122    0.00000    0.57508   -0.53860    9    diag
   23      0.390D-11      0.297D-12      -129.84837174    154.784122    0.00000    0.57508   -0.53860    9    diag
   24      0.225D-11      0.263D-12      -129.84837174    154.784122    0.00000    0.57508   -0.53860    9    diag
   25      0.140D-11      0.350D-12      -129.84837174    154.784122    0.00000    0.57508   -0.53860    9    diag
   26      0.172D-11      0.275D-12      -129.84837174    154.784122    0.00000    0.57508   -0.53860    9    diag
   27      0.202D-12      0.238D-12      -129.84837174    154.784122    0.00000    0.57508   -0.53860    9    diag
   28      0.753D-12      0.249D-12      -129.84837174    154.784122    0.00000    0.57508   -0.53860    9    diag
   29      0.204D-11      0.202D-12      -129.84837174    154.784122    0.00000    0.57508   -0.53860    9    diag
   30      0.210D-11      0.337D-12      -129.84837174    154.784122    0.00000    0.57508   -0.53860    9    orth
   31      0.181D-11      0.414D-12      -129.84837174    154.784122    0.00000    0.57508   -0.53860    9    diag
   32      0.216D-11      0.262D-12      -129.84837174    154.784122    0.00000    0.57508   -0.53860    9    diag
   33      0.181D-11      0.233D-12      -129.84837174    154.784122    0.00000    0.57508   -0.53860    9    diag
   34      0.828D-12      0.194D-12      -129.84837174    154.784122    0.00000    0.57508   -0.53860    9    diag
   35      0.164D-11      0.304D-12      -129.84837174    154.784122    0.00000    0.57508   -0.53860    9    diag
   36      0.717D-12      0.213D-12      -129.84837174    154.784122    0.00000    0.57508   -0.53860    0    orth

 Final occupancy:   7   1

 !RHF STATE 1.1 Energy               -129.848371738842
 Nuclear energy                        30.18313522
 One-electron energy                 -237.42356788
 Two-electron energy                   77.39206092
 Virial quotient                       -1.00195240
 !RHF STATE 1.1 Dipole moment           0.00000000     0.57508421    -0.53859757
 Dipole moment /Debye                   0.00000000     1.46162252    -1.36888882

 Orbital energies:

         1.1          2.1          3.1          4.1          5.1          6.1          7.1          8.1          9.1
    -20.653792   -15.713552    -1.522437    -0.996469    -0.744663    -0.663783    -0.432920     0.022741     0.065531

         1.2          2.2          3.2
     -0.592106     0.058431     0.090892

 HOMO      7.1    -0.432920 =     -11.7804eV
 LUMO      8.1     0.022741 =       0.6188eV
 LUMO-HOMO         0.455661 =      12.3992eV


 **********************************************************************************************************************************
 DATASETS  * FILE   NREC   LENGTH (MB)   RECORD NAMES
              1      19     6374.17       500      610      700      900      950      970     1000      129      960     1100   
                                          VAR    BASINP    GEOM    SYMINP    ZMAT    AOBASIS   BASIS     P2S    ABASIS      S 
                                         1400     1410     1200     1210     1080     1600     1650     1300     1700   
                                           T        V       H0       H01     AOSYM     SMH    MOLCAS    ERIS     OPER   

              2       4        4.02       700     1000      520     2100   
                                         GEOM     BASIS   MCVARS     RHF  

 PROGRAMS   *        TOTAL        HF       INT
 CPU TIMES  *       277.09    152.28    124.71
 REAL TIME  *       402.88 SEC
 DISK USED  *        21.32 GB      
 **********************************************************************************************************************************


 PROGRAM * CCSD (Closed-shell coupled cluster)     Authors: C. Hampel, H.-J. Werner, 1991, M. Deegan, P.J. Knowles, 1992


 Convergence thresholds:  THRVAR = 1.00D-08  THRDEN = 1.00D-12

 CCSD(T)     terms to be evaluated (factor= 1.000)


 Number of core orbitals:           2 (   2   0 )
 Number of closed-shell orbitals:   6 (   5   1 )
 Number of external orbitals:     326 ( 197 129 )

 Molecular orbitals read from record     2100.2  Type=RHF/CANONICAL (state 1.1)

 Number of N-1 electron functions:               6
 Number of N-2 electron functions:              21
 Number of singly external CSFs:              1114
 Number of doubly external CSFs:            975958
 Total number of CSFs:                      977073

 Length of J-op  integral file:               0.00 MB
 Length of K-op  integral file:               4.07 MB
 Length of 3-ext integral record:             0.00 MB

 Memory could be reduced to 151.33 Mwords without degradation in triples

 Integral transformation finished. Total CPU:  14.17 sec, npass=  1  Memory used:  41.21 MW

 Reference energy:                   -129.84837174

 MP2 singlet pair energy:              -0.31201483
 MP2 triplet pair energy:              -0.17258176
 MP2 correlation energy:               -0.48459658
 MP2 total energy:                   -130.33296832

 SCS-MP2 correlation energy:           -0.48180200   (PS=  1.200000  PT=  0.333333)
 SCS-MP2 total energy:               -130.33017373

 ITER.      SQ.NORM     CORR.ENERGY   TOTAL ENERGY   ENERGY CHANGE        DEN1      VAR(S)    VAR(P)  DIIS     TIME  TIME/IT
   1      1.12148086    -0.48125469  -130.32962643     0.00334189     0.02038337  0.33D-02  0.33D-02  1  1    26.11    12.83
   2      1.13232643    -0.48106435  -130.32943609     0.00019034    -0.01290217  0.11D-03  0.50D-03  2  2    38.28    13.01
   3      1.13864094    -0.48145892  -130.32983066    -0.00039456    -0.00304975  0.50D-04  0.59D-04  3  3    50.44    13.06
   4      1.14153253    -0.48145720  -130.32982894     0.00000172    -0.00099531  0.48D-05  0.10D-04  4  4    62.53    13.09
   5      1.14272510    -0.48148790  -130.32985964    -0.00003070    -0.00026370  0.12D-05  0.17D-05  5  5    74.57    13.11
   6      1.14309777    -0.48147542  -130.32984716     0.00001248    -0.00005293  0.12D-06  0.41D-06  6  6    86.76    13.12
   7      1.14317467    -0.48147510  -130.32984684     0.00000032     0.00000380  0.17D-07  0.95D-07  6  1    99.03    13.13
   8      1.14320049    -0.48147505  -130.32984679     0.00000005    -0.00000322  0.34D-08  0.20D-07  6  2   111.21    13.14
   9      1.14320914    -0.48147445  -130.32984619     0.00000060    -0.00000012  0.23D-08  0.22D-08  6  3   123.37    13.14
  10      1.14320427    -0.48147523  -130.32984697    -0.00000078     0.00000166  0.37D-09  0.37D-09  6  5   135.56    13.15
  11      1.14320642    -0.48147521  -130.32984694     0.00000002    -0.00000041  0.11D-09  0.31D-10  6  4   147.70    13.15
  12      1.14320597    -0.48147528  -130.32984702    -0.00000007     0.00000005  0.19D-10  0.70D-11  6  6   159.73    13.15
  13      1.14320575    -0.48147528  -130.32984702    -0.00000000    -0.00000004  0.33D-11  0.10D-11  6  1   171.99    13.16
  14      1.14320547    -0.48147529  -130.32984703    -0.00000001     0.00000004  0.45D-12  0.18D-12  6  3   184.08    13.16
  15      1.14320539    -0.48147530  -130.32984704    -0.00000000     0.00000001  0.12D-12  0.24D-13  6  2   196.26    13.16
  16      1.14320538    -0.48147530  -130.32984703     0.00000000     0.00000000  0.34D-13  0.90D-14  6  4   208.35    13.16
  17      1.14320538    -0.48147530  -130.32984704    -0.00000000    -0.00000000  0.20D-14  0.11D-14  6  5   220.57    13.16
  18      1.14320538    -0.48147530  -130.32984704     0.00000000    -0.00000000  0.30D-15  0.30D-15  6  6   232.81    13.17
  19      1.14320539    -0.48147530  -130.32984703     0.00000000    -0.00000000  0.53D-16  0.41D-16  6  1   244.94    13.17
  20      1.14320539    -0.48147530  -130.32984703     0.00000000    -0.00000000  0.11D-16  0.63D-17  6  3   256.99    13.17
  21      1.14320539    -0.48147530  -130.32984703    -0.00000000     0.00000000  0.22D-17  0.12D-17  6  2   269.06    13.17
  22      1.14320539    -0.48147530  -130.32984703    -0.00000000     0.00000000  0.46D-18  0.20D-18  6  4   281.24    13.17
  23      1.14320539    -0.48147530  -130.32984703    -0.00000000     0.00000000  0.81D-19  0.46D-19  6  5   293.42    13.17
  24      1.14320539    -0.48147530  -130.32984703    -0.00000000     0.00000000  0.31D-19  0.20D-19  6  6   305.49    13.17
  25      1.14320539    -0.48147530  -130.32984703     0.00000000    -0.00000000  0.18D-19  0.12D-19  6  1   317.56    13.17

 Norm of t1 vector:      0.07771070      S-energy:    -0.00000000      T1 diagnostic:  0.01586263
                                                                       D1 diagnostic:  0.04332056

 Doubles amplitudes (print threshold =  0.500E-01):

         I         J         SYM. A    SYM. B    A         B      T(IJ, AB)

         6         6         2         2         1         1     -0.08551410
         6         6         2         2         1         2      0.05285645
         6         6         2         2         2         1      0.05285645


 Total CPU time for triples:    131.48 sec


 RESULTS
 =======

  Reference energy                   -129.848371738841
  CCSD singlet pair energy             -0.334162244166
  CCSD triplet pair energy             -0.147313051819
  CCSD correlation energy              -0.481475295988

  Triples (T) contribution             -0.023188597991
  Total correlation energy             -0.504663893979

  CCSD total energy                  -130.329847034829
  CCSD[T] energy                     -130.354152605990
  CCSD-T energy                      -130.352647236413
 !CCSD(T) total energy               -130.353035632820

 Timing summary (sec):

 STEP                 CPU(USER)    SYS     CPU(TOT)    WALL
 Transformation         14.26      1.49     15.75     15.75
 CCSD iterations       303.31     25.83    329.14    329.34
 Triples               131.48      1.69    133.17    133.19

 Program statistics:

 Available memory in ccsd:               994999756
 Min. memory needed in ccsd:               3348832
 Max. memory used in ccsd:                 4143652
 Max. memory used in cckext:               8340089 (25 integral passes)



 **********************************************************************************************************************************
 DATASETS  * FILE   NREC   LENGTH (MB)   RECORD NAMES
              1      20     6809.36       500      610      700      900      950      970     1000      129      960     1100   
                                          VAR    BASINP    GEOM    SYMINP    ZMAT    AOBASIS   BASIS     P2S    ABASIS      S 
                                         1400     1410     1200     1210     1080     1600     1650     1300     1700     1380   
                                           T        V       H0       H01     AOSYM     SMH    MOLCAS    ERIS     OPER     JKOP   

              2       4        4.02       700     1000      520     2100   
                                         GEOM     BASIS   MCVARS     RHF  

 PROGRAMS   *        TOTAL   CCSD(T)        HF       INT
 CPU TIMES  *       726.16    449.08    152.28    124.71
 REAL TIME  *       881.22 SEC
 DISK USED  *        21.32 GB      
 **********************************************************************************************************************************

 CCSD(T)/aug-cc-pV5Z energy=   -130.353035632820

        CCSD(T)         HF-SCF  
   -130.35303563   -129.84837174
 **********************************************************************************************************************************
 Molpro calculation terminated
 Variable memory released
