
 Primary working directories    : /tmp/r2666/234714.maple
 Secondary working directories  : /tmp/r2666/234714.maple
 Wavefunction directory         : /ddn/home4/r2666/wfu/
 Main file repository           : /tmp/r2666/234714.maple/

 SHA1      : d5ffa45e93fdbca01ffc919aa182cfdae0147319
 NAME      : 2015.1.35
 ARCHNAME  : linux/x86_64
 FC        : /opt/intel/composer_xe_2015.1.133/bin/intel64/ifort
 BLASLIB   : -Wl,-_start-group /opt/intel/mkl/lib/intel64/libmkl_intel_ilp64.a /opt/intel/mkl/lib/intel64/libmkl_intel_thread.a /opt/intel/mkl/lib/intel64/libmkl_core.a -Wl,-_end-group
 id        : olemiss

 Nodes     nprocs
 cn030        1

 Using customized tuning parameters: mindgm=1; mindgv=20; mindgc=4; mindgr=1; noblas=0; minvec=7
 default implementation of scratch files=df  

 ***,hno CCSD(T)/TZ-F12 QFF
 memory, 995, m;
 gthresh,energy=1.d-12,zero=1.d-22,oneint=1.d-22,twoint=1.d-22;
 gthresh,optgrad=1.d-8,optstep=1.d-8;
 nocompress;
 geomtyp=xyz
 bohr
 geometry={
 3
         86        86
 N        0.0000000000       -0.1701171816       -1.1387073889
 H        0.0000000000        1.6686685282       -1.9190234959
 O        0.0000000000        0.0432164434        1.1071412939
 }
 
 basis=av5z
   {hf,maxit=500;accu,20;}
 {ccsd(t),nocheck,maxit=250;orbital,IGNORE_ERROR;}

 Variables initialized (889), CPU time= 0.00 sec
 Commands  initialized (702), CPU time= 0.01 sec, 572 directives.
 Default parameters read. Elapsed time= 0.05 sec

 Checking input...
 Passed
1


                                         ***  PROGRAM SYSTEM MOLPRO  ***
                                       Copyright, TTI GmbH Stuttgart, 2015
                                    Version 2015.1 linked Jul  9 2018 13:16:40


 **********************************************************************************************************************************
 LABEL *   hno CCSD(T)/TZ-F12 QFF                                                        
  64 bit serial version                                                                  DATE: 08-Feb-20          TIME: 17:39:02  
 **********************************************************************************************************************************

 SHA1:             d5ffa45e93fdbca01ffc919aa182cfdae0147319
 **********************************************************************************************************************************

 THRESHOLDS:

 ZERO    =  1.00D-22  ONEINT  =  1.00D-22  TWOINT  =  1.00D-22  PREFAC  =  1.00D-14  LOCALI  =  1.00D-09  EORDER  =  1.00D-04
 ENERGY  =  1.00D-12  ETEST   =  0.00D+00  EDENS   =  0.00D+00  THRDEDEF=  1.00D-06  GRADIENT=  1.00D-02  STEP    =  1.00D-03
 ORBITAL =  1.00D-05  CIVEC   =  1.00D-05  COEFF   =  1.00D-04  PRINTCI =  5.00D-02  PUNCHCI =  9.90D+01  OPTGRAD =  3.00D-04
 OPTENERG=  1.00D-06  OPTSTEP =  3.00D-04  THRGRAD =  1.00D-10  COMPRESS=  1.00D-11  VARMIN  =  1.00D-07  VARMAX  =  1.00D-03
 THRDOUB =  0.00D+00  THRDIV  =  1.00D-05  THRRED  =  1.00D-07  THRPSP  =  1.00D+00  THRDC   =  1.00D-10  THRCS   =  1.00D-10
 THRNRM  =  1.00D-08  THREQ   =  0.00D+00  THRDE   =  1.00D+00  THRREF  =  1.00D-05  SPARFAC =  1.00D+00  THRDLP  =  1.00D-07
 THRDIA  =  1.00D-10  THRDLS  =  1.00D-07  THRGPS  =  0.00D+00  THRKEX  =  0.00D+00  THRDIS  =  2.00D-01  THRVAR  =  1.00D-10
 THRLOC  =  1.00D-06  THRGAP  =  1.00D-06  THRLOCT = -1.00D+00  THRGAPT = -1.00D+00  THRORB  =  1.00D-06  THRMLTP =  0.00D+00
 THRCPQCI=  1.00D-10  KEXTA   =  0.00D+00  THRCOARS=  0.00D+00  SYMTOL  =  1.00D-06  GRADTOL =  1.00D-06  THROVL  =  1.00D-08
 THRORTH =  1.00D-08  GRID    =  1.00D-06  GRIDMAX =  1.00D-03  DTMAX   =  0.00D+00  THROCCDE=  1.00D-01  THROCCDE=  1.00D-01



 THRESHOLDS:

 ZERO    =  1.00D-22  ONEINT  =  1.00D-22  TWOINT  =  1.00D-22  PREFAC  =  1.00D-14  LOCALI  =  1.00D-09  EORDER  =  1.00D-04
 ENERGY  =  1.00D-12  ETEST   =  0.00D+00  EDENS   =  0.00D+00  THRDEDEF=  1.00D-06  GRADIENT=  1.00D-02  STEP    =  1.00D-03
 ORBITAL =  1.00D-05  CIVEC   =  1.00D-05  COEFF   =  1.00D-04  PRINTCI =  5.00D-02  PUNCHCI =  9.90D+01  OPTGRAD =  1.00D-08
 OPTENERG=  1.00D-06  OPTSTEP =  1.00D-08  THRGRAD =  1.00D-10  COMPRESS=  1.00D-11  VARMIN  =  1.00D-07  VARMAX  =  1.00D-03
 THRDOUB =  0.00D+00  THRDIV  =  1.00D-05  THRRED  =  1.00D-07  THRPSP  =  1.00D+00  THRDC   =  1.00D-10  THRCS   =  1.00D-10
 THRNRM  =  1.00D-08  THREQ   =  0.00D+00  THRDE   =  1.00D+00  THRREF  =  1.00D-05  SPARFAC =  1.00D+00  THRDLP  =  1.00D-07
 THRDIA  =  1.00D-10  THRDLS  =  1.00D-07  THRGPS  =  0.00D+00  THRKEX  =  0.00D+00  THRDIS  =  2.00D-01  THRVAR  =  1.00D-10
 THRLOC  =  1.00D-06  THRGAP  =  1.00D-06  THRLOCT = -1.00D+00  THRGAPT = -1.00D+00  THRORB  =  1.00D-06  THRMLTP =  0.00D+00
 THRCPQCI=  1.00D-10  KEXTA   =  0.00D+00  THRCOARS=  0.00D+00  SYMTOL  =  1.00D-06  GRADTOL =  1.00D-06  THROVL  =  1.00D-08
 THRORTH =  1.00D-08  GRID    =  1.00D-06  GRIDMAX =  1.00D-03  DTMAX   =  0.00D+00  THROCCDE=  1.00D-01  THROCCDE=  1.00D-01



 Input parameters for SORTINT:

 COMPRESS =    0.000000
 C_FINAL  =    1.000000
 DEBUG    =   -1.000000
 C_SORT1  =    0.000000
 C_SEWARD =    0.000000
 THRESH   =    0.000000
 IO       =  molpro                                                          
 SPRI     =    0.000000
 SETTING GEOMTYP        =    XYZ
 ZUNIT=BOHR
 

 Variable memory set to  995000000 words,  buffer space   230000 words

 SETTING BASIS          =    AV5Z


 Recomputing integrals since basis changed


 Using spherical harmonics

 Library entry N      S aug-cc-pV5Z          selected for orbital group  1
 Library entry N      P aug-cc-pV5Z          selected for orbital group  1
 Library entry N      D aug-cc-pV5Z          selected for orbital group  1
 Library entry N      F aug-cc-pV5Z          selected for orbital group  1
 Library entry N      G aug-cc-pV5Z          selected for orbital group  1
 Library entry N      H aug-cc-pV5Z          selected for orbital group  1
 Library entry H      S aug-cc-pV5Z          selected for orbital group  2
 Library entry H      P aug-cc-pV5Z          selected for orbital group  2
 Library entry H      D aug-cc-pV5Z          selected for orbital group  2
 Library entry H      F aug-cc-pV5Z          selected for orbital group  2
 Library entry H      G aug-cc-pV5Z          selected for orbital group  2
 Library entry O      S aug-cc-pV5Z          selected for orbital group  3
 Library entry O      P aug-cc-pV5Z          selected for orbital group  3
 Library entry O      D aug-cc-pV5Z          selected for orbital group  3
 Library entry O      F aug-cc-pV5Z          selected for orbital group  3
 Library entry O      G aug-cc-pV5Z          selected for orbital group  3
 Library entry O      H aug-cc-pV5Z          selected for orbital group  3


 PROGRAM * SEWARD (Integral evaluation for generally contracted gaussian basis sets)     Author: Roland Lindh, 1990

 Geometry written to block  1 of record 700


 Point group  Cs  



 ATOMIC COORDINATES

 NR  ATOM    CHARGE       X              Y              Z

   1  N       7.00    0.000000000   -0.170117182   -1.138707389
   2  H       1.00    0.000000000    1.668668528   -1.919023496
   3  O       8.00    0.000000000    0.043216443    1.107141294

 Bond lengths in Bohr (Angstrom)

 1-2  1.997504972  1-3  2.255958231
     ( 1.057034110)     ( 1.193801685)

 Bond angles

  2-1-3  107.56840709

 NUCLEAR CHARGE:                   16
 NUMBER OF PRIMITIVE AOS:         506
 NUMBER OF SYMMETRY AOS:          371
 NUMBER OF CONTRACTIONS:          334   ( 204A'  + 130A"  )
 NUMBER OF CORE ORBITALS:           2   (   2A'  +   0A"  )
 NUMBER OF VALENCE ORBITALS:        9   (   7A'  +   2A"  )


 NUCLEAR REPULSION ENERGY   30.65643933


 Eigenvalues of metric

         1 0.111E-04 0.168E-04 0.637E-04 0.959E-04 0.101E-03 0.133E-03 0.199E-03 0.223E-03
         2 0.122E-03 0.369E-03 0.107E-02 0.148E-02 0.194E-02 0.243E-02 0.329E-02 0.382E-02


 Contracted 2-electron integrals neglected if value below      1.0D-22

      756977658. INTEGRALS WRITTEN OUT IN  184855 BLOCKS ON RECORD 1290 OF FILE 1


 NUMBER OF SORTED TWO-ELECTRON INTEGRALS:  789027325.     BUFFER LENGTH:  32768
 NUMBER OF SEGMENTS:  25  SEGMENT LENGTH:   31997130      RECORD LENGTH: 524288

 Memory used in sort:      32.55 MW

 SORT1 READ   756977658. AND WROTE   760993553. INTEGRALS IN   2189 RECORDS. CPU TIME:    22.40 SEC, REAL TIME:    28.24 SEC
 SORT2 READ   760993553. AND WROTE   789027325. INTEGRALS IN     25 RECORDS. CPU TIME:     9.99 SEC, REAL TIME:    16.60 SEC

 FILE SIZES:   FILE 1: 12137.5 MBYTE,  FILE 4:  9181.4 MBYTE,   TOTAL:  21318.9 MBYTE

 OPERATOR DM      FOR CENTER  0  COORDINATES:    0.000000    0.000000    0.000000


 **********************************************************************************************************************************
 DATASETS  * FILE   NREC   LENGTH (MB)   RECORD NAMES
              1      19     6374.22       500      610      700      900      950      970     1000      129      960     1100   
                                          VAR    BASINP    GEOM    SYMINP    ZMAT    AOBASIS   BASIS     P2S    ABASIS      S 
                                         1400     1410     1200     1210     1080     1600     1650     1300     1700   
                                           T        V       H0       H01     AOSYM     SMH    MOLCAS    ERIS     OPER   

 PROGRAMS   *        TOTAL       INT
 CPU TIMES  *       134.13    134.04
 REAL TIME  *       155.37 SEC
 DISK USED  *        21.32 GB      
 **********************************************************************************************************************************


 PROGRAM * RHF-SCF (CLOSED SHELL)       Authors: W. Meyer, H.-J. Werner


 NUMBER OF ELECTRONS:       8+    8-
 CONVERGENCE THRESHOLDS:    1.00E-10 (Density)    1.00E-13 (Energy)
 MAX. NUMBER OF ITERATIONS:      500
 INTERPOLATION TYPE:            DIIS
 INTERPOLATION STEPS:              2 (START)      1 (STEP)
 LEVEL SHIFTS:                  0.00 (CLOSED)  0.00 (OPEN) 



 Orbital guess generated from atomic densities. Full valence occupancy:    9   2

 Molecular orbital dump at record        2100.2

 Initial occupancy:   7   1

 ITERATION    DDIFF          GRAD             ENERGY        2-EL.EN.            DIPOLE MOMENTS         DIIS   ORB.
    1      0.000D+00      0.000D+00      -129.80174155    154.493006    0.00000    0.58029   -0.98243    0    start
    2      0.000D+00      0.633D-02      -129.82934609    155.742171    0.00000    0.60119   -0.20828    1    diag
    3      0.390D-02      0.469D-02      -129.85036388    155.837389    0.00000    0.54564   -0.56963    2    diag
    4      0.200D-02      0.753D-03      -129.85113654    155.563542    0.00000    0.55361   -0.51064    3    diag
    5      0.370D-03      0.245D-03      -129.85125793    155.656162    0.00000    0.55886   -0.51338    4    diag
    6      0.153D-03      0.711D-04      -129.85127736    155.639964    0.00000    0.55919   -0.50940    5    diag
    7      0.588D-04      0.349D-04      -129.85128282    155.642919    0.00000    0.56046   -0.50697    6    diag
    8      0.399D-04      0.118D-04      -129.85128338    155.642252    0.00000    0.56052   -0.50605    7    diag
    9      0.144D-04      0.223D-05      -129.85128341    155.642150    0.00000    0.56048   -0.50585    8    diag
   10      0.281D-05      0.517D-06      -129.85128341    155.642132    0.00000    0.56045   -0.50582    9    orth
   11      0.583D-06      0.107D-06      -129.85128341    155.642128    0.00000    0.56044   -0.50581    9    diag
   12      0.114D-06      0.216D-07      -129.85128341    155.642128    0.00000    0.56044   -0.50581    9    diag
   13      0.253D-07      0.556D-08      -129.85128341    155.642128    0.00000    0.56044   -0.50581    9    diag
   14      0.664D-08      0.111D-08      -129.85128341    155.642128    0.00000    0.56044   -0.50581    9    diag
   15      0.123D-08      0.327D-09      -129.85128341    155.642128    0.00000    0.56044   -0.50581    9    diag
   16      0.369D-09      0.102D-09      -129.85128341    155.642128    0.00000    0.56044   -0.50581    9    diag
   17      0.761D-10      0.287D-10      -129.85128341    155.642128    0.00000    0.56044   -0.50581    9    diag
   18      0.257D-10      0.963D-11      -129.85128341    155.642128    0.00000    0.56044   -0.50581    9    diag
   19      0.232D-10      0.245D-11      -129.85128341    155.642128    0.00000    0.56044   -0.50581    9    fixocc
   20      0.186D-10      0.534D-12      -129.85128341    155.642128    0.00000    0.56044   -0.50581    9    orth
   21      0.933D-11      0.401D-12      -129.85128341    155.642128    0.00000    0.56044   -0.50581    9    diag
   22      0.630D-11      0.247D-12      -129.85128341    155.642128    0.00000    0.56044   -0.50581    9    diag
   23      0.307D-11      0.250D-12      -129.85128341    155.642128    0.00000    0.56044   -0.50581    9    diag
   24      0.198D-11      0.300D-12      -129.85128341    155.642128    0.00000    0.56044   -0.50581    9    diag
   25      0.234D-11      0.311D-12      -129.85128341    155.642128    0.00000    0.56044   -0.50581    9    diag
   26      0.789D-12      0.331D-12      -129.85128341    155.642128    0.00000    0.56044   -0.50581    9    diag
   27      0.367D-12      0.286D-12      -129.85128341    155.642128    0.00000    0.56044   -0.50581    9    diag
   28      0.568D-12      0.272D-12      -129.85128341    155.642128    0.00000    0.56044   -0.50581    9    diag
   29      0.115D-11      0.246D-12      -129.85128341    155.642128    0.00000    0.56044   -0.50581    9    diag
   30      0.155D-11      0.404D-12      -129.85128341    155.642128    0.00000    0.56044   -0.50581    9    orth
   31      0.234D-12      0.383D-12      -129.85128341    155.642128    0.00000    0.56044   -0.50581    9    diag
   32      0.335D-12      0.274D-12      -129.85128341    155.642128    0.00000    0.56044   -0.50581    9    diag
   33      0.650D-12      0.260D-12      -129.85128341    155.642128    0.00000    0.56044   -0.50581    9    diag
   34      0.148D-11      0.215D-12      -129.85128341    155.642128    0.00000    0.56044   -0.50581    9    diag
   35      0.821D-12      0.208D-12      -129.85128341    155.642128    0.00000    0.56044   -0.50581    9    diag
   36      0.652D-12      0.231D-12      -129.85128341    155.642128    0.00000    0.56044   -0.50581    9    diag
   37      0.161D-11      0.352D-12      -129.85128341    155.642128    0.00000    0.56044   -0.50581    9    diag
   38      0.464D-12      0.224D-12      -129.85128341    155.642128    0.00000    0.56044   -0.50581    9    diag
   39      0.147D-11      0.281D-12      -129.85128341    155.642128    0.00000    0.56044   -0.50581    9    diag
   40      0.154D-11      0.233D-12      -129.85128341    155.642128    0.00000    0.56044   -0.50581    9    orth
   41      0.217D-12      0.409D-12      -129.85128341    155.642128    0.00000    0.56044   -0.50581    9    diag
   42      0.200D-11      0.361D-12      -129.85128341    155.642128    0.00000    0.56044   -0.50581    9    diag
   43      0.146D-11      0.189D-12      -129.85128341    155.642128    0.00000    0.56044   -0.50581    9    diag
   44      0.148D-11      0.262D-12      -129.85128341    155.642128    0.00000    0.56044   -0.50581    9    diag
   45      0.120D-11      0.220D-12      -129.85128341    155.642128    0.00000    0.56044   -0.50581    9    diag
   46      0.825D-12      0.213D-12      -129.85128341    155.642128    0.00000    0.56044   -0.50581    9    diag
   47      0.645D-12      0.210D-12      -129.85128341    155.642128    0.00000    0.56044   -0.50581    9    diag
   48      0.112D-11      0.237D-12      -129.85128341    155.642128    0.00000    0.56044   -0.50581    9    diag
   49      0.114D-11      0.186D-12      -129.85128341    155.642128    0.00000    0.56044   -0.50581    9    diag
   50      0.488D-12      0.229D-12      -129.85128341    155.642128    0.00000    0.56044   -0.50581    9    orth
   51      0.138D-11      0.253D-12      -129.85128341    155.642128    0.00000    0.56044   -0.50581    9    diag
   52      0.783D-12      0.279D-12      -129.85128341    155.642128    0.00000    0.56044   -0.50581    0    orth

 Final occupancy:   7   1

 !RHF STATE 1.1 Energy               -129.851283408716
 Nuclear energy                        30.65643933
 One-electron energy                 -238.32878667
 Two-electron energy                   77.82106393
 Virial quotient                       -1.00130315
 !RHF STATE 1.1 Dipole moment           0.00000000     0.56044150    -0.50581128
 Dipole moment /Debye                   0.00000000     1.42440690    -1.28555983

 Orbital energies:

         1.1          2.1          3.1          4.1          5.1          6.1          7.1          8.1          9.1
    -20.651529   -15.710536    -1.541341    -0.989445    -0.751091    -0.670065    -0.426263     0.023059     0.065574

         1.2          2.2          3.2
     -0.603059     0.063000     0.093090

 HOMO      7.1    -0.426263 =     -11.5992eV
 LUMO      8.1     0.023059 =       0.6275eV
 LUMO-HOMO         0.449322 =      12.2267eV


 **********************************************************************************************************************************
 DATASETS  * FILE   NREC   LENGTH (MB)   RECORD NAMES
              1      19     6374.22       500      610      700      900      950      970     1000      129      960     1100   
                                          VAR    BASINP    GEOM    SYMINP    ZMAT    AOBASIS   BASIS     P2S    ABASIS      S 
                                         1400     1410     1200     1210     1080     1600     1650     1300     1700   
                                           T        V       H0       H01     AOSYM     SMH    MOLCAS    ERIS     OPER   

              2       4        4.02       700     1000      520     2100   
                                         GEOM     BASIS   MCVARS     RHF  

 PROGRAMS   *        TOTAL        HF       INT
 CPU TIMES  *       336.66    202.53    134.04
 REAL TIME  *       420.71 SEC
 DISK USED  *        21.32 GB      
 **********************************************************************************************************************************


 PROGRAM * CCSD (Closed-shell coupled cluster)     Authors: C. Hampel, H.-J. Werner, 1991, M. Deegan, P.J. Knowles, 1992


 Convergence thresholds:  THRVAR = 1.00D-08  THRDEN = 1.00D-12

 CCSD(T)     terms to be evaluated (factor= 1.000)


 Number of core orbitals:           2 (   2   0 )
 Number of closed-shell orbitals:   6 (   5   1 )
 Number of external orbitals:     326 ( 197 129 )

 Molecular orbitals read from record     2100.2  Type=RHF/CANONICAL (state 1.1)

 Number of N-1 electron functions:               6
 Number of N-2 electron functions:              21
 Number of singly external CSFs:              1114
 Number of doubly external CSFs:            975958
 Total number of CSFs:                      977073

 Length of J-op  integral file:               0.00 MB
 Length of K-op  integral file:               4.07 MB
 Length of 3-ext integral record:             0.00 MB

 Memory could be reduced to 151.33 Mwords without degradation in triples

 Integral transformation finished. Total CPU:  13.49 sec, npass=  1  Memory used:  41.21 MW

 Reference energy:                   -129.85128341

 MP2 singlet pair energy:              -0.30986468
 MP2 triplet pair energy:              -0.17113022
 MP2 correlation energy:               -0.48099490
 MP2 total energy:                   -130.33227831

 SCS-MP2 correlation energy:           -0.47831864   (PS=  1.200000  PT=  0.333333)
 SCS-MP2 total energy:               -130.32960205

 ITER.      SQ.NORM     CORR.ENERGY   TOTAL ENERGY   ENERGY CHANGE        DEN1      VAR(S)    VAR(P)  DIIS     TIME  TIME/IT
   1      1.11923999    -0.47854004  -130.32982345     0.00245486     0.01854354  0.30D-02  0.30D-02  1  1    23.96    11.60
   2      1.12954034    -0.47854266  -130.32982607    -0.00000262    -0.01233259  0.97D-04  0.47D-03  2  2    34.70    11.80
   3      1.13544521    -0.47890483  -130.33018823    -0.00036216    -0.00293023  0.44D-04  0.53D-04  3  3    45.33    11.86
   4      1.13807656    -0.47890234  -130.33018575     0.00000248    -0.00092751  0.41D-05  0.93D-05  4  4    55.85    11.89
   5      1.13911288    -0.47892923  -130.33021264    -0.00002689    -0.00023145  0.11D-05  0.16D-05  5  5    66.48    11.90
   6      1.13944382    -0.47891900  -130.33020241     0.00001023    -0.00004644  0.12D-06  0.39D-06  6  6    77.03    11.92
   7      1.13951842    -0.47891847  -130.33020188     0.00000054     0.00000260  0.18D-07  0.87D-07  6  1    87.60    11.93
   8      1.13954288    -0.47891860  -130.33020201    -0.00000013    -0.00000282  0.36D-08  0.17D-07  6  2    98.23    11.93
   9      1.13955126    -0.47891809  -130.33020149     0.00000051    -0.00000026  0.20D-08  0.17D-08  6  3   108.87    11.94
  10      1.13954715    -0.47891876  -130.33020217    -0.00000068     0.00000144  0.30D-09  0.27D-09  6  5   119.45    11.95
  11      1.13954878    -0.47891876  -130.33020217     0.00000000    -0.00000028  0.85D-10  0.23D-10  6  4   130.09    11.95
  12      1.13954836    -0.47891882  -130.33020223    -0.00000006     0.00000005  0.16D-10  0.53D-11  6  6   140.69    11.95
  13      1.13954816    -0.47891882  -130.33020223    -0.00000000    -0.00000003  0.29D-11  0.82D-12  6  1   151.34    11.96
  14      1.13954791    -0.47891883  -130.33020224    -0.00000001     0.00000003  0.45D-12  0.15D-12  6  3   162.11    11.96
  15      1.13954784    -0.47891883  -130.33020224    -0.00000000     0.00000001  0.11D-12  0.22D-13  6  2   172.83    11.96
  16      1.13954783    -0.47891883  -130.33020224     0.00000000     0.00000000  0.28D-13  0.86D-14  6  4   183.45    11.96
  17      1.13954783    -0.47891883  -130.33020224    -0.00000000    -0.00000000  0.16D-14  0.11D-14  6  5   194.13    11.96
  18      1.13954784    -0.47891883  -130.33020224     0.00000000    -0.00000000  0.26D-15  0.29D-15  6  6   204.86    11.96
  19      1.13954784    -0.47891883  -130.33020224     0.00000000    -0.00000000  0.33D-16  0.42D-16  6  2   215.81    11.98
  20      1.13954784    -0.47891883  -130.33020224     0.00000000    -0.00000000  0.83D-17  0.58D-17  6  1   226.48    11.98
  21      1.13954784    -0.47891883  -130.33020224    -0.00000000     0.00000000  0.14D-17  0.82D-18  6  3   237.01    11.98
  22      1.13954784    -0.47891883  -130.33020224    -0.00000000     0.00000000  0.33D-18  0.14D-18  6  4   247.74    11.98
  23      1.13954784    -0.47891883  -130.33020224    -0.00000000     0.00000000  0.10D-18  0.47D-19  6  5   258.47    11.98
  24      1.13954784    -0.47891883  -130.33020224    -0.00000000     0.00000000  0.43D-19  0.23D-19  6  6   269.10    11.98
  25      1.13954784    -0.47891883  -130.33020224     0.00000000    -0.00000000  0.27D-19  0.15D-19  6  2   279.77    11.98
  26      1.13954784    -0.47891883  -130.33020224    -0.00000000     0.00000000  0.21D-19  0.11D-19  6  1   290.88    12.00

 Norm of t1 vector:      0.07401241      S-energy:    -0.00000000      T1 diagnostic:  0.01510772
                                                                       D1 diagnostic:  0.04033683

 Doubles amplitudes (print threshold =  0.500E-01):

         I         J         SYM. A    SYM. B    A         B      T(IJ, AB)

         6         6         2         2         1         1     -0.06827474
         6         6         2         2         1         2      0.05243475
         6         6         2         2         2         1      0.05243475


 Total CPU time for triples:    113.27 sec


 RESULTS
 =======

  Reference energy                   -129.851283408717
  CCSD singlet pair energy             -0.331941689013
  CCSD triplet pair energy             -0.146977144474
  CCSD correlation energy              -0.478918833490

  Triples (T) contribution             -0.022498500196
  Total correlation energy             -0.501417333686

  CCSD total energy                  -130.330202242206
  CCSD[T] energy                     -130.353720900704
  CCSD-T energy                      -130.352335202355
 !CCSD(T) total energy               -130.352700742403

 Timing summary (sec):

 STEP                 CPU(USER)    SYS     CPU(TOT)    WALL
 Transformation         13.56      1.79     15.35     15.36
 CCSD iterations       277.33     34.65    311.98    311.99
 Triples               113.27      2.16    115.43    115.44

 Program statistics:

 Available memory in ccsd:               994999756
 Min. memory needed in ccsd:               3348832
 Max. memory used in ccsd:                 4143652
 Max. memory used in cckext:               8340089 (26 integral passes)



 **********************************************************************************************************************************
 DATASETS  * FILE   NREC   LENGTH (MB)   RECORD NAMES
              1      20     6809.41       500      610      700      900      950      970     1000      129      960     1100   
                                          VAR    BASINP    GEOM    SYMINP    ZMAT    AOBASIS   BASIS     P2S    ABASIS      S 
                                         1400     1410     1200     1210     1080     1600     1650     1300     1700     1380   
                                           T        V       H0       H01     AOSYM     SMH    MOLCAS    ERIS     OPER     JKOP   

              2       4        4.02       700     1000      520     2100   
                                         GEOM     BASIS   MCVARS     RHF  

 PROGRAMS   *        TOTAL   CCSD(T)        HF       INT
 CPU TIMES  *       740.85    404.19    202.53    134.04
 REAL TIME  *       863.54 SEC
 DISK USED  *        21.32 GB      
 **********************************************************************************************************************************

 CCSD(T)/aug-cc-pV5Z energy=   -130.352700742403

        CCSD(T)         HF-SCF  
   -130.35270074   -129.85128341
 **********************************************************************************************************************************
 Molpro calculation terminated
 Variable memory released
