
 Primary working directories    : /tmp/r2666/234630.maple
 Secondary working directories  : /tmp/r2666/234630.maple
 Wavefunction directory         : /ddn/home4/r2666/wfu/
 Main file repository           : /tmp/r2666/234630.maple/

 SHA1      : d5ffa45e93fdbca01ffc919aa182cfdae0147319
 NAME      : 2015.1.35
 ARCHNAME  : linux/x86_64
 FC        : /opt/intel/composer_xe_2015.1.133/bin/intel64/ifort
 BLASLIB   : -Wl,-_start-group /opt/intel/mkl/lib/intel64/libmkl_intel_ilp64.a /opt/intel/mkl/lib/intel64/libmkl_intel_thread.a /opt/intel/mkl/lib/intel64/libmkl_core.a -Wl,-_end-group
 id        : olemiss

 Nodes     nprocs
 cn047        1

 Using customized tuning parameters: mindgm=1; mindgv=20; mindgc=4; mindgr=1; noblas=0; minvec=7
 default implementation of scratch files=df  

 ***,hno CCSD(T)/TZ-F12 QFF
 memory, 995, m;
 gthresh,energy=1.d-12,zero=1.d-22,oneint=1.d-22,twoint=1.d-22;
 gthresh,optgrad=1.d-8,optstep=1.d-8;
 nocompress;
 geomtyp=xyz
 bohr
 geometry={
 3
          2         2
 N        0.0000000000       -0.1399668740       -1.1550721128
 H        0.0000000000        1.6503121234       -1.9286497023
 O        0.0000000000        0.0314225406        1.1331322242
 }
 
 basis=av5z
   {hf,maxit=500;accu,20;}
 {ccsd(t),nocheck,maxit=250;orbital,IGNORE_ERROR;}

 Variables initialized (889), CPU time= 0.00 sec
 Commands  initialized (702), CPU time= 0.01 sec, 572 directives.
 Default parameters read. Elapsed time= 0.04 sec

 Checking input...
 Passed
1


                                         ***  PROGRAM SYSTEM MOLPRO  ***
                                       Copyright, TTI GmbH Stuttgart, 2015
                                    Version 2015.1 linked Jul  9 2018 13:16:40


 **********************************************************************************************************************************
 LABEL *   hno CCSD(T)/TZ-F12 QFF                                                        
  64 bit serial version                                                                  DATE: 08-Feb-20          TIME: 17:24:40  
 **********************************************************************************************************************************

 SHA1:             d5ffa45e93fdbca01ffc919aa182cfdae0147319
 **********************************************************************************************************************************

 THRESHOLDS:

 ZERO    =  1.00D-22  ONEINT  =  1.00D-22  TWOINT  =  1.00D-22  PREFAC  =  1.00D-14  LOCALI  =  1.00D-09  EORDER  =  1.00D-04
 ENERGY  =  1.00D-12  ETEST   =  0.00D+00  EDENS   =  0.00D+00  THRDEDEF=  1.00D-06  GRADIENT=  1.00D-02  STEP    =  1.00D-03
 ORBITAL =  1.00D-05  CIVEC   =  1.00D-05  COEFF   =  1.00D-04  PRINTCI =  5.00D-02  PUNCHCI =  9.90D+01  OPTGRAD =  3.00D-04
 OPTENERG=  1.00D-06  OPTSTEP =  3.00D-04  THRGRAD =  1.00D-10  COMPRESS=  1.00D-11  VARMIN  =  1.00D-07  VARMAX  =  1.00D-03
 THRDOUB =  0.00D+00  THRDIV  =  1.00D-05  THRRED  =  1.00D-07  THRPSP  =  1.00D+00  THRDC   =  1.00D-10  THRCS   =  1.00D-10
 THRNRM  =  1.00D-08  THREQ   =  0.00D+00  THRDE   =  1.00D+00  THRREF  =  1.00D-05  SPARFAC =  1.00D+00  THRDLP  =  1.00D-07
 THRDIA  =  1.00D-10  THRDLS  =  1.00D-07  THRGPS  =  0.00D+00  THRKEX  =  0.00D+00  THRDIS  =  2.00D-01  THRVAR  =  1.00D-10
 THRLOC  =  1.00D-06  THRGAP  =  1.00D-06  THRLOCT = -1.00D+00  THRGAPT = -1.00D+00  THRORB  =  1.00D-06  THRMLTP =  0.00D+00
 THRCPQCI=  1.00D-10  KEXTA   =  0.00D+00  THRCOARS=  0.00D+00  SYMTOL  =  1.00D-06  GRADTOL =  1.00D-06  THROVL  =  1.00D-08
 THRORTH =  1.00D-08  GRID    =  1.00D-06  GRIDMAX =  1.00D-03  DTMAX   =  0.00D+00  THROCCDE=  1.00D-01  THROCCDE=  1.00D-01



 THRESHOLDS:

 ZERO    =  1.00D-22  ONEINT  =  1.00D-22  TWOINT  =  1.00D-22  PREFAC  =  1.00D-14  LOCALI  =  1.00D-09  EORDER  =  1.00D-04
 ENERGY  =  1.00D-12  ETEST   =  0.00D+00  EDENS   =  0.00D+00  THRDEDEF=  1.00D-06  GRADIENT=  1.00D-02  STEP    =  1.00D-03
 ORBITAL =  1.00D-05  CIVEC   =  1.00D-05  COEFF   =  1.00D-04  PRINTCI =  5.00D-02  PUNCHCI =  9.90D+01  OPTGRAD =  1.00D-08
 OPTENERG=  1.00D-06  OPTSTEP =  1.00D-08  THRGRAD =  1.00D-10  COMPRESS=  1.00D-11  VARMIN  =  1.00D-07  VARMAX  =  1.00D-03
 THRDOUB =  0.00D+00  THRDIV  =  1.00D-05  THRRED  =  1.00D-07  THRPSP  =  1.00D+00  THRDC   =  1.00D-10  THRCS   =  1.00D-10
 THRNRM  =  1.00D-08  THREQ   =  0.00D+00  THRDE   =  1.00D+00  THRREF  =  1.00D-05  SPARFAC =  1.00D+00  THRDLP  =  1.00D-07
 THRDIA  =  1.00D-10  THRDLS  =  1.00D-07  THRGPS  =  0.00D+00  THRKEX  =  0.00D+00  THRDIS  =  2.00D-01  THRVAR  =  1.00D-10
 THRLOC  =  1.00D-06  THRGAP  =  1.00D-06  THRLOCT = -1.00D+00  THRGAPT = -1.00D+00  THRORB  =  1.00D-06  THRMLTP =  0.00D+00
 THRCPQCI=  1.00D-10  KEXTA   =  0.00D+00  THRCOARS=  0.00D+00  SYMTOL  =  1.00D-06  GRADTOL =  1.00D-06  THROVL  =  1.00D-08
 THRORTH =  1.00D-08  GRID    =  1.00D-06  GRIDMAX =  1.00D-03  DTMAX   =  0.00D+00  THROCCDE=  1.00D-01  THROCCDE=  1.00D-01



 Input parameters for SORTINT:

 COMPRESS =    0.000000
 C_FINAL  =    1.000000
 DEBUG    =   -1.000000
 C_SORT1  =    0.000000
 C_SEWARD =    0.000000
 THRESH   =    0.000000
 IO       =  molpro                                                          
 SPRI     =    0.000000
 SETTING GEOMTYP        =    XYZ
 ZUNIT=BOHR
 

 Variable memory set to  995000000 words,  buffer space   230000 words

 SETTING BASIS          =    AV5Z


 Recomputing integrals since basis changed


 Using spherical harmonics

 Library entry N      S aug-cc-pV5Z          selected for orbital group  1
 Library entry N      P aug-cc-pV5Z          selected for orbital group  1
 Library entry N      D aug-cc-pV5Z          selected for orbital group  1
 Library entry N      F aug-cc-pV5Z          selected for orbital group  1
 Library entry N      G aug-cc-pV5Z          selected for orbital group  1
 Library entry N      H aug-cc-pV5Z          selected for orbital group  1
 Library entry H      S aug-cc-pV5Z          selected for orbital group  2
 Library entry H      P aug-cc-pV5Z          selected for orbital group  2
 Library entry H      D aug-cc-pV5Z          selected for orbital group  2
 Library entry H      F aug-cc-pV5Z          selected for orbital group  2
 Library entry H      G aug-cc-pV5Z          selected for orbital group  2
 Library entry O      S aug-cc-pV5Z          selected for orbital group  3
 Library entry O      P aug-cc-pV5Z          selected for orbital group  3
 Library entry O      D aug-cc-pV5Z          selected for orbital group  3
 Library entry O      F aug-cc-pV5Z          selected for orbital group  3
 Library entry O      G aug-cc-pV5Z          selected for orbital group  3
 Library entry O      H aug-cc-pV5Z          selected for orbital group  3


 PROGRAM * SEWARD (Integral evaluation for generally contracted gaussian basis sets)     Author: Roland Lindh, 1990

 Geometry written to block  1 of record 700


 Point group  Cs  



 ATOMIC COORDINATES

 NR  ATOM    CHARGE       X              Y              Z

   1  N       7.00    0.000000000   -0.139966874   -1.155072113
   2  H       1.00    0.000000000    1.650312123   -1.928649702
   3  O       8.00    0.000000000    0.031422541    1.133132224

 Bond lengths in Bohr (Angstrom)

 1-2  1.950261822  1-3  2.294614002
     ( 1.032034112)     ( 1.214257438)

 Bond angles

  2-1-3  109.08559156

 NUCLEAR CHARGE:                   16
 NUMBER OF PRIMITIVE AOS:         506
 NUMBER OF SYMMETRY AOS:          371
 NUMBER OF CONTRACTIONS:          334   ( 204A'  + 130A"  )
 NUMBER OF CORE ORBITALS:           2   (   2A'  +   0A"  )
 NUMBER OF VALENCE ORBITALS:        9   (   7A'  +   2A"  )


 NUCLEAR REPULSION ENERGY   30.30409013


 Eigenvalues of metric

         1 0.108E-04 0.170E-04 0.611E-04 0.998E-04 0.107E-03 0.135E-03 0.195E-03 0.223E-03
         2 0.129E-03 0.338E-03 0.112E-02 0.161E-02 0.178E-02 0.254E-02 0.307E-02 0.373E-02


 Contracted 2-electron integrals neglected if value below      1.0D-22

      756977239. INTEGRALS WRITTEN OUT IN  184855 BLOCKS ON RECORD 1290 OF FILE 1


 NUMBER OF SORTED TWO-ELECTRON INTEGRALS:  789027325.     BUFFER LENGTH:  32768
 NUMBER OF SEGMENTS:  25  SEGMENT LENGTH:   31997130      RECORD LENGTH: 524288

 Memory used in sort:      32.55 MW

 SORT1 READ   756977239. AND WROTE   760993123. INTEGRALS IN   2189 RECORDS. CPU TIME:    24.62 SEC, REAL TIME:    81.39 SEC
 SORT2 READ   760993123. AND WROTE   789027325. INTEGRALS IN     25 RECORDS. CPU TIME:    11.10 SEC, REAL TIME:   108.98 SEC

 FILE SIZES:   FILE 1: 12137.5 MBYTE,  FILE 4:  9181.4 MBYTE,   TOTAL:  21318.9 MBYTE

 OPERATOR DM      FOR CENTER  0  COORDINATES:    0.000000    0.000000    0.000000


 **********************************************************************************************************************************
 DATASETS  * FILE   NREC   LENGTH (MB)   RECORD NAMES
              1      19     6374.22       500      610      700      900      950      970     1000      129      960     1100   
                                          VAR    BASINP    GEOM    SYMINP    ZMAT    AOBASIS   BASIS     P2S    ABASIS      S 
                                         1400     1410     1200     1210     1080     1600     1650     1300     1700   
                                           T        V       H0       H01     AOSYM     SMH    MOLCAS    ERIS     OPER   

 PROGRAMS   *        TOTAL       INT
 CPU TIMES  *       136.47    136.38
 REAL TIME  *       298.51 SEC
 DISK USED  *        21.32 GB      
 **********************************************************************************************************************************


 PROGRAM * RHF-SCF (CLOSED SHELL)       Authors: W. Meyer, H.-J. Werner


 NUMBER OF ELECTRONS:       8+    8-
 CONVERGENCE THRESHOLDS:    1.00E-10 (Density)    1.00E-13 (Energy)
 MAX. NUMBER OF ITERATIONS:      500
 INTERPOLATION TYPE:            DIIS
 INTERPOLATION STEPS:              2 (START)      1 (STEP)
 LEVEL SHIFTS:                  0.00 (CLOSED)  0.00 (OPEN) 



 Orbital guess generated from atomic densities. Full valence occupancy:    9   2

 Molecular orbital dump at record        2100.2

 Initial occupancy:   7   1

 ITERATION    DDIFF          GRAD             ENERGY        2-EL.EN.            DIPOLE MOMENTS         DIIS   ORB.
    1      0.000D+00      0.000D+00      -129.79814528    153.869971    0.00000    0.61779   -1.04754    0    start
    2      0.000D+00      0.639D-02      -129.82517115    155.060971    0.00000    0.61492   -0.21618    1    diag
    3      0.401D-02      0.489D-02      -129.84820687    155.206442    0.00000    0.56925   -0.60901    2    diag
    4      0.207D-02      0.779D-03      -129.84902742    154.918976    0.00000    0.57613   -0.54592    3    diag
    5      0.382D-03      0.249D-03      -129.84915212    155.011995    0.00000    0.58121   -0.54829    4    diag
    6      0.156D-03      0.712D-04      -129.84917179    154.995886    0.00000    0.58147   -0.54402    5    diag
    7      0.593D-04      0.358D-04      -129.84917765    154.998511    0.00000    0.58262   -0.54132    6    diag
    8      0.409D-04      0.128D-04      -129.84917835    154.997802    0.00000    0.58266   -0.54024    7    diag
    9      0.163D-04      0.249D-05      -129.84917839    154.997692    0.00000    0.58262   -0.54001    8    diag
   10      0.334D-05      0.557D-06      -129.84917839    154.997675    0.00000    0.58259   -0.53998    9    orth
   11      0.633D-06      0.110D-06      -129.84917839    154.997672    0.00000    0.58259   -0.53998    9    diag
   12      0.115D-06      0.226D-07      -129.84917839    154.997672    0.00000    0.58258   -0.53998    9    diag
   13      0.242D-07      0.598D-08      -129.84917839    154.997672    0.00000    0.58258   -0.53998    9    diag
   14      0.661D-08      0.116D-08      -129.84917839    154.997672    0.00000    0.58258   -0.53998    9    diag
   15      0.121D-08      0.326D-09      -129.84917839    154.997672    0.00000    0.58258   -0.53998    9    diag
   16      0.366D-09      0.970D-10      -129.84917839    154.997672    0.00000    0.58258   -0.53998    9    diag
   17      0.693D-10      0.237D-10      -129.84917839    154.997672    0.00000    0.58258   -0.53998    9    diag
   18      0.216D-10      0.770D-11      -129.84917839    154.997672    0.00000    0.58258   -0.53998    9    diag
   19      0.151D-10      0.184D-11      -129.84917839    154.997672    0.00000    0.58258   -0.53998    9    fixocc
   20      0.216D-10      0.489D-12      -129.84917839    154.997672    0.00000    0.58258   -0.53998    9    orth
   21      0.945D-11      0.322D-12      -129.84917839    154.997672    0.00000    0.58258   -0.53998    9    diag
   22      0.438D-11      0.329D-12      -129.84917839    154.997672    0.00000    0.58258   -0.53998    0    orth

 Final occupancy:   7   1

 !RHF STATE 1.1 Energy               -129.849178388182
 Nuclear energy                        30.30409013
 One-electron energy                 -237.65210438
 Two-electron energy                   77.49883587
 Virial quotient                       -1.00166598
 !RHF STATE 1.1 Dipole moment           0.00000000     0.58258300    -0.53998173
 Dipole moment /Debye                   0.00000000     1.48068130    -1.37240675

 Orbital energies:

         1.1          2.1          3.1          4.1          5.1          6.1          7.1          8.1          9.1
    -20.653435   -15.710401    -1.524022    -1.001649    -0.747463    -0.664508    -0.433031     0.022731     0.065512

         1.2          2.2          3.2
     -0.592707     0.058703     0.090788

 HOMO      7.1    -0.433031 =     -11.7834eV
 LUMO      8.1     0.022731 =       0.6185eV
 LUMO-HOMO         0.455762 =      12.4019eV


 **********************************************************************************************************************************
 DATASETS  * FILE   NREC   LENGTH (MB)   RECORD NAMES
              1      19     6374.22       500      610      700      900      950      970     1000      129      960     1100   
                                          VAR    BASINP    GEOM    SYMINP    ZMAT    AOBASIS   BASIS     P2S    ABASIS      S 
                                         1400     1410     1200     1210     1080     1600     1650     1300     1700   
                                           T        V       H0       H01     AOSYM     SMH    MOLCAS    ERIS     OPER   

              2       4        4.02       700     1000      520     2100   
                                         GEOM     BASIS   MCVARS     RHF  

 PROGRAMS   *        TOTAL        HF       INT
 CPU TIMES  *       238.49    102.02    136.38
 REAL TIME  *       426.08 SEC
 DISK USED  *        21.32 GB      
 **********************************************************************************************************************************


 PROGRAM * CCSD (Closed-shell coupled cluster)     Authors: C. Hampel, H.-J. Werner, 1991, M. Deegan, P.J. Knowles, 1992


 Convergence thresholds:  THRVAR = 1.00D-08  THRDEN = 1.00D-12

 CCSD(T)     terms to be evaluated (factor= 1.000)


 Number of core orbitals:           2 (   2   0 )
 Number of closed-shell orbitals:   6 (   5   1 )
 Number of external orbitals:     326 ( 197 129 )

 Molecular orbitals read from record     2100.2  Type=RHF/CANONICAL (state 1.1)

 Number of N-1 electron functions:               6
 Number of N-2 electron functions:              21
 Number of singly external CSFs:              1114
 Number of doubly external CSFs:            975958
 Total number of CSFs:                      977073

 Length of J-op  integral file:               0.00 MB
 Length of K-op  integral file:               4.07 MB
 Length of 3-ext integral record:             0.00 MB

 Memory could be reduced to 151.33 Mwords without degradation in triples

 Integral transformation finished. Total CPU:  15.52 sec, npass=  1  Memory used:  41.21 MW

 Reference energy:                   -129.84917839

 MP2 singlet pair energy:              -0.31137832
 MP2 triplet pair energy:              -0.17217435
 MP2 correlation energy:               -0.48355267
 MP2 total energy:                   -130.33273106

 SCS-MP2 correlation energy:           -0.48078469   (PS=  1.200000  PT=  0.333333)
 SCS-MP2 total energy:               -130.32996308

 ITER.      SQ.NORM     CORR.ENERGY   TOTAL ENERGY   ENERGY CHANGE        DEN1      VAR(S)    VAR(P)  DIIS     TIME  TIME/IT
   1      1.12063145    -0.48034873  -130.32952712     0.00320393     0.01999143  0.32D-02  0.32D-02  1  1    27.81    13.38
   2      1.13131583    -0.48019029  -130.32936868     0.00015845    -0.01274529  0.11D-03  0.49D-03  2  2    40.50    13.63
   3      1.13750066    -0.48057131  -130.32974970    -0.00038102    -0.00300090  0.48D-04  0.58D-04  3  3    53.04    13.70
   4      1.14034203    -0.48057192  -130.32975031    -0.00000061    -0.00097686  0.45D-05  0.10D-04  4  4    65.62    13.74
   5      1.14149921    -0.48060126  -130.32977965    -0.00002934    -0.00025554  0.11D-05  0.17D-05  5  5    78.32    13.77
   6      1.14186389    -0.48058913  -130.32976752     0.00001213    -0.00005172  0.11D-06  0.43D-06  6  6    90.96    13.79
   7      1.14193886    -0.48058915  -130.32976754    -0.00000002     0.00000398  0.14D-07  0.98D-07  6  1   103.61    13.81
   8      1.14196395    -0.48058919  -130.32976758    -0.00000004    -0.00000309  0.35D-08  0.20D-07  6  2   116.37    13.84
   9      1.14196874    -0.48058883  -130.32976722     0.00000036     0.00000130  0.27D-08  0.24D-08  6  4   129.29    13.87
  10      1.14197134    -0.48058917  -130.32976756    -0.00000033    -0.00000084  0.54D-09  0.29D-09  6  3   141.83    13.87
  11      1.14197115    -0.48058926  -130.32976765    -0.00000009    -0.00000012  0.16D-09  0.41D-10  6  5   154.65    13.89
  12      1.14197020    -0.48058940  -130.32976779    -0.00000014     0.00000039  0.21D-10  0.12D-10  6  6   167.25    13.89
  13      1.14196932    -0.48058945  -130.32976783    -0.00000005     0.00000022  0.57D-11  0.28D-11  6  1   179.93    13.89
  14      1.14196861    -0.48058948  -130.32976787    -0.00000003     0.00000017  0.37D-12  0.53D-12  6  4   192.59    13.89
  15      1.14196839    -0.48058949  -130.32976788    -0.00000001     0.00000004  0.74D-13  0.46D-13  6  2   205.20    13.89
  16      1.14196834    -0.48058949  -130.32976788    -0.00000000     0.00000001  0.21D-13  0.79D-14  6  3   217.85    13.89
  17      1.14196831    -0.48058949  -130.32976788    -0.00000000     0.00000001  0.41D-14  0.11D-14  6  5   230.56    13.89
  18      1.14196831    -0.48058949  -130.32976788    -0.00000000     0.00000000  0.91D-15  0.26D-15  6  6   242.18    13.83
  19      1.14196830    -0.48058949  -130.32976788    -0.00000000     0.00000000  0.13D-15  0.53D-16  6  1   253.11    13.74
  20      1.14196831    -0.48058949  -130.32976788     0.00000000    -0.00000000  0.14D-16  0.84D-17  6  4   263.98    13.66
  21      1.14196831    -0.48058949  -130.32976788     0.00000000    -0.00000000  0.94D-18  0.14D-17  6  3   274.89    13.58
  22      1.14196831    -0.48058949  -130.32976788     0.00000000    -0.00000000  0.26D-18  0.33D-18  6  2   285.78    13.52
  23      1.14196831    -0.48058949  -130.32976788     0.00000000    -0.00000000  0.65D-19  0.15D-18  6  5   296.78    13.46
  24      1.14196831    -0.48058949  -130.32976788     0.00000000     0.00000000  0.21D-19  0.75D-19  6  6   307.70    13.40
  25      1.14196831    -0.48058949  -130.32976788    -0.00000000     0.00000000  0.10D-19  0.46D-19  6  1   319.75    13.40

 Norm of t1 vector:      0.07675967      S-energy:     0.00000000      T1 diagnostic:  0.01566850
                                                                       D1 diagnostic:  0.04306955

 Doubles amplitudes (print threshold =  0.500E-01):

         I         J         SYM. A    SYM. B    A         B      T(IJ, AB)

         6         6         2         2         1         1     -0.08407508
         6         6         2         2         1         2      0.05308156
         6         6         2         2         2         1      0.05308156


 Total CPU time for triples:    128.99 sec


 RESULTS
 =======

  Reference energy                   -129.849178388183
  CCSD singlet pair energy             -0.333408817366
  CCSD triplet pair energy             -0.147180672852
  CCSD correlation energy              -0.480589490215

  Triples (T) contribution             -0.022997597082
  Total correlation energy             -0.503587087297

  CCSD total energy                  -130.329767878398
  CCSD[T] energy                     -130.353856546104
  CCSD-T energy                      -130.352385619432
 !CCSD(T) total energy               -130.352765475480

 Timing summary (sec):

 STEP                 CPU(USER)    SYS     CPU(TOT)    WALL
 Transformation         15.58      1.83     17.41     17.42
 CCSD iterations       304.19     30.85    335.04    335.07
 Triples               128.99      2.20    131.19    131.20

 Program statistics:

 Available memory in ccsd:               994999756
 Min. memory needed in ccsd:               3348832
 Max. memory used in ccsd:                 4143652
 Max. memory used in cckext:               8340089 (25 integral passes)



 **********************************************************************************************************************************
 DATASETS  * FILE   NREC   LENGTH (MB)   RECORD NAMES
              1      20     6809.41       500      610      700      900      950      970     1000      129      960     1100   
                                          VAR    BASINP    GEOM    SYMINP    ZMAT    AOBASIS   BASIS     P2S    ABASIS      S 
                                         1400     1410     1200     1210     1080     1600     1650     1300     1700     1380   
                                           T        V       H0       H01     AOSYM     SMH    MOLCAS    ERIS     OPER     JKOP   

              2       4        4.02       700     1000      520     2100   
                                         GEOM     BASIS   MCVARS     RHF  

 PROGRAMS   *        TOTAL   CCSD(T)        HF       INT
 CPU TIMES  *       687.27    448.78    102.02    136.38
 REAL TIME  *       909.82 SEC
 DISK USED  *        21.32 GB      
 **********************************************************************************************************************************

 CCSD(T)/aug-cc-pV5Z energy=   -130.352765475480

        CCSD(T)         HF-SCF  
   -130.35276548   -129.84917839
 **********************************************************************************************************************************
 Molpro calculation terminated
 Variable memory released
