
 Primary working directories    : /tmp/r2666/235556.maple
 Secondary working directories  : /tmp/r2666/235556.maple
 Wavefunction directory         : /ddn/home4/r2666/wfu/
 Main file repository           : /tmp/r2666/235556.maple/

 SHA1      : d5ffa45e93fdbca01ffc919aa182cfdae0147319
 NAME      : 2015.1.35
 ARCHNAME  : linux/x86_64
 FC        : /opt/intel/composer_xe_2015.1.133/bin/intel64/ifort
 BLASLIB   : -Wl,-_start-group /opt/intel/mkl/lib/intel64/libmkl_intel_ilp64.a /opt/intel/mkl/lib/intel64/libmkl_intel_thread.a /opt/intel/mkl/lib/intel64/libmkl_core.a -Wl,-_end-group
 id        : olemiss

 Nodes     nprocs
 cn096        1

 Using customized tuning parameters: mindgm=1; mindgv=20; mindgc=4; mindgr=1; noblas=0; minvec=7
 default implementation of scratch files=df  

 ***,hno CCSD(T)/TZ-F12 QFF
 memory, 995, m;
 gthresh,energy=1.d-12,zero=1.d-22,oneint=1.d-22,twoint=1.d-22;
 gthresh,optgrad=1.d-8,optstep=1.d-8;
 nocompress;
 geomtyp=xyz
 bohr
 geometry={
 3
         75        75
 N        0.0000000000       -0.1657353338       -1.1615002539
 H        0.0000000000        1.6686649215       -1.9278837887
 O        0.0000000000        0.0388382023        1.1387944515
 }
 
 basis=av5z
   {hf,maxit=500;accu,20;}
 {ccsd(t),nocheck,maxit=250;orbital,IGNORE_ERROR;}

 Variables initialized (889), CPU time= 0.01 sec
 Commands  initialized (702), CPU time= 0.01 sec, 572 directives.
 Default parameters read. Elapsed time= 0.04 sec

 Checking input...
 Passed
1


                                         ***  PROGRAM SYSTEM MOLPRO  ***
                                       Copyright, TTI GmbH Stuttgart, 2015
                                    Version 2015.1 linked Jul  9 2018 13:16:40


 **********************************************************************************************************************************
 LABEL *   hno CCSD(T)/TZ-F12 QFF                                                        
  64 bit serial version                                                                  DATE: 09-Feb-20          TIME: 14:31:46  
 **********************************************************************************************************************************

 SHA1:             d5ffa45e93fdbca01ffc919aa182cfdae0147319
 **********************************************************************************************************************************

 THRESHOLDS:

 ZERO    =  1.00D-22  ONEINT  =  1.00D-22  TWOINT  =  1.00D-22  PREFAC  =  1.00D-14  LOCALI  =  1.00D-09  EORDER  =  1.00D-04
 ENERGY  =  1.00D-12  ETEST   =  0.00D+00  EDENS   =  0.00D+00  THRDEDEF=  1.00D-06  GRADIENT=  1.00D-02  STEP    =  1.00D-03
 ORBITAL =  1.00D-05  CIVEC   =  1.00D-05  COEFF   =  1.00D-04  PRINTCI =  5.00D-02  PUNCHCI =  9.90D+01  OPTGRAD =  3.00D-04
 OPTENERG=  1.00D-06  OPTSTEP =  3.00D-04  THRGRAD =  1.00D-10  COMPRESS=  1.00D-11  VARMIN  =  1.00D-07  VARMAX  =  1.00D-03
 THRDOUB =  0.00D+00  THRDIV  =  1.00D-05  THRRED  =  1.00D-07  THRPSP  =  1.00D+00  THRDC   =  1.00D-10  THRCS   =  1.00D-10
 THRNRM  =  1.00D-08  THREQ   =  0.00D+00  THRDE   =  1.00D+00  THRREF  =  1.00D-05  SPARFAC =  1.00D+00  THRDLP  =  1.00D-07
 THRDIA  =  1.00D-10  THRDLS  =  1.00D-07  THRGPS  =  0.00D+00  THRKEX  =  0.00D+00  THRDIS  =  2.00D-01  THRVAR  =  1.00D-10
 THRLOC  =  1.00D-06  THRGAP  =  1.00D-06  THRLOCT = -1.00D+00  THRGAPT = -1.00D+00  THRORB  =  1.00D-06  THRMLTP =  0.00D+00
 THRCPQCI=  1.00D-10  KEXTA   =  0.00D+00  THRCOARS=  0.00D+00  SYMTOL  =  1.00D-06  GRADTOL =  1.00D-06  THROVL  =  1.00D-08
 THRORTH =  1.00D-08  GRID    =  1.00D-06  GRIDMAX =  1.00D-03  DTMAX   =  0.00D+00  THROCCDE=  1.00D-01  THROCCDE=  1.00D-01



 THRESHOLDS:

 ZERO    =  1.00D-22  ONEINT  =  1.00D-22  TWOINT  =  1.00D-22  PREFAC  =  1.00D-14  LOCALI  =  1.00D-09  EORDER  =  1.00D-04
 ENERGY  =  1.00D-12  ETEST   =  0.00D+00  EDENS   =  0.00D+00  THRDEDEF=  1.00D-06  GRADIENT=  1.00D-02  STEP    =  1.00D-03
 ORBITAL =  1.00D-05  CIVEC   =  1.00D-05  COEFF   =  1.00D-04  PRINTCI =  5.00D-02  PUNCHCI =  9.90D+01  OPTGRAD =  1.00D-08
 OPTENERG=  1.00D-06  OPTSTEP =  1.00D-08  THRGRAD =  1.00D-10  COMPRESS=  1.00D-11  VARMIN  =  1.00D-07  VARMAX  =  1.00D-03
 THRDOUB =  0.00D+00  THRDIV  =  1.00D-05  THRRED  =  1.00D-07  THRPSP  =  1.00D+00  THRDC   =  1.00D-10  THRCS   =  1.00D-10
 THRNRM  =  1.00D-08  THREQ   =  0.00D+00  THRDE   =  1.00D+00  THRREF  =  1.00D-05  SPARFAC =  1.00D+00  THRDLP  =  1.00D-07
 THRDIA  =  1.00D-10  THRDLS  =  1.00D-07  THRGPS  =  0.00D+00  THRKEX  =  0.00D+00  THRDIS  =  2.00D-01  THRVAR  =  1.00D-10
 THRLOC  =  1.00D-06  THRGAP  =  1.00D-06  THRLOCT = -1.00D+00  THRGAPT = -1.00D+00  THRORB  =  1.00D-06  THRMLTP =  0.00D+00
 THRCPQCI=  1.00D-10  KEXTA   =  0.00D+00  THRCOARS=  0.00D+00  SYMTOL  =  1.00D-06  GRADTOL =  1.00D-06  THROVL  =  1.00D-08
 THRORTH =  1.00D-08  GRID    =  1.00D-06  GRIDMAX =  1.00D-03  DTMAX   =  0.00D+00  THROCCDE=  1.00D-01  THROCCDE=  1.00D-01



 Input parameters for SORTINT:

 COMPRESS =    0.000000
 C_FINAL  =    1.000000
 DEBUG    =   -1.000000
 C_SORT1  =    0.000000
 C_SEWARD =    0.000000
 THRESH   =    0.000000
 IO       =  molpro                                                          
 SPRI     =    0.000000
 SETTING GEOMTYP        =    XYZ
 ZUNIT=BOHR
 

 Variable memory set to  995000000 words,  buffer space   230000 words

 SETTING BASIS          =    AV5Z


 Recomputing integrals since basis changed


 Using spherical harmonics

 Library entry N      S aug-cc-pV5Z          selected for orbital group  1
 Library entry N      P aug-cc-pV5Z          selected for orbital group  1
 Library entry N      D aug-cc-pV5Z          selected for orbital group  1
 Library entry N      F aug-cc-pV5Z          selected for orbital group  1
 Library entry N      G aug-cc-pV5Z          selected for orbital group  1
 Library entry N      H aug-cc-pV5Z          selected for orbital group  1
 Library entry H      S aug-cc-pV5Z          selected for orbital group  2
 Library entry H      P aug-cc-pV5Z          selected for orbital group  2
 Library entry H      D aug-cc-pV5Z          selected for orbital group  2
 Library entry H      F aug-cc-pV5Z          selected for orbital group  2
 Library entry H      G aug-cc-pV5Z          selected for orbital group  2
 Library entry O      S aug-cc-pV5Z          selected for orbital group  3
 Library entry O      P aug-cc-pV5Z          selected for orbital group  3
 Library entry O      D aug-cc-pV5Z          selected for orbital group  3
 Library entry O      F aug-cc-pV5Z          selected for orbital group  3
 Library entry O      G aug-cc-pV5Z          selected for orbital group  3
 Library entry O      H aug-cc-pV5Z          selected for orbital group  3


 PROGRAM * SEWARD (Integral evaluation for generally contracted gaussian basis sets)     Author: Roland Lindh, 1990

 Geometry written to block  1 of record 700


 Point group  Cs  



 ATOMIC COORDINATES

 NR  ATOM    CHARGE       X              Y              Z

   1  N       7.00    0.000000000   -0.165735334   -1.161500254
   2  H       1.00    0.000000000    1.668664922   -1.927883789
   3  O       8.00    0.000000000    0.038838202    1.138794451

 Bond lengths in Bohr (Angstrom)

 1-2  1.988056342  1-3  2.309373522
     ( 1.052034110)     ( 1.222067839)

 Bond angles

  2-1-3  107.59225311

 NUCLEAR CHARGE:                   16
 NUMBER OF PRIMITIVE AOS:         506
 NUMBER OF SYMMETRY AOS:          371
 NUMBER OF CONTRACTIONS:          334   ( 204A'  + 130A"  )
 NUMBER OF CORE ORBITALS:           2   (   2A'  +   0A"  )
 NUMBER OF VALENCE ORBITALS:        9   (   7A'  +   2A"  )


 NUCLEAR REPULSION ENERGY   30.07359551


 Eigenvalues of metric

         1 0.115E-04 0.179E-04 0.645E-04 0.104E-03 0.110E-03 0.142E-03 0.204E-03 0.225E-03
         2 0.133E-03 0.366E-03 0.118E-02 0.168E-02 0.196E-02 0.265E-02 0.330E-02 0.396E-02


 Contracted 2-electron integrals neglected if value below      1.0D-22

      756977480. INTEGRALS WRITTEN OUT IN  184855 BLOCKS ON RECORD 1290 OF FILE 1


 NUMBER OF SORTED TWO-ELECTRON INTEGRALS:  789027325.     BUFFER LENGTH:  32768
 NUMBER OF SEGMENTS:  25  SEGMENT LENGTH:   31997130      RECORD LENGTH: 524288

 Memory used in sort:      32.55 MW

 SORT1 READ   756977480. AND WROTE   760993362. INTEGRALS IN   2189 RECORDS. CPU TIME:    13.43 SEC, REAL TIME:    18.57 SEC
 SORT2 READ   760993362. AND WROTE   789027325. INTEGRALS IN     25 RECORDS. CPU TIME:     7.87 SEC, REAL TIME:    11.38 SEC

 FILE SIZES:   FILE 1: 12137.5 MBYTE,  FILE 4:  9181.4 MBYTE,   TOTAL:  21318.9 MBYTE

 OPERATOR DM      FOR CENTER  0  COORDINATES:    0.000000    0.000000    0.000000


 **********************************************************************************************************************************
 DATASETS  * FILE   NREC   LENGTH (MB)   RECORD NAMES
              1      19     6374.22       500      610      700      900      950      970     1000      129      960     1100   
                                          VAR    BASINP    GEOM    SYMINP    ZMAT    AOBASIS   BASIS     P2S    ABASIS      S 
                                         1400     1410     1200     1210     1080     1600     1650     1300     1700   
                                           T        V       H0       H01     AOSYM     SMH    MOLCAS    ERIS     OPER   

 PROGRAMS   *        TOTAL       INT
 CPU TIMES  *       108.03    107.95
 REAL TIME  *       123.28 SEC
 DISK USED  *        21.32 GB      
 **********************************************************************************************************************************


 PROGRAM * RHF-SCF (CLOSED SHELL)       Authors: W. Meyer, H.-J. Werner


 NUMBER OF ELECTRONS:       8+    8-
 CONVERGENCE THRESHOLDS:    1.00E-10 (Density)    1.00E-13 (Energy)
 MAX. NUMBER OF ITERATIONS:      500
 INTERPOLATION TYPE:            DIIS
 INTERPOLATION STEPS:              2 (START)      1 (STEP)
 LEVEL SHIFTS:                  0.00 (CLOSED)  0.00 (OPEN) 



 Orbital guess generated from atomic densities. Full valence occupancy:    9   2

 Molecular orbital dump at record        2100.2

 Initial occupancy:   7   1

 ITERATION    DDIFF          GRAD             ENERGY        2-EL.EN.            DIPOLE MOMENTS         DIIS   ORB.
    1      0.000D+00      0.000D+00      -129.79409777    153.452396    0.00000    0.59599   -1.07371    0    start
    2      0.000D+00      0.652D-02      -129.82079032    154.640100    0.00000    0.61966   -0.19701    1    diag
    3      0.413D-02      0.514D-02      -129.84635559    154.800883    0.00000    0.56056   -0.61300    2    diag
    4      0.216D-02      0.781D-03      -129.84719211    154.505398    0.00000    0.56789   -0.54910    3    diag
    5      0.385D-03      0.255D-03      -129.84732429    154.600339    0.00000    0.57309   -0.55129    4    diag
    6      0.160D-03      0.739D-04      -129.84734556    154.583796    0.00000    0.57328   -0.54680    5    diag
    7      0.618D-04      0.373D-04      -129.84735199    154.586456    0.00000    0.57447   -0.54395    6    diag
    8      0.428D-04      0.137D-04      -129.84735281    154.585687    0.00000    0.57451   -0.54280    7    diag
    9      0.177D-04      0.269D-05      -129.84735285    154.585564    0.00000    0.57447   -0.54255    8    diag
   10      0.369D-05      0.587D-06      -129.84735285    154.585545    0.00000    0.57443   -0.54252    9    orth
   11      0.667D-06      0.116D-06      -129.84735285    154.585541    0.00000    0.57443   -0.54252    9    diag
   12      0.120D-06      0.244D-07      -129.84735285    154.585541    0.00000    0.57443   -0.54252    9    diag
   13      0.260D-07      0.664D-08      -129.84735285    154.585541    0.00000    0.57442   -0.54252    9    diag
   14      0.739D-08      0.128D-08      -129.84735285    154.585541    0.00000    0.57442   -0.54252    9    diag
   15      0.133D-08      0.361D-09      -129.84735285    154.585541    0.00000    0.57442   -0.54252    9    diag
   16      0.407D-09      0.106D-09      -129.84735285    154.585541    0.00000    0.57442   -0.54252    9    diag
   17      0.726D-10      0.266D-10      -129.84735285    154.585541    0.00000    0.57442   -0.54252    9    diag
   18      0.202D-10      0.884D-11      -129.84735285    154.585541    0.00000    0.57442   -0.54252    9    diag
   19      0.181D-10      0.212D-11      -129.84735285    154.585541    0.00000    0.57442   -0.54252    0    orth

 Final occupancy:   7   1

 !RHF STATE 1.1 Energy               -129.847352854262
 Nuclear energy                        30.07359551
 One-electron energy                 -237.21371900
 Two-electron energy                   77.29277064
 Virial quotient                       -1.00209241
 !RHF STATE 1.1 Dipole moment           0.00000000     0.57442481    -0.54252097
 Dipole moment /Debye                   0.00000000     1.45994661    -1.37886046

 Orbital energies:

         1.1          2.1          3.1          4.1          5.1          6.1          7.1          8.1          9.1
    -20.654133   -15.714708    -1.518232    -0.997307    -0.742953    -0.661994    -0.435233     0.022736     0.065531

         1.2          2.2          3.2
     -0.589529     0.057294     0.090495

 HOMO      7.1    -0.435233 =     -11.8433eV
 LUMO      8.1     0.022736 =       0.6187eV
 LUMO-HOMO         0.457969 =      12.4620eV


 **********************************************************************************************************************************
 DATASETS  * FILE   NREC   LENGTH (MB)   RECORD NAMES
              1      19     6374.22       500      610      700      900      950      970     1000      129      960     1100   
                                          VAR    BASINP    GEOM    SYMINP    ZMAT    AOBASIS   BASIS     P2S    ABASIS      S 
                                         1400     1410     1200     1210     1080     1600     1650     1300     1700   
                                           T        V       H0       H01     AOSYM     SMH    MOLCAS    ERIS     OPER   

              2       4        4.02       700     1000      520     2100   
                                         GEOM     BASIS   MCVARS     RHF  

 PROGRAMS   *        TOTAL        HF       INT
 CPU TIMES  *       171.14     63.11    107.95
 REAL TIME  *       203.69 SEC
 DISK USED  *        21.32 GB      
 **********************************************************************************************************************************


 PROGRAM * CCSD (Closed-shell coupled cluster)     Authors: C. Hampel, H.-J. Werner, 1991, M. Deegan, P.J. Knowles, 1992


 Convergence thresholds:  THRVAR = 1.00D-08  THRDEN = 1.00D-12

 CCSD(T)     terms to be evaluated (factor= 1.000)


 Number of core orbitals:           2 (   2   0 )
 Number of closed-shell orbitals:   6 (   5   1 )
 Number of external orbitals:     326 ( 197 129 )

 Molecular orbitals read from record     2100.2  Type=RHF/CANONICAL (state 1.1)

 Number of N-1 electron functions:               6
 Number of N-2 electron functions:              21
 Number of singly external CSFs:              1114
 Number of doubly external CSFs:            975958
 Total number of CSFs:                      977073

 Length of J-op  integral file:               0.00 MB
 Length of K-op  integral file:               4.07 MB
 Length of 3-ext integral record:             0.00 MB

 Memory could be reduced to 151.33 Mwords without degradation in triples

 Integral transformation finished. Total CPU:  10.43 sec, npass=  1  Memory used:  41.21 MW

 Reference energy:                   -129.84735285

 MP2 singlet pair energy:              -0.31261365
 MP2 triplet pair energy:              -0.17298791
 MP2 correlation energy:               -0.48560156
 MP2 total energy:                   -130.33295442

 SCS-MP2 correlation energy:           -0.48277330   (PS=  1.200000  PT=  0.333333)
 SCS-MP2 total energy:               -130.33012616

 ITER.      SQ.NORM     CORR.ENERGY   TOTAL ENERGY   ENERGY CHANGE        DEN1      VAR(S)    VAR(P)  DIIS     TIME  TIME/IT
   1      1.12208526    -0.48201774  -130.32937059     0.00358382     0.02087580  0.33D-02  0.34D-02  1  1    19.22     9.58
   2      1.13307050    -0.48177628  -130.32912914     0.00024145    -0.01305279  0.11D-03  0.51D-03  2  2    28.16     9.90
   3      1.13948512    -0.48217800  -130.32953086    -0.00040172    -0.00308243  0.52D-04  0.60D-04  3  3    37.22    10.04
   4      1.14243761    -0.48217688  -130.32952973     0.00000113    -0.00101149  0.50D-05  0.11D-04  4  4    46.19    10.04
   5      1.14366272    -0.48220861  -130.32956146    -0.00003173    -0.00027079  0.12D-05  0.17D-05  5  5    54.65     9.91
   6      1.14404234    -0.48219555  -130.32954840     0.00001306    -0.00005428  0.13D-06  0.40D-06  6  6    62.80     9.81
   7      1.14411816    -0.48219529  -130.32954814     0.00000026     0.00000419  0.17D-07  0.94D-07  6  1    71.05     9.73
   8      1.14414391    -0.48219514  -130.32954799     0.00000015    -0.00000329  0.32D-08  0.20D-07  6  2    79.83     9.74
   9      1.14414894    -0.48219471  -130.32954757     0.00000043     0.00000140  0.25D-08  0.25D-08  6  4    88.69     9.76
  10      1.14415169    -0.48219504  -130.32954790    -0.00000033    -0.00000088  0.53D-09  0.31D-09  6  3    97.52     9.78
  11      1.14415155    -0.48219514  -130.32954799    -0.00000009    -0.00000013  0.17D-09  0.44D-10  6  5   106.38     9.79
  12      1.14415056    -0.48219528  -130.32954814    -0.00000015     0.00000040  0.22D-10  0.12D-10  6  6   115.27     9.80
  13      1.14414964    -0.48219533  -130.32954819    -0.00000005     0.00000022  0.61D-11  0.28D-11  6  1   124.21     9.82
  14      1.14414889    -0.48219537  -130.32954822    -0.00000004     0.00000018  0.37D-12  0.55D-12  6  4   132.93     9.82
  15      1.14414867    -0.48219538  -130.32954823    -0.00000001     0.00000004  0.86D-13  0.48D-13  6  2   141.25     9.78
  16      1.14414861    -0.48219538  -130.32954823    -0.00000000     0.00000001  0.24D-13  0.83D-14  6  3   149.51     9.75
  17      1.14414858    -0.48219538  -130.32954823    -0.00000000     0.00000001  0.48D-14  0.12D-14  6  5   157.92     9.72
  18      1.14414858    -0.48219538  -130.32954823    -0.00000000     0.00000000  0.10D-14  0.30D-15  6  6   166.34     9.71
  19      1.14414858    -0.48219538  -130.32954823    -0.00000000     0.00000000  0.14D-15  0.59D-16  6  1   174.58     9.68
  20      1.14414858    -0.48219538  -130.32954823     0.00000000    -0.00000000  0.15D-16  0.88D-17  6  4   182.85     9.66
  21      1.14414858    -0.48219538  -130.32954823     0.00000000    -0.00000000  0.12D-17  0.12D-17  6  3   191.02     9.64
  22      1.14414858    -0.48219538  -130.32954823     0.00000000    -0.00000000  0.37D-18  0.26D-18  6  2   199.28     9.63
  23      1.14414858    -0.48219538  -130.32954823     0.00000000    -0.00000000  0.96D-19  0.12D-18  6  5   207.41     9.61
  24      1.14414858    -0.48219538  -130.32954823     0.00000000     0.00000000  0.30D-19  0.55D-19  6  6   215.62     9.59
  25      1.14414858    -0.48219538  -130.32954823    -0.00000000     0.00000000  0.11D-19  0.29D-19  6  1   223.86     9.58

 Norm of t1 vector:      0.07848703      S-energy:     0.00000000      T1 diagnostic:  0.01602110
                                                                       D1 diagnostic:  0.04402703

 Doubles amplitudes (print threshold =  0.500E-01):

         I         J         SYM. A    SYM. B    A         B      T(IJ, AB)

         6         6         2         2         1         1     -0.08973942
         6         6         2         2         1         2      0.05254331
         6         6         2         2         2         1      0.05254331


 Total CPU time for triples:     85.14 sec


 RESULTS
 =======

  Reference energy                   -129.847352854262
  CCSD singlet pair energy             -0.334782977099
  CCSD triplet pair energy             -0.147412400962
  CCSD correlation energy              -0.482195378059

  Triples (T) contribution             -0.023369904165
  Total correlation energy             -0.505565282224

  CCSD total energy                  -130.329548232321
  CCSD[T] energy                     -130.354057731072
  CCSD-T energy                      -130.352524564102
 !CCSD(T) total energy               -130.352918136486

 Timing summary (sec):

 STEP                 CPU(USER)    SYS     CPU(TOT)    WALL
 Transformation         10.48      1.37     11.85     11.86
 CCSD iterations       213.39     26.12    239.51    239.55
 Triples                85.14      1.82     86.96     86.96

 Program statistics:

 Available memory in ccsd:               994999756
 Min. memory needed in ccsd:               3348832
 Max. memory used in ccsd:                 4143652
 Max. memory used in cckext:               8340089 (25 integral passes)



 **********************************************************************************************************************************
 DATASETS  * FILE   NREC   LENGTH (MB)   RECORD NAMES
              1      20     6809.41       500      610      700      900      950      970     1000      129      960     1100   
                                          VAR    BASINP    GEOM    SYMINP    ZMAT    AOBASIS   BASIS     P2S    ABASIS      S 
                                         1400     1410     1200     1210     1080     1600     1650     1300     1700     1380   
                                           T        V       H0       H01     AOSYM     SMH    MOLCAS    ERIS     OPER     JKOP   

              2       4        4.02       700     1000      520     2100   
                                         GEOM     BASIS   MCVARS     RHF  

 PROGRAMS   *        TOTAL   CCSD(T)        HF       INT
 CPU TIMES  *       480.18    309.04     63.11    107.95
 REAL TIME  *       542.11 SEC
 DISK USED  *        21.32 GB      
 **********************************************************************************************************************************

 CCSD(T)/aug-cc-pV5Z energy=   -130.352918136486

        CCSD(T)         HF-SCF  
   -130.35291814   -129.84735285
 **********************************************************************************************************************************
 Molpro calculation terminated
 Variable memory released
