
 Primary working directories    : /tmp/r2666/234686.maple
 Secondary working directories  : /tmp/r2666/234686.maple
 Wavefunction directory         : /ddn/home4/r2666/wfu/
 Main file repository           : /tmp/r2666/234686.maple/

 SHA1      : d5ffa45e93fdbca01ffc919aa182cfdae0147319
 NAME      : 2015.1.35
 ARCHNAME  : linux/x86_64
 FC        : /opt/intel/composer_xe_2015.1.133/bin/intel64/ifort
 BLASLIB   : -Wl,-_start-group /opt/intel/mkl/lib/intel64/libmkl_intel_ilp64.a /opt/intel/mkl/lib/intel64/libmkl_intel_thread.a /opt/intel/mkl/lib/intel64/libmkl_core.a -Wl,-_end-group
 id        : olemiss

 Nodes     nprocs
 cn089        1

 Using customized tuning parameters: mindgm=1; mindgv=20; mindgc=4; mindgr=1; noblas=0; minvec=7
 default implementation of scratch files=df  

 ***,hno CCSD(T)/TZ-F12 QFF
 memory, 995, m;
 gthresh,energy=1.d-12,zero=1.d-22,oneint=1.d-22,twoint=1.d-22;
 gthresh,optgrad=1.d-8,optstep=1.d-8;
 nocompress;
 geomtyp=xyz
 bohr
 geometry={
 3
         58        58
 N        0.0000000000       -0.1623772975       -1.1453007113
 H        0.0000000000        1.6660785145       -1.9257604237
 O        0.0000000000        0.0380665730        1.1204715440
 }
 
 basis=av5z
   {hf,maxit=500;accu,20;}
 {ccsd(t),nocheck,maxit=250;orbital,IGNORE_ERROR;}

 Variables initialized (889), CPU time= 0.01 sec
 Commands  initialized (702), CPU time= 0.01 sec, 572 directives.
 Default parameters read. Elapsed time= 0.05 sec

 Checking input...
 Passed
1


                                         ***  PROGRAM SYSTEM MOLPRO  ***
                                       Copyright, TTI GmbH Stuttgart, 2015
                                    Version 2015.1 linked Jul  9 2018 13:16:40


 **********************************************************************************************************************************
 LABEL *   hno CCSD(T)/TZ-F12 QFF                                                        
  64 bit serial version                                                                  DATE: 08-Feb-20          TIME: 17:25:40  
 **********************************************************************************************************************************

 SHA1:             d5ffa45e93fdbca01ffc919aa182cfdae0147319
 **********************************************************************************************************************************

 THRESHOLDS:

 ZERO    =  1.00D-22  ONEINT  =  1.00D-22  TWOINT  =  1.00D-22  PREFAC  =  1.00D-14  LOCALI  =  1.00D-09  EORDER  =  1.00D-04
 ENERGY  =  1.00D-12  ETEST   =  0.00D+00  EDENS   =  0.00D+00  THRDEDEF=  1.00D-06  GRADIENT=  1.00D-02  STEP    =  1.00D-03
 ORBITAL =  1.00D-05  CIVEC   =  1.00D-05  COEFF   =  1.00D-04  PRINTCI =  5.00D-02  PUNCHCI =  9.90D+01  OPTGRAD =  3.00D-04
 OPTENERG=  1.00D-06  OPTSTEP =  3.00D-04  THRGRAD =  1.00D-10  COMPRESS=  1.00D-11  VARMIN  =  1.00D-07  VARMAX  =  1.00D-03
 THRDOUB =  0.00D+00  THRDIV  =  1.00D-05  THRRED  =  1.00D-07  THRPSP  =  1.00D+00  THRDC   =  1.00D-10  THRCS   =  1.00D-10
 THRNRM  =  1.00D-08  THREQ   =  0.00D+00  THRDE   =  1.00D+00  THRREF  =  1.00D-05  SPARFAC =  1.00D+00  THRDLP  =  1.00D-07
 THRDIA  =  1.00D-10  THRDLS  =  1.00D-07  THRGPS  =  0.00D+00  THRKEX  =  0.00D+00  THRDIS  =  2.00D-01  THRVAR  =  1.00D-10
 THRLOC  =  1.00D-06  THRGAP  =  1.00D-06  THRLOCT = -1.00D+00  THRGAPT = -1.00D+00  THRORB  =  1.00D-06  THRMLTP =  0.00D+00
 THRCPQCI=  1.00D-10  KEXTA   =  0.00D+00  THRCOARS=  0.00D+00  SYMTOL  =  1.00D-06  GRADTOL =  1.00D-06  THROVL  =  1.00D-08
 THRORTH =  1.00D-08  GRID    =  1.00D-06  GRIDMAX =  1.00D-03  DTMAX   =  0.00D+00  THROCCDE=  1.00D-01  THROCCDE=  1.00D-01



 THRESHOLDS:

 ZERO    =  1.00D-22  ONEINT  =  1.00D-22  TWOINT  =  1.00D-22  PREFAC  =  1.00D-14  LOCALI  =  1.00D-09  EORDER  =  1.00D-04
 ENERGY  =  1.00D-12  ETEST   =  0.00D+00  EDENS   =  0.00D+00  THRDEDEF=  1.00D-06  GRADIENT=  1.00D-02  STEP    =  1.00D-03
 ORBITAL =  1.00D-05  CIVEC   =  1.00D-05  COEFF   =  1.00D-04  PRINTCI =  5.00D-02  PUNCHCI =  9.90D+01  OPTGRAD =  1.00D-08
 OPTENERG=  1.00D-06  OPTSTEP =  1.00D-08  THRGRAD =  1.00D-10  COMPRESS=  1.00D-11  VARMIN  =  1.00D-07  VARMAX  =  1.00D-03
 THRDOUB =  0.00D+00  THRDIV  =  1.00D-05  THRRED  =  1.00D-07  THRPSP  =  1.00D+00  THRDC   =  1.00D-10  THRCS   =  1.00D-10
 THRNRM  =  1.00D-08  THREQ   =  0.00D+00  THRDE   =  1.00D+00  THRREF  =  1.00D-05  SPARFAC =  1.00D+00  THRDLP  =  1.00D-07
 THRDIA  =  1.00D-10  THRDLS  =  1.00D-07  THRGPS  =  0.00D+00  THRKEX  =  0.00D+00  THRDIS  =  2.00D-01  THRVAR  =  1.00D-10
 THRLOC  =  1.00D-06  THRGAP  =  1.00D-06  THRLOCT = -1.00D+00  THRGAPT = -1.00D+00  THRORB  =  1.00D-06  THRMLTP =  0.00D+00
 THRCPQCI=  1.00D-10  KEXTA   =  0.00D+00  THRCOARS=  0.00D+00  SYMTOL  =  1.00D-06  GRADTOL =  1.00D-06  THROVL  =  1.00D-08
 THRORTH =  1.00D-08  GRID    =  1.00D-06  GRIDMAX =  1.00D-03  DTMAX   =  0.00D+00  THROCCDE=  1.00D-01  THROCCDE=  1.00D-01



 Input parameters for SORTINT:

 COMPRESS =    0.000000
 C_FINAL  =    1.000000
 DEBUG    =   -1.000000
 C_SORT1  =    0.000000
 C_SEWARD =    0.000000
 THRESH   =    0.000000
 IO       =  molpro                                                          
 SPRI     =    0.000000
 SETTING GEOMTYP        =    XYZ
 ZUNIT=BOHR
 

 Variable memory set to  995000000 words,  buffer space   230000 words

 SETTING BASIS          =    AV5Z


 Recomputing integrals since basis changed


 Using spherical harmonics

 Library entry N      S aug-cc-pV5Z          selected for orbital group  1
 Library entry N      P aug-cc-pV5Z          selected for orbital group  1
 Library entry N      D aug-cc-pV5Z          selected for orbital group  1
 Library entry N      F aug-cc-pV5Z          selected for orbital group  1
 Library entry N      G aug-cc-pV5Z          selected for orbital group  1
 Library entry N      H aug-cc-pV5Z          selected for orbital group  1
 Library entry H      S aug-cc-pV5Z          selected for orbital group  2
 Library entry H      P aug-cc-pV5Z          selected for orbital group  2
 Library entry H      D aug-cc-pV5Z          selected for orbital group  2
 Library entry H      F aug-cc-pV5Z          selected for orbital group  2
 Library entry H      G aug-cc-pV5Z          selected for orbital group  2
 Library entry O      S aug-cc-pV5Z          selected for orbital group  3
 Library entry O      P aug-cc-pV5Z          selected for orbital group  3
 Library entry O      D aug-cc-pV5Z          selected for orbital group  3
 Library entry O      F aug-cc-pV5Z          selected for orbital group  3
 Library entry O      G aug-cc-pV5Z          selected for orbital group  3
 Library entry O      H aug-cc-pV5Z          selected for orbital group  3


 PROGRAM * SEWARD (Integral evaluation for generally contracted gaussian basis sets)     Author: Roland Lindh, 1990

 Geometry written to block  1 of record 700


 Point group  Cs  



 ATOMIC COORDINATES

 NR  ATOM    CHARGE       X              Y              Z

   1  N       7.00    0.000000000   -0.162377297   -1.145300711
   2  H       1.00    0.000000000    1.666078515   -1.925760424
   3  O       8.00    0.000000000    0.038066573    1.120471544

 Bond lengths in Bohr (Angstrom)

 1-2  1.988056342  1-3  2.274621212
     ( 1.052034110)     ( 1.203677709)

 Bond angles

  2-1-3  108.05920269

 NUCLEAR CHARGE:                   16
 NUMBER OF PRIMITIVE AOS:         506
 NUMBER OF SYMMETRY AOS:          371
 NUMBER OF CONTRACTIONS:          334   ( 204A'  + 130A"  )
 NUMBER OF CORE ORBITALS:           2   (   2A'  +   0A"  )
 NUMBER OF VALENCE ORBITALS:        9   (   7A'  +   2A"  )


 NUCLEAR REPULSION ENERGY   30.45668183


 Eigenvalues of metric

         1 0.112E-04 0.170E-04 0.634E-04 0.987E-04 0.104E-03 0.135E-03 0.199E-03 0.223E-03
         2 0.126E-03 0.363E-03 0.111E-02 0.155E-02 0.192E-02 0.249E-02 0.325E-02 0.389E-02


 Contracted 2-electron integrals neglected if value below      1.0D-22

      756977550. INTEGRALS WRITTEN OUT IN  184855 BLOCKS ON RECORD 1290 OF FILE 1


 NUMBER OF SORTED TWO-ELECTRON INTEGRALS:  789027325.     BUFFER LENGTH:  32768
 NUMBER OF SEGMENTS:  25  SEGMENT LENGTH:   31997130      RECORD LENGTH: 524288

 Memory used in sort:      32.55 MW

 SORT1 READ   756977550. AND WROTE   760993439. INTEGRALS IN   2189 RECORDS. CPU TIME:    28.01 SEC, REAL TIME:   101.36 SEC
 SORT2 READ   760993439. AND WROTE   789027325. INTEGRALS IN     25 RECORDS. CPU TIME:    10.48 SEC, REAL TIME:    39.02 SEC

 FILE SIZES:   FILE 1: 12137.5 MBYTE,  FILE 4:  9181.4 MBYTE,   TOTAL:  21318.9 MBYTE

 OPERATOR DM      FOR CENTER  0  COORDINATES:    0.000000    0.000000    0.000000


 **********************************************************************************************************************************
 DATASETS  * FILE   NREC   LENGTH (MB)   RECORD NAMES
              1      19     6374.22       500      610      700      900      950      970     1000      129      960     1100   
                                          VAR    BASINP    GEOM    SYMINP    ZMAT    AOBASIS   BASIS     P2S    ABASIS      S 
                                         1400     1410     1200     1210     1080     1600     1650     1300     1700   
                                           T        V       H0       H01     AOSYM     SMH    MOLCAS    ERIS     OPER   

 PROGRAMS   *        TOTAL       INT
 CPU TIMES  *       129.85    129.74
 REAL TIME  *       238.71 SEC
 DISK USED  *        21.32 GB      
 **********************************************************************************************************************************


 PROGRAM * RHF-SCF (CLOSED SHELL)       Authors: W. Meyer, H.-J. Werner


 NUMBER OF ELECTRONS:       8+    8-
 CONVERGENCE THRESHOLDS:    1.00E-10 (Density)    1.00E-13 (Energy)
 MAX. NUMBER OF ITERATIONS:      500
 INTERPOLATION TYPE:            DIIS
 INTERPOLATION STEPS:              2 (START)      1 (STEP)
 LEVEL SHIFTS:                  0.00 (CLOSED)  0.00 (OPEN) 



 Orbital guess generated from atomic densities. Full valence occupancy:    9   2

 Molecular orbital dump at record        2100.2

 Initial occupancy:   7   1

 ITERATION    DDIFF          GRAD             ENERGY        2-EL.EN.            DIPOLE MOMENTS         DIIS   ORB.
    1      0.000D+00      0.000D+00      -129.79970642    154.136870    0.00000    0.59230   -1.01499    0    start
    2      0.000D+00      0.638D-02      -129.82706281    155.364869    0.00000    0.60789   -0.20895    1    diag
    3      0.397D-02      0.482D-02      -129.84937673    155.482782    0.00000    0.55409   -0.58748    2    diag
    4      0.205D-02      0.764D-03      -129.85017288    155.201431    0.00000    0.56163   -0.52660    3    diag
    5      0.376D-03      0.248D-03      -129.85029736    155.294737    0.00000    0.56686   -0.52915    4    diag
    6      0.155D-03      0.718D-04      -129.85031726    155.278470    0.00000    0.56715   -0.52501    5    diag
    7      0.596D-04      0.356D-04      -129.85032301    155.281301    0.00000    0.56839   -0.52244    6    diag
    8      0.408D-04      0.124D-04      -129.85032364    155.280607    0.00000    0.56843   -0.52144    7    diag
    9      0.154D-04      0.238D-05      -129.85032367    155.280499    0.00000    0.56840   -0.52122    8    diag
   10      0.308D-05      0.541D-06      -129.85032367    155.280481    0.00000    0.56836   -0.52119    9    orth
   11      0.612D-06      0.109D-06      -129.85032367    155.280477    0.00000    0.56836   -0.52119    9    diag
   12      0.116D-06      0.221D-07      -129.85032367    155.280477    0.00000    0.56835   -0.52119    9    diag
   13      0.251D-07      0.576D-08      -129.85032367    155.280477    0.00000    0.56835   -0.52119    9    diag
   14      0.672D-08      0.112D-08      -129.85032367    155.280477    0.00000    0.56835   -0.52119    9    diag
   15      0.124D-08      0.324D-09      -129.85032367    155.280477    0.00000    0.56835   -0.52119    9    diag
   16      0.367D-09      0.987D-10      -129.85032367    155.280477    0.00000    0.56835   -0.52119    9    diag
   17      0.754D-10      0.265D-10      -129.85032367    155.280477    0.00000    0.56835   -0.52119    9    diag
   18      0.311D-10      0.909D-11      -129.85032367    155.280477    0.00000    0.56835   -0.52119    9    diag
   19      0.192D-10      0.230D-11      -129.85032367    155.280477    0.00000    0.56835   -0.52119    9    fixocc
   20      0.171D-10      0.617D-12      -129.85032367    155.280477    0.00000    0.56835   -0.52119    9    orth
   21      0.958D-11      0.413D-12      -129.85032367    155.280477    0.00000    0.56835   -0.52119    9    diag
   22      0.767D-11      0.350D-12      -129.85032367    155.280477    0.00000    0.56835   -0.52119    0    orth

 Final occupancy:   7   1

 !RHF STATE 1.1 Energy               -129.850323672033
 Nuclear energy                        30.45668183
 One-electron energy                 -237.94724405
 Two-electron energy                   77.64023854
 Virial quotient                       -1.00156836
 !RHF STATE 1.1 Dipole moment           0.00000000     0.56835455    -0.52118912
 Dipole moment /Debye                   0.00000000     1.44451856    -1.32464386

 Orbital energies:

         1.1          2.1          3.1          4.1          5.1          6.1          7.1          8.1          9.1
    -20.652491   -15.711456    -1.532889    -0.993293    -0.748504    -0.667309    -0.429332     0.022911     0.065554

         1.2          2.2          3.2
     -0.598108     0.061064     0.092010

 HOMO      7.1    -0.429332 =     -11.6827eV
 LUMO      8.1     0.022911 =       0.6234eV
 LUMO-HOMO         0.452243 =      12.3062eV


 **********************************************************************************************************************************
 DATASETS  * FILE   NREC   LENGTH (MB)   RECORD NAMES
              1      19     6374.22       500      610      700      900      950      970     1000      129      960     1100   
                                          VAR    BASINP    GEOM    SYMINP    ZMAT    AOBASIS   BASIS     P2S    ABASIS      S 
                                         1400     1410     1200     1210     1080     1600     1650     1300     1700   
                                           T        V       H0       H01     AOSYM     SMH    MOLCAS    ERIS     OPER   

              2       4        4.02       700     1000      520     2100   
                                         GEOM     BASIS   MCVARS     RHF  

 PROGRAMS   *        TOTAL        HF       INT
 CPU TIMES  *       203.29     73.44    129.74
 REAL TIME  *       335.86 SEC
 DISK USED  *        21.32 GB      
 **********************************************************************************************************************************


 PROGRAM * CCSD (Closed-shell coupled cluster)     Authors: C. Hampel, H.-J. Werner, 1991, M. Deegan, P.J. Knowles, 1992


 Convergence thresholds:  THRVAR = 1.00D-08  THRDEN = 1.00D-12

 CCSD(T)     terms to be evaluated (factor= 1.000)


 Number of core orbitals:           2 (   2   0 )
 Number of closed-shell orbitals:   6 (   5   1 )
 Number of external orbitals:     326 ( 197 129 )

 Molecular orbitals read from record     2100.2  Type=RHF/CANONICAL (state 1.1)

 Number of N-1 electron functions:               6
 Number of N-2 electron functions:              21
 Number of singly external CSFs:              1114
 Number of doubly external CSFs:            975958
 Total number of CSFs:                      977073

 Length of J-op  integral file:               0.00 MB
 Length of K-op  integral file:               4.07 MB
 Length of 3-ext integral record:             0.00 MB

 Memory could be reduced to 151.33 Mwords without degradation in triples

 Integral transformation finished. Total CPU:  10.48 sec, npass=  1  Memory used:  41.21 MW

 Reference energy:                   -129.85032367

 MP2 singlet pair energy:              -0.31073774
 MP2 triplet pair energy:              -0.17172131
 MP2 correlation energy:               -0.48245906
 MP2 total energy:                   -130.33278273

 SCS-MP2 correlation energy:           -0.47973411   (PS=  1.200000  PT=  0.333333)
 SCS-MP2 total energy:               -130.33005778

 ITER.      SQ.NORM     CORR.ENERGY   TOTAL ENERGY   ENERGY CHANGE        DEN1      VAR(S)    VAR(P)  DIIS     TIME  TIME/IT
   1      1.12012383    -0.47962791  -130.32995158     0.00283115     0.01930505  0.31D-02  0.32D-02  1  1    19.32     9.68
   2      1.13064179    -0.47955049  -130.32987417     0.00007741    -0.01256273  0.10D-03  0.48D-03  2  2    28.20     9.83
   3      1.13670844    -0.47992492  -130.33024859    -0.00037442    -0.00297662  0.47D-04  0.55D-04  3  3    37.20     9.89
   4      1.13944612    -0.47992305  -130.33024672     0.00000187    -0.00095480  0.44D-05  0.98D-05  4  4    46.01     9.92
   5      1.14054417    -0.47995137  -130.33027504    -0.00002832    -0.00024417  0.11D-05  0.17D-05  5  5    54.85     9.94
   6      1.14089159    -0.47994021  -130.33026388     0.00001116    -0.00004904  0.12D-06  0.40D-06  6  6    63.70     9.96
   7      1.14096674    -0.47993982  -130.33026349     0.00000040     0.00000316  0.17D-07  0.91D-07  6  1    72.64     9.97
   8      1.14099164    -0.47993988  -130.33026356    -0.00000007    -0.00000297  0.35D-08  0.18D-07  6  2    81.50     9.98
   9      1.14100007    -0.47993934  -130.33026302     0.00000054    -0.00000021  0.22D-08  0.19D-08  6  3    90.35     9.98
  10      1.14099561    -0.47994006  -130.33026374    -0.00000072     0.00000154  0.34D-09  0.31D-09  6  5    99.17     9.98
  11      1.14099746    -0.47994005  -130.33026372     0.00000001    -0.00000033  0.95D-10  0.26D-10  6  4   108.16     9.98
  12      1.14099703    -0.47994012  -130.33026379    -0.00000007     0.00000005  0.18D-10  0.60D-11  6  6   117.00     9.99
  13      1.14099682    -0.47994012  -130.33026379    -0.00000000    -0.00000003  0.30D-11  0.89D-12  6  1   126.01     9.99
  14      1.14099656    -0.47994013  -130.33026380    -0.00000001     0.00000004  0.45D-12  0.16D-12  6  3   134.81     9.99
  15      1.14099648    -0.47994014  -130.33026381    -0.00000000     0.00000001  0.12D-12  0.22D-13  6  2   143.53     9.99
  16      1.14099647    -0.47994013  -130.33026381     0.00000000     0.00000000  0.31D-13  0.87D-14  6  4   152.40    10.00
  17      1.14099647    -0.47994014  -130.33026381    -0.00000000    -0.00000000  0.18D-14  0.11D-14  6  5   161.34    10.00
  18      1.14099648    -0.47994013  -130.33026381     0.00000000    -0.00000000  0.27D-15  0.29D-15  6  6   170.16    10.00
  19      1.14099648    -0.47994013  -130.33026381     0.00000000    -0.00000000  0.52D-16  0.40D-16  6  1   178.91    10.00
  20      1.14099648    -0.47994013  -130.33026381     0.00000000    -0.00000000  0.11D-16  0.59D-17  6  3   187.89    10.00
  21      1.14099648    -0.47994013  -130.33026381    -0.00000000     0.00000000  0.21D-17  0.10D-17  6  2   196.67    10.00
  22      1.14099648    -0.47994013  -130.33026381    -0.00000000     0.00000000  0.41D-18  0.17D-18  6  4   205.61    10.00
  23      1.14099648    -0.47994013  -130.33026381    -0.00000000     0.00000000  0.84D-19  0.43D-19  6  5   214.47    10.00
  24      1.14099648    -0.47994013  -130.33026381    -0.00000000     0.00000000  0.35D-19  0.21D-19  6  6   223.23    10.00
  25      1.14099648    -0.47994013  -130.33026381     0.00000000    -0.00000000  0.20D-19  0.11D-19  6  1   232.14    10.00

 Norm of t1 vector:      0.07550413      S-energy:    -0.00000000      T1 diagnostic:  0.01541222
                                                                       D1 diagnostic:  0.04162549

 Doubles amplitudes (print threshold =  0.500E-01):

         I         J         SYM. A    SYM. B    A         B      T(IJ, AB)

         6         6         2         2         1         1     -0.07594918
         6         6         2         2         1         2      0.05298122
         6         6         2         2         2         1      0.05298122


 Total CPU time for triples:     89.54 sec


 RESULTS
 =======

  Reference energy                   -129.850323672033
  CCSD singlet pair energy             -0.332830714286
  CCSD triplet pair energy             -0.147109420045
  CCSD correlation energy              -0.479940134334

  Triples (T) contribution             -0.022779193459
  Total correlation energy             -0.502719327793

  CCSD total energy                  -130.330263806367
  CCSD[T] energy                     -130.354101991395
  CCSD-T energy                      -130.352668375890
 !CCSD(T) total energy               -130.353042999827

 Timing summary (sec):

 STEP                 CPU(USER)    SYS     CPU(TOT)    WALL
 Transformation         10.54      1.64     12.18     12.18
 CCSD iterations       221.61     28.33    249.94    249.97
 Triples                89.54      1.75     91.29     91.29

 Program statistics:

 Available memory in ccsd:               994999756
 Min. memory needed in ccsd:               3348832
 Max. memory used in ccsd:                 4143652
 Max. memory used in cckext:               8340089 (25 integral passes)



 **********************************************************************************************************************************
 DATASETS  * FILE   NREC   LENGTH (MB)   RECORD NAMES
              1      20     6809.41       500      610      700      900      950      970     1000      129      960     1100   
                                          VAR    BASINP    GEOM    SYMINP    ZMAT    AOBASIS   BASIS     P2S    ABASIS      S 
                                         1400     1410     1200     1210     1080     1600     1650     1300     1700     1380   
                                           T        V       H0       H01     AOSYM     SMH    MOLCAS    ERIS     OPER     JKOP   

              2       4        4.02       700     1000      520     2100   
                                         GEOM     BASIS   MCVARS     RHF  

 PROGRAMS   *        TOTAL   CCSD(T)        HF       INT
 CPU TIMES  *       525.00    321.71     73.44    129.74
 REAL TIME  *       689.34 SEC
 DISK USED  *        21.32 GB      
 **********************************************************************************************************************************

 CCSD(T)/aug-cc-pV5Z energy=   -130.353042999827

        CCSD(T)         HF-SCF  
   -130.35304300   -129.85032367
 **********************************************************************************************************************************
 Molpro calculation terminated
 Variable memory released
