
 Primary working directories    : /tmp/r2666/234637.maple
 Secondary working directories  : /tmp/r2666/234637.maple
 Wavefunction directory         : /ddn/home4/r2666/wfu/
 Main file repository           : /tmp/r2666/234637.maple/

 SHA1      : d5ffa45e93fdbca01ffc919aa182cfdae0147319
 NAME      : 2015.1.35
 ARCHNAME  : linux/x86_64
 FC        : /opt/intel/composer_xe_2015.1.133/bin/intel64/ifort
 BLASLIB   : -Wl,-_start-group /opt/intel/mkl/lib/intel64/libmkl_intel_ilp64.a /opt/intel/mkl/lib/intel64/libmkl_intel_thread.a /opt/intel/mkl/lib/intel64/libmkl_core.a -Wl,-_end-group
 id        : olemiss

 Nodes     nprocs
 cn096        1

 Using customized tuning parameters: mindgm=1; mindgv=20; mindgc=4; mindgr=1; noblas=0; minvec=7
 default implementation of scratch files=df  

 ***,hno CCSD(T)/TZ-F12 QFF
 memory, 995, m;
 gthresh,energy=1.d-12,zero=1.d-22,oneint=1.d-22,twoint=1.d-22;
 gthresh,optgrad=1.d-8,optstep=1.d-8;
 nocompress;
 geomtyp=xyz
 bohr
 geometry={
 3
          9         9
 N        0.0000000000       -0.1488652136       -1.1433212954
 H        0.0000000000        1.6572646761       -1.9278481036
 O        0.0000000000        0.0333683275        1.1205798080
 }
 
 basis=av5z
   {hf,maxit=500;accu,20;}
 {ccsd(t),nocheck,maxit=250;orbital,IGNORE_ERROR;}

 Variables initialized (889), CPU time= 0.01 sec
 Commands  initialized (702), CPU time= 0.01 sec, 572 directives.
 Default parameters read. Elapsed time= 0.06 sec

 Checking input...
 Passed
1


                                         ***  PROGRAM SYSTEM MOLPRO  ***
                                       Copyright, TTI GmbH Stuttgart, 2015
                                    Version 2015.1 linked Jul  9 2018 13:16:40


 **********************************************************************************************************************************
 LABEL *   hno CCSD(T)/TZ-F12 QFF                                                        
  64 bit serial version                                                                  DATE: 08-Feb-20          TIME: 17:24:40  
 **********************************************************************************************************************************

 SHA1:             d5ffa45e93fdbca01ffc919aa182cfdae0147319
 **********************************************************************************************************************************

 THRESHOLDS:

 ZERO    =  1.00D-22  ONEINT  =  1.00D-22  TWOINT  =  1.00D-22  PREFAC  =  1.00D-14  LOCALI  =  1.00D-09  EORDER  =  1.00D-04
 ENERGY  =  1.00D-12  ETEST   =  0.00D+00  EDENS   =  0.00D+00  THRDEDEF=  1.00D-06  GRADIENT=  1.00D-02  STEP    =  1.00D-03
 ORBITAL =  1.00D-05  CIVEC   =  1.00D-05  COEFF   =  1.00D-04  PRINTCI =  5.00D-02  PUNCHCI =  9.90D+01  OPTGRAD =  3.00D-04
 OPTENERG=  1.00D-06  OPTSTEP =  3.00D-04  THRGRAD =  1.00D-10  COMPRESS=  1.00D-11  VARMIN  =  1.00D-07  VARMAX  =  1.00D-03
 THRDOUB =  0.00D+00  THRDIV  =  1.00D-05  THRRED  =  1.00D-07  THRPSP  =  1.00D+00  THRDC   =  1.00D-10  THRCS   =  1.00D-10
 THRNRM  =  1.00D-08  THREQ   =  0.00D+00  THRDE   =  1.00D+00  THRREF  =  1.00D-05  SPARFAC =  1.00D+00  THRDLP  =  1.00D-07
 THRDIA  =  1.00D-10  THRDLS  =  1.00D-07  THRGPS  =  0.00D+00  THRKEX  =  0.00D+00  THRDIS  =  2.00D-01  THRVAR  =  1.00D-10
 THRLOC  =  1.00D-06  THRGAP  =  1.00D-06  THRLOCT = -1.00D+00  THRGAPT = -1.00D+00  THRORB  =  1.00D-06  THRMLTP =  0.00D+00
 THRCPQCI=  1.00D-10  KEXTA   =  0.00D+00  THRCOARS=  0.00D+00  SYMTOL  =  1.00D-06  GRADTOL =  1.00D-06  THROVL  =  1.00D-08
 THRORTH =  1.00D-08  GRID    =  1.00D-06  GRIDMAX =  1.00D-03  DTMAX   =  0.00D+00  THROCCDE=  1.00D-01  THROCCDE=  1.00D-01



 THRESHOLDS:

 ZERO    =  1.00D-22  ONEINT  =  1.00D-22  TWOINT  =  1.00D-22  PREFAC  =  1.00D-14  LOCALI  =  1.00D-09  EORDER  =  1.00D-04
 ENERGY  =  1.00D-12  ETEST   =  0.00D+00  EDENS   =  0.00D+00  THRDEDEF=  1.00D-06  GRADIENT=  1.00D-02  STEP    =  1.00D-03
 ORBITAL =  1.00D-05  CIVEC   =  1.00D-05  COEFF   =  1.00D-04  PRINTCI =  5.00D-02  PUNCHCI =  9.90D+01  OPTGRAD =  1.00D-08
 OPTENERG=  1.00D-06  OPTSTEP =  1.00D-08  THRGRAD =  1.00D-10  COMPRESS=  1.00D-11  VARMIN  =  1.00D-07  VARMAX  =  1.00D-03
 THRDOUB =  0.00D+00  THRDIV  =  1.00D-05  THRRED  =  1.00D-07  THRPSP  =  1.00D+00  THRDC   =  1.00D-10  THRCS   =  1.00D-10
 THRNRM  =  1.00D-08  THREQ   =  0.00D+00  THRDE   =  1.00D+00  THRREF  =  1.00D-05  SPARFAC =  1.00D+00  THRDLP  =  1.00D-07
 THRDIA  =  1.00D-10  THRDLS  =  1.00D-07  THRGPS  =  0.00D+00  THRKEX  =  0.00D+00  THRDIS  =  2.00D-01  THRVAR  =  1.00D-10
 THRLOC  =  1.00D-06  THRGAP  =  1.00D-06  THRLOCT = -1.00D+00  THRGAPT = -1.00D+00  THRORB  =  1.00D-06  THRMLTP =  0.00D+00
 THRCPQCI=  1.00D-10  KEXTA   =  0.00D+00  THRCOARS=  0.00D+00  SYMTOL  =  1.00D-06  GRADTOL =  1.00D-06  THROVL  =  1.00D-08
 THRORTH =  1.00D-08  GRID    =  1.00D-06  GRIDMAX =  1.00D-03  DTMAX   =  0.00D+00  THROCCDE=  1.00D-01  THROCCDE=  1.00D-01



 Input parameters for SORTINT:

 COMPRESS =    0.000000
 C_FINAL  =    1.000000
 DEBUG    =   -1.000000
 C_SORT1  =    0.000000
 C_SEWARD =    0.000000
 THRESH   =    0.000000
 IO       =  molpro                                                          
 SPRI     =    0.000000
 SETTING GEOMTYP        =    XYZ
 ZUNIT=BOHR
 

 Variable memory set to  995000000 words,  buffer space   230000 words

 SETTING BASIS          =    AV5Z


 Recomputing integrals since basis changed


 Using spherical harmonics

 Library entry N      S aug-cc-pV5Z          selected for orbital group  1
 Library entry N      P aug-cc-pV5Z          selected for orbital group  1
 Library entry N      D aug-cc-pV5Z          selected for orbital group  1
 Library entry N      F aug-cc-pV5Z          selected for orbital group  1
 Library entry N      G aug-cc-pV5Z          selected for orbital group  1
 Library entry N      H aug-cc-pV5Z          selected for orbital group  1
 Library entry H      S aug-cc-pV5Z          selected for orbital group  2
 Library entry H      P aug-cc-pV5Z          selected for orbital group  2
 Library entry H      D aug-cc-pV5Z          selected for orbital group  2
 Library entry H      F aug-cc-pV5Z          selected for orbital group  2
 Library entry H      G aug-cc-pV5Z          selected for orbital group  2
 Library entry O      S aug-cc-pV5Z          selected for orbital group  3
 Library entry O      P aug-cc-pV5Z          selected for orbital group  3
 Library entry O      D aug-cc-pV5Z          selected for orbital group  3
 Library entry O      F aug-cc-pV5Z          selected for orbital group  3
 Library entry O      G aug-cc-pV5Z          selected for orbital group  3
 Library entry O      H aug-cc-pV5Z          selected for orbital group  3


 PROGRAM * SEWARD (Integral evaluation for generally contracted gaussian basis sets)     Author: Roland Lindh, 1990

 Geometry written to block  1 of record 700


 Point group  Cs  



 ATOMIC COORDINATES

 NR  ATOM    CHARGE       X              Y              Z

   1  N       7.00    0.000000000   -0.148865214   -1.143321295
   2  H       1.00    0.000000000    1.657264676   -1.927848104
   3  O       8.00    0.000000000    0.033368328    1.120579808

 Bond lengths in Bohr (Angstrom)

 1-2  1.969159082  1-3  2.271223738
     ( 1.042034111)     ( 1.201879843)

 Bond angles

  2-1-3  108.87650965

 NUCLEAR CHARGE:                   16
 NUMBER OF PRIMITIVE AOS:         506
 NUMBER OF SYMMETRY AOS:          371
 NUMBER OF CONTRACTIONS:          334   ( 204A'  + 130A"  )
 NUMBER OF CORE ORBITALS:           2   (   2A'  +   0A"  )
 NUMBER OF VALENCE ORBITALS:        9   (   7A'  +   2A"  )


 NUCLEAR REPULSION ENERGY   30.52729951


 Eigenvalues of metric

         1 0.109E-04 0.166E-04 0.618E-04 0.972E-04 0.103E-03 0.132E-03 0.195E-03 0.223E-03
         2 0.125E-03 0.349E-03 0.109E-02 0.153E-02 0.184E-02 0.245E-02 0.315E-02 0.379E-02


 Contracted 2-electron integrals neglected if value below      1.0D-22

      756977121. INTEGRALS WRITTEN OUT IN  184854 BLOCKS ON RECORD 1290 OF FILE 1


 NUMBER OF SORTED TWO-ELECTRON INTEGRALS:  789027325.     BUFFER LENGTH:  32768
 NUMBER OF SEGMENTS:  25  SEGMENT LENGTH:   31997130      RECORD LENGTH: 524288

 Memory used in sort:      32.55 MW

 SORT1 READ   756977121. AND WROTE   760993010. INTEGRALS IN   2189 RECORDS. CPU TIME:    40.01 SEC, REAL TIME:   291.46 SEC
 SORT2 READ   760993010. AND WROTE   789027325. INTEGRALS IN     25 RECORDS. CPU TIME:    14.29 SEC, REAL TIME:   141.50 SEC

 FILE SIZES:   FILE 1: 12137.4 MBYTE,  FILE 4:  9181.4 MBYTE,   TOTAL:  21318.8 MBYTE

 OPERATOR DM      FOR CENTER  0  COORDINATES:    0.000000    0.000000    0.000000


 **********************************************************************************************************************************
 DATASETS  * FILE   NREC   LENGTH (MB)   RECORD NAMES
              1      19     6374.22       500      610      700      900      950      970     1000      129      960     1100   
                                          VAR    BASINP    GEOM    SYMINP    ZMAT    AOBASIS   BASIS     P2S    ABASIS      S 
                                         1400     1410     1200     1210     1080     1600     1650     1300     1700   
                                           T        V       H0       H01     AOSYM     SMH    MOLCAS    ERIS     OPER   

 PROGRAMS   *        TOTAL       INT
 CPU TIMES  *       168.08    167.98
 REAL TIME  *       644.13 SEC
 DISK USED  *        21.32 GB      
 **********************************************************************************************************************************


 PROGRAM * RHF-SCF (CLOSED SHELL)       Authors: W. Meyer, H.-J. Werner


 NUMBER OF ELECTRONS:       8+    8-
 CONVERGENCE THRESHOLDS:    1.00E-10 (Density)    1.00E-13 (Energy)
 MAX. NUMBER OF ITERATIONS:      500
 INTERPOLATION TYPE:            DIIS
 INTERPOLATION STEPS:              2 (START)      1 (STEP)
 LEVEL SHIFTS:                  0.00 (CLOSED)  0.00 (OPEN) 



 Orbital guess generated from atomic densities. Full valence occupancy:    9   2

 Molecular orbital dump at record        2100.2

 Initial occupancy:   7   1

 ITERATION    DDIFF          GRAD             ENERGY        2-EL.EN.            DIPOLE MOMENTS         DIIS   ORB.
    1      0.000D+00      0.000D+00      -129.80100514    154.267199    0.00000    0.60478   -1.00972    0    start
    2      0.000D+00      0.634D-02      -129.82839633    155.490631    0.00000    0.60722   -0.21723    1    diag
    3      0.393D-02      0.474D-02      -129.84991078    155.606333    0.00000    0.55985   -0.58909    2    diag
    4      0.202D-02      0.765D-03      -129.85070312    155.327438    0.00000    0.56708   -0.52828    3    diag
    5      0.376D-03      0.246D-03      -129.85082476    155.420004    0.00000    0.57225   -0.53088    4    diag
    6      0.153D-03      0.707D-04      -129.85084403    155.403915    0.00000    0.57256   -0.52681    5    diag
    7      0.586D-04      0.351D-04      -129.85084958    155.406705    0.00000    0.57378   -0.52427    6    diag
    8      0.401D-04      0.121D-04      -129.85085019    155.406030    0.00000    0.57383   -0.52330    7    diag
    9      0.150D-04      0.232D-05      -129.85085021    155.405926    0.00000    0.57379   -0.52308    8    diag
   10      0.299D-05      0.532D-06      -129.85085021    155.405909    0.00000    0.57376   -0.52306    9    orth
   11      0.603D-06      0.107D-06      -129.85085021    155.405906    0.00000    0.57375   -0.52305    9    diag
   12      0.114D-06      0.215D-07      -129.85085021    155.405906    0.00000    0.57375   -0.52305    9    diag
   13      0.243D-07      0.556D-08      -129.85085021    155.405905    0.00000    0.57375   -0.52305    9    diag
   14      0.642D-08      0.108D-08      -129.85085021    155.405905    0.00000    0.57375   -0.52305    9    diag
   15      0.119D-08      0.311D-09      -129.85085021    155.405905    0.00000    0.57375   -0.52305    9    diag
   16      0.353D-09      0.951D-10      -129.85085021    155.405905    0.00000    0.57375   -0.52305    9    diag
   17      0.759D-10      0.249D-10      -129.85085021    155.405905    0.00000    0.57375   -0.52305    9    diag
   18      0.289D-10      0.846D-11      -129.85085021    155.405905    0.00000    0.57375   -0.52305    9    diag
   19      0.159D-10      0.213D-11      -129.85085021    155.405905    0.00000    0.57375   -0.52305    9    fixocc
   20      0.168D-10      0.568D-12      -129.85085021    155.405905    0.00000    0.57375   -0.52305    9    orth
   21      0.140D-10      0.461D-12      -129.85085021    155.405905    0.00000    0.57375   -0.52305    9    diag
   22      0.775D-11      0.285D-12      -129.85085021    155.405905    0.00000    0.57375   -0.52305    9    diag
   23      0.486D-11      0.334D-12      -129.85085021    155.405905    0.00000    0.57375   -0.52305    9    diag
   24      0.307D-11      0.244D-12      -129.85085021    155.405905    0.00000    0.57375   -0.52305    9    diag
   25      0.201D-11      0.428D-12      -129.85085021    155.405905    0.00000    0.57375   -0.52305    9    diag
   26      0.242D-11      0.238D-12      -129.85085021    155.405905    0.00000    0.57375   -0.52305    9    diag
   27      0.111D-11      0.268D-12      -129.85085021    155.405905    0.00000    0.57375   -0.52305    9    diag
   28      0.140D-11      0.240D-12      -129.85085021    155.405905    0.00000    0.57375   -0.52305    9    diag
   29      0.948D-12      0.248D-12      -129.85085021    155.405905    0.00000    0.57375   -0.52305    9    diag
   30      0.902D-12      0.274D-12      -129.85085021    155.405905    0.00000    0.57375   -0.52305    9    orth
   31      0.146D-11      0.293D-12      -129.85085021    155.405905    0.00000    0.57375   -0.52305    9    diag
   32      0.113D-11      0.182D-12      -129.85085021    155.405905    0.00000    0.57375   -0.52305    9    diag
   33      0.184D-11      0.236D-12      -129.85085021    155.405905    0.00000    0.57375   -0.52305    9    diag
   34      0.687D-12      0.255D-12      -129.85085021    155.405905    0.00000    0.57375   -0.52305    0    orth

 Final occupancy:   7   1

 !RHF STATE 1.1 Energy               -129.850850214050
 Nuclear energy                        30.52729951
 One-electron energy                 -238.08110243
 Two-electron energy                   77.70295270
 Virial quotient                       -1.00141547
 !RHF STATE 1.1 Dipole moment           0.00000000     0.57375083    -0.52305201
 Dipole moment /Debye                   0.00000000     1.45823364    -1.32937853

 Orbital energies:

         1.1          2.1          3.1          4.1          5.1          6.1          7.1          8.1          9.1
    -20.652327   -15.709635    -1.534070    -0.995959    -0.750096    -0.667998    -0.428797     0.022877     0.065540

         1.2          2.2          3.2
     -0.598717     0.061269     0.092034

 HOMO      7.1    -0.428797 =     -11.6682eV
 LUMO      8.1     0.022877 =       0.6225eV
 LUMO-HOMO         0.451674 =      12.2907eV


 **********************************************************************************************************************************
 DATASETS  * FILE   NREC   LENGTH (MB)   RECORD NAMES
              1      19     6374.22       500      610      700      900      950      970     1000      129      960     1100   
                                          VAR    BASINP    GEOM    SYMINP    ZMAT    AOBASIS   BASIS     P2S    ABASIS      S 
                                         1400     1410     1200     1210     1080     1600     1650     1300     1700   
                                           T        V       H0       H01     AOSYM     SMH    MOLCAS    ERIS     OPER   

              2       4        4.02       700     1000      520     2100   
                                         GEOM     BASIS   MCVARS     RHF  

 PROGRAMS   *        TOTAL        HF       INT
 CPU TIMES  *       287.96    119.88    167.98
 REAL TIME  *       798.66 SEC
 DISK USED  *        21.32 GB      
 **********************************************************************************************************************************


 PROGRAM * CCSD (Closed-shell coupled cluster)     Authors: C. Hampel, H.-J. Werner, 1991, M. Deegan, P.J. Knowles, 1992


 Convergence thresholds:  THRVAR = 1.00D-08  THRDEN = 1.00D-12

 CCSD(T)     terms to be evaluated (factor= 1.000)


 Number of core orbitals:           2 (   2   0 )
 Number of closed-shell orbitals:   6 (   5   1 )
 Number of external orbitals:     326 ( 197 129 )

 Molecular orbitals read from record     2100.2  Type=RHF/CANONICAL (state 1.1)

 Number of N-1 electron functions:               6
 Number of N-2 electron functions:              21
 Number of singly external CSFs:              1114
 Number of doubly external CSFs:            975958
 Total number of CSFs:                      977073

 Length of J-op  integral file:               0.00 MB
 Length of K-op  integral file:               4.07 MB
 Length of 3-ext integral record:             0.00 MB

 Memory could be reduced to 151.33 Mwords without degradation in triples

 Integral transformation finished. Total CPU:  12.78 sec, npass=  1  Memory used:  41.21 MW

 Reference energy:                   -129.85085021

 MP2 singlet pair energy:              -0.31033899
 MP2 triplet pair energy:              -0.17146647
 MP2 correlation energy:               -0.48180546
 MP2 total energy:                   -130.33265567

 SCS-MP2 correlation energy:           -0.47909703   (PS=  1.200000  PT=  0.333333)
 SCS-MP2 total energy:               -130.32994725

 ITER.      SQ.NORM     CORR.ENERGY   TOTAL ENERGY   ENERGY CHANGE        DEN1      VAR(S)    VAR(P)  DIIS     TIME  TIME/IT
   1      1.11962375    -0.47907162  -130.32992183     0.00273384     0.01905836  0.31D-02  0.31D-02  1  1    23.71    11.80
   2      1.13004823    -0.47901320  -130.32986341     0.00005842    -0.01246966  0.10D-03  0.48D-03  2  2    34.73    11.98
   3      1.13604244    -0.47938081  -130.33023103    -0.00036762    -0.00294789  0.46D-04  0.55D-04  3  3    45.77    12.03
   4      1.13875173    -0.47937985  -130.33023006     0.00000096    -0.00094451  0.42D-05  0.97D-05  4  4    56.83    12.05
   5      1.13983415    -0.47940748  -130.33025769    -0.00002763    -0.00024031  0.11D-05  0.17D-05  5  5    67.90    12.07
   6      1.14017915    -0.47939654  -130.33024675     0.00001094    -0.00004853  0.11D-06  0.41D-06  6  6    78.93    12.08
   7      1.14025427    -0.47939629  -130.33024650     0.00000025     0.00000315  0.16D-07  0.93D-07  6  1    89.98    12.09
   8      1.14027896    -0.47939643  -130.33024664    -0.00000014    -0.00000291  0.37D-08  0.18D-07  6  2   100.93    12.10
   9      1.14028725    -0.47939592  -130.33024613     0.00000051    -0.00000023  0.23D-08  0.19D-08  6  3   111.89    12.09
  10      1.14028275    -0.47939664  -130.33024685    -0.00000072     0.00000155  0.35D-09  0.31D-09  6  5   122.89    12.09
  11      1.14028458    -0.47939663  -130.33024684     0.00000001    -0.00000033  0.96D-10  0.26D-10  6  4   133.91    12.09
  12      1.14028414    -0.47939669  -130.33024690    -0.00000006     0.00000005  0.18D-10  0.60D-11  6  6   144.97    12.09
  13      1.14028393    -0.47939669  -130.33024691    -0.00000000    -0.00000003  0.30D-11  0.89D-12  6  1   156.03    12.09
  14      1.14028368    -0.47939670  -130.33024692    -0.00000001     0.00000004  0.45D-12  0.16D-12  6  3   166.99    12.10
  15      1.14028360    -0.47939671  -130.33024692    -0.00000000     0.00000001  0.12D-12  0.22D-13  6  2   177.96    12.10
  16      1.14028359    -0.47939671  -130.33024692     0.00000000     0.00000000  0.31D-13  0.82D-14  6  4   189.03    12.10
  17      1.14028359    -0.47939671  -130.33024692    -0.00000000    -0.00000000  0.17D-14  0.11D-14  6  5   200.03    12.10
  18      1.14028360    -0.47939671  -130.33024692     0.00000000    -0.00000000  0.27D-15  0.29D-15  6  6   210.92    12.10
  19      1.14028360    -0.47939671  -130.33024692     0.00000000    -0.00000000  0.52D-16  0.42D-16  6  1   220.76    12.03
  20      1.14028360    -0.47939671  -130.33024692     0.00000000    -0.00000000  0.11D-16  0.60D-17  6  3   229.44    11.92
  21      1.14028360    -0.47939671  -130.33024692    -0.00000000     0.00000000  0.21D-17  0.10D-17  6  2   238.15    11.82
  22      1.14028360    -0.47939671  -130.33024692    -0.00000000     0.00000000  0.44D-18  0.17D-18  6  4   246.99    11.73
  23      1.14028360    -0.47939671  -130.33024692    -0.00000000     0.00000000  0.10D-18  0.46D-19  6  5   255.67    11.65
  24      1.14028360    -0.47939671  -130.33024692    -0.00000000     0.00000000  0.37D-19  0.19D-19  6  6   264.50    11.58
  25      1.14028360    -0.47939671  -130.33024692     0.00000000    -0.00000000  0.21D-19  0.13D-19  6  1   273.30    11.51

 Norm of t1 vector:      0.07502121      S-energy:    -0.00000000      T1 diagnostic:  0.01531364
                                                                       D1 diagnostic:  0.04144803

 Doubles amplitudes (print threshold =  0.500E-01):

         I         J         SYM. A    SYM. B    A         B      T(IJ, AB)

         6         6         2         2         1         1     -0.07456958
         6         6         2         2         1         2      0.05301861
         6         6         2         2         2         1      0.05301861


 Total CPU time for triples:     90.72 sec


 RESULTS
 =======

  Reference energy                   -129.850850214050
  CCSD singlet pair energy             -0.332368118422
  CCSD triplet pair energy             -0.147028588747
  CCSD correlation energy              -0.479396707171

  Triples (T) contribution             -0.022663846164
  Total correlation energy             -0.502060553334

  CCSD total energy                  -130.330246921221
  CCSD[T] energy                     -130.353956138667
  CCSD-T energy                      -130.352540707951
 !CCSD(T) total energy               -130.352910767385

 Timing summary (sec):

 STEP                 CPU(USER)    SYS     CPU(TOT)    WALL
 Transformation         12.83      1.60     14.43     14.43
 CCSD iterations       260.48     27.21    287.69    287.75
 Triples                90.72      1.63     92.35     92.36

 Program statistics:

 Available memory in ccsd:               994999756
 Min. memory needed in ccsd:               3348832
 Max. memory used in ccsd:                 4143652
 Max. memory used in cckext:               8340089 (25 integral passes)



 **********************************************************************************************************************************
 DATASETS  * FILE   NREC   LENGTH (MB)   RECORD NAMES
              1      20     6809.41       500      610      700      900      950      970     1000      129      960     1100   
                                          VAR    BASINP    GEOM    SYMINP    ZMAT    AOBASIS   BASIS     P2S    ABASIS      S 
                                         1400     1410     1200     1210     1080     1600     1650     1300     1700     1380   
                                           T        V       H0       H01     AOSYM     SMH    MOLCAS    ERIS     OPER     JKOP   

              2       4        4.02       700     1000      520     2100   
                                         GEOM     BASIS   MCVARS     RHF  

 PROGRAMS   *        TOTAL   CCSD(T)        HF       INT
 CPU TIMES  *       652.01    364.05    119.88    167.98
 REAL TIME  *      1193.67 SEC
 DISK USED  *        21.32 GB      
 **********************************************************************************************************************************

 CCSD(T)/aug-cc-pV5Z energy=   -130.352910767385

        CCSD(T)         HF-SCF  
   -130.35291077   -129.85085021
 **********************************************************************************************************************************
 Molpro calculation terminated
 Variable memory released
