
 Primary working directories    : /tmp/r2666/234738.maple
 Secondary working directories  : /tmp/r2666/234738.maple
 Wavefunction directory         : /ddn/home4/r2666/wfu/
 Main file repository           : /tmp/r2666/234738.maple/

 SHA1      : d5ffa45e93fdbca01ffc919aa182cfdae0147319
 NAME      : 2015.1.35
 ARCHNAME  : linux/x86_64
 FC        : /opt/intel/composer_xe_2015.1.133/bin/intel64/ifort
 BLASLIB   : -Wl,-_start-group /opt/intel/mkl/lib/intel64/libmkl_intel_ilp64.a /opt/intel/mkl/lib/intel64/libmkl_intel_thread.a /opt/intel/mkl/lib/intel64/libmkl_core.a -Wl,-_end-group
 id        : olemiss

 Nodes     nprocs
 cn037        1

 Using customized tuning parameters: mindgm=1; mindgv=20; mindgc=4; mindgr=1; noblas=0; minvec=7
 default implementation of scratch files=df  

 ***,hno CCSD(T)/TZ-F12 QFF
 memory, 995, m;
 gthresh,energy=1.d-12,zero=1.d-22,oneint=1.d-22,twoint=1.d-22;
 gthresh,optgrad=1.d-8,optstep=1.d-8;
 nocompress;
 geomtyp=xyz
 bohr
 geometry={
 3
        110       110
 N        0.0000000000       -0.1628622964       -1.1530925039
 H        0.0000000000        1.6733011401       -1.9395592532
 O        0.0000000000        0.0313289463        1.1420621661
 }
 
 basis=av5z
   {hf,maxit=500;accu,20;}
 {ccsd(t),nocheck,maxit=250;orbital,IGNORE_ERROR;}

 Variables initialized (889), CPU time= 0.00 sec
 Commands  initialized (702), CPU time= 0.01 sec, 572 directives.
 Default parameters read. Elapsed time= 0.04 sec

 Checking input...
 Passed
1


                                         ***  PROGRAM SYSTEM MOLPRO  ***
                                       Copyright, TTI GmbH Stuttgart, 2015
                                    Version 2015.1 linked Jul  9 2018 13:16:40


 **********************************************************************************************************************************
 LABEL *   hno CCSD(T)/TZ-F12 QFF                                                        
  64 bit serial version                                                                  DATE: 08-Feb-20          TIME: 17:41:19  
 **********************************************************************************************************************************

 SHA1:             d5ffa45e93fdbca01ffc919aa182cfdae0147319
 **********************************************************************************************************************************

 THRESHOLDS:

 ZERO    =  1.00D-22  ONEINT  =  1.00D-22  TWOINT  =  1.00D-22  PREFAC  =  1.00D-14  LOCALI  =  1.00D-09  EORDER  =  1.00D-04
 ENERGY  =  1.00D-12  ETEST   =  0.00D+00  EDENS   =  0.00D+00  THRDEDEF=  1.00D-06  GRADIENT=  1.00D-02  STEP    =  1.00D-03
 ORBITAL =  1.00D-05  CIVEC   =  1.00D-05  COEFF   =  1.00D-04  PRINTCI =  5.00D-02  PUNCHCI =  9.90D+01  OPTGRAD =  3.00D-04
 OPTENERG=  1.00D-06  OPTSTEP =  3.00D-04  THRGRAD =  1.00D-10  COMPRESS=  1.00D-11  VARMIN  =  1.00D-07  VARMAX  =  1.00D-03
 THRDOUB =  0.00D+00  THRDIV  =  1.00D-05  THRRED  =  1.00D-07  THRPSP  =  1.00D+00  THRDC   =  1.00D-10  THRCS   =  1.00D-10
 THRNRM  =  1.00D-08  THREQ   =  0.00D+00  THRDE   =  1.00D+00  THRREF  =  1.00D-05  SPARFAC =  1.00D+00  THRDLP  =  1.00D-07
 THRDIA  =  1.00D-10  THRDLS  =  1.00D-07  THRGPS  =  0.00D+00  THRKEX  =  0.00D+00  THRDIS  =  2.00D-01  THRVAR  =  1.00D-10
 THRLOC  =  1.00D-06  THRGAP  =  1.00D-06  THRLOCT = -1.00D+00  THRGAPT = -1.00D+00  THRORB  =  1.00D-06  THRMLTP =  0.00D+00
 THRCPQCI=  1.00D-10  KEXTA   =  0.00D+00  THRCOARS=  0.00D+00  SYMTOL  =  1.00D-06  GRADTOL =  1.00D-06  THROVL  =  1.00D-08
 THRORTH =  1.00D-08  GRID    =  1.00D-06  GRIDMAX =  1.00D-03  DTMAX   =  0.00D+00  THROCCDE=  1.00D-01  THROCCDE=  1.00D-01



 THRESHOLDS:

 ZERO    =  1.00D-22  ONEINT  =  1.00D-22  TWOINT  =  1.00D-22  PREFAC  =  1.00D-14  LOCALI  =  1.00D-09  EORDER  =  1.00D-04
 ENERGY  =  1.00D-12  ETEST   =  0.00D+00  EDENS   =  0.00D+00  THRDEDEF=  1.00D-06  GRADIENT=  1.00D-02  STEP    =  1.00D-03
 ORBITAL =  1.00D-05  CIVEC   =  1.00D-05  COEFF   =  1.00D-04  PRINTCI =  5.00D-02  PUNCHCI =  9.90D+01  OPTGRAD =  1.00D-08
 OPTENERG=  1.00D-06  OPTSTEP =  1.00D-08  THRGRAD =  1.00D-10  COMPRESS=  1.00D-11  VARMIN  =  1.00D-07  VARMAX  =  1.00D-03
 THRDOUB =  0.00D+00  THRDIV  =  1.00D-05  THRRED  =  1.00D-07  THRPSP  =  1.00D+00  THRDC   =  1.00D-10  THRCS   =  1.00D-10
 THRNRM  =  1.00D-08  THREQ   =  0.00D+00  THRDE   =  1.00D+00  THRREF  =  1.00D-05  SPARFAC =  1.00D+00  THRDLP  =  1.00D-07
 THRDIA  =  1.00D-10  THRDLS  =  1.00D-07  THRGPS  =  0.00D+00  THRKEX  =  0.00D+00  THRDIS  =  2.00D-01  THRVAR  =  1.00D-10
 THRLOC  =  1.00D-06  THRGAP  =  1.00D-06  THRLOCT = -1.00D+00  THRGAPT = -1.00D+00  THRORB  =  1.00D-06  THRMLTP =  0.00D+00
 THRCPQCI=  1.00D-10  KEXTA   =  0.00D+00  THRCOARS=  0.00D+00  SYMTOL  =  1.00D-06  GRADTOL =  1.00D-06  THROVL  =  1.00D-08
 THRORTH =  1.00D-08  GRID    =  1.00D-06  GRIDMAX =  1.00D-03  DTMAX   =  0.00D+00  THROCCDE=  1.00D-01  THROCCDE=  1.00D-01



 Input parameters for SORTINT:

 COMPRESS =    0.000000
 C_FINAL  =    1.000000
 DEBUG    =   -1.000000
 C_SORT1  =    0.000000
 C_SEWARD =    0.000000
 THRESH   =    0.000000
 IO       =  molpro                                                          
 SPRI     =    0.000000
 SETTING GEOMTYP        =    XYZ
 ZUNIT=BOHR
 

 Variable memory set to  995000000 words,  buffer space   230000 words

 SETTING BASIS          =    AV5Z


 Recomputing integrals since basis changed


 Using spherical harmonics

 Library entry N      S aug-cc-pV5Z          selected for orbital group  1
 Library entry N      P aug-cc-pV5Z          selected for orbital group  1
 Library entry N      D aug-cc-pV5Z          selected for orbital group  1
 Library entry N      F aug-cc-pV5Z          selected for orbital group  1
 Library entry N      G aug-cc-pV5Z          selected for orbital group  1
 Library entry N      H aug-cc-pV5Z          selected for orbital group  1
 Library entry H      S aug-cc-pV5Z          selected for orbital group  2
 Library entry H      P aug-cc-pV5Z          selected for orbital group  2
 Library entry H      D aug-cc-pV5Z          selected for orbital group  2
 Library entry H      F aug-cc-pV5Z          selected for orbital group  2
 Library entry H      G aug-cc-pV5Z          selected for orbital group  2
 Library entry O      S aug-cc-pV5Z          selected for orbital group  3
 Library entry O      P aug-cc-pV5Z          selected for orbital group  3
 Library entry O      D aug-cc-pV5Z          selected for orbital group  3
 Library entry O      F aug-cc-pV5Z          selected for orbital group  3
 Library entry O      G aug-cc-pV5Z          selected for orbital group  3
 Library entry O      H aug-cc-pV5Z          selected for orbital group  3


 PROGRAM * SEWARD (Integral evaluation for generally contracted gaussian basis sets)     Author: Roland Lindh, 1990

 Geometry written to block  1 of record 700


 Point group  Cs  



 ATOMIC COORDINATES

 NR  ATOM    CHARGE       X              Y              Z

   1  N       7.00    0.000000000   -0.162862296   -1.153092504
   2  H       1.00    0.000000000    1.673301140   -1.939559253
   3  O       8.00    0.000000000    0.031328946    1.142062166

 Bond lengths in Bohr (Angstrom)

 1-2  1.997504972  1-3  2.303355204
     ( 1.057034110)     ( 1.218883083)

 Bond angles

  2-1-3  108.35021866

 NUCLEAR CHARGE:                   16
 NUMBER OF PRIMITIVE AOS:         506
 NUMBER OF SYMMETRY AOS:          371
 NUMBER OF CONTRACTIONS:          334   ( 204A'  + 130A"  )
 NUMBER OF CORE ORBITALS:           2   (   2A'  +   0A"  )
 NUMBER OF VALENCE ORBITALS:        9   (   7A'  +   2A"  )


 NUCLEAR REPULSION ENERGY   30.10783247


 Eigenvalues of metric

         1 0.116E-04 0.178E-04 0.647E-04 0.104E-03 0.109E-03 0.141E-03 0.203E-03 0.225E-03
         2 0.131E-03 0.371E-03 0.117E-02 0.166E-02 0.200E-02 0.263E-02 0.334E-02 0.400E-02


 Contracted 2-electron integrals neglected if value below      1.0D-22

      756977389. INTEGRALS WRITTEN OUT IN  184855 BLOCKS ON RECORD 1290 OF FILE 1


 NUMBER OF SORTED TWO-ELECTRON INTEGRALS:  789027325.     BUFFER LENGTH:  32768
 NUMBER OF SEGMENTS:  25  SEGMENT LENGTH:   31997130      RECORD LENGTH: 524288

 Memory used in sort:      32.55 MW

 SORT1 READ   756977389. AND WROTE   760993262. INTEGRALS IN   2189 RECORDS. CPU TIME:    25.38 SEC, REAL TIME:   106.38 SEC
 SORT2 READ   760993262. AND WROTE   789027325. INTEGRALS IN     25 RECORDS. CPU TIME:     9.07 SEC, REAL TIME:    13.07 SEC

 FILE SIZES:   FILE 1: 12137.5 MBYTE,  FILE 4:  9181.4 MBYTE,   TOTAL:  21318.9 MBYTE

 OPERATOR DM      FOR CENTER  0  COORDINATES:    0.000000    0.000000    0.000000


 **********************************************************************************************************************************
 DATASETS  * FILE   NREC   LENGTH (MB)   RECORD NAMES
              1      19     6374.22       500      610      700      900      950      970     1000      129      960     1100   
                                          VAR    BASINP    GEOM    SYMINP    ZMAT    AOBASIS   BASIS     P2S    ABASIS      S 
                                         1400     1410     1200     1210     1080     1600     1650     1300     1700   
                                           T        V       H0       H01     AOSYM     SMH    MOLCAS    ERIS     OPER   

 PROGRAMS   *        TOTAL       INT
 CPU TIMES  *       142.78    142.69
 REAL TIME  *       269.37 SEC
 DISK USED  *        21.32 GB      
 **********************************************************************************************************************************


 PROGRAM * RHF-SCF (CLOSED SHELL)       Authors: W. Meyer, H.-J. Werner


 NUMBER OF ELECTRONS:       8+    8-
 CONVERGENCE THRESHOLDS:    1.00E-10 (Density)    1.00E-13 (Energy)
 MAX. NUMBER OF ITERATIONS:      500
 INTERPOLATION TYPE:            DIIS
 INTERPOLATION STEPS:              2 (START)      1 (STEP)
 LEVEL SHIFTS:                  0.00 (CLOSED)  0.00 (OPEN) 



 Orbital guess generated from atomic densities. Full valence occupancy:    9   2

 Molecular orbital dump at record        2100.2

 Initial occupancy:   7   1

 ITERATION    DDIFF          GRAD             ENERGY        2-EL.EN.            DIPOLE MOMENTS         DIIS   ORB.
    1      0.000D+00      0.000D+00      -129.79475064    153.506835    0.00000    0.59838   -1.06585    0    start
    2      0.000D+00      0.651D-02      -129.82155483    154.710904    0.00000    0.61682   -0.20021    1    diag
    3      0.411D-02      0.510D-02      -129.84670889    154.862021    0.00000    0.56056   -0.61093    2    diag
    4      0.214D-02      0.779D-03      -129.84754125    154.567888    0.00000    0.56754   -0.54736    3    diag
    5      0.384D-03      0.254D-03      -129.84767283    154.663173    0.00000    0.57288   -0.54970    4    diag
    6      0.160D-03      0.737D-04      -129.84769401    154.646619    0.00000    0.57310   -0.54526    5    diag
    7      0.617D-04      0.370D-04      -129.84770034    154.649331    0.00000    0.57431   -0.54248    6    diag
    8      0.425D-04      0.135D-04      -129.84770113    154.648577    0.00000    0.57436   -0.54135    7    diag
    9      0.174D-04      0.266D-05      -129.84770117    154.648453    0.00000    0.57432   -0.54111    8    diag
   10      0.361D-05      0.587D-06      -129.84770117    154.648433    0.00000    0.57428   -0.54108    9    orth
   11      0.670D-06      0.116D-06      -129.84770117    154.648429    0.00000    0.57427   -0.54107    9    diag
   12      0.121D-06      0.241D-07      -129.84770117    154.648429    0.00000    0.57427   -0.54107    9    diag
   13      0.261D-07      0.652D-08      -129.84770117    154.648429    0.00000    0.57427   -0.54107    9    diag
   14      0.736D-08      0.126D-08      -129.84770117    154.648429    0.00000    0.57427   -0.54107    9    diag
   15      0.133D-08      0.356D-09      -129.84770117    154.648429    0.00000    0.57427   -0.54107    9    diag
   16      0.399D-09      0.104D-09      -129.84770117    154.648429    0.00000    0.57427   -0.54107    9    diag
   17      0.740D-10      0.261D-10      -129.84770117    154.648429    0.00000    0.57427   -0.54107    9    diag
   18      0.223D-10      0.869D-11      -129.84770117    154.648429    0.00000    0.57427   -0.54107    9    diag
   19      0.207D-10      0.205D-11      -129.84770117    154.648429    0.00000    0.57427   -0.54107    9    fixocc
   20      0.167D-10      0.516D-12      -129.84770117    154.648429    0.00000    0.57427   -0.54107    9    orth
   21      0.694D-11      0.443D-12      -129.84770117    154.648429    0.00000    0.57427   -0.54107    9    diag
   22      0.574D-11      0.265D-12      -129.84770117    154.648429    0.00000    0.57427   -0.54107    9    diag
   23      0.387D-11      0.171D-12      -129.84770117    154.648429    0.00000    0.57427   -0.54107    9    diag
   24      0.192D-11      0.249D-12      -129.84770117    154.648429    0.00000    0.57427   -0.54107    9    diag
   25      0.952D-12      0.277D-12      -129.84770117    154.648429    0.00000    0.57427   -0.54107    0    orth

 Final occupancy:   7   1

 !RHF STATE 1.1 Energy               -129.847701169628
 Nuclear energy                        30.10783247
 One-electron energy                 -237.27974826
 Two-electron energy                   77.32421462
 Virial quotient                       -1.00208329
 !RHF STATE 1.1 Dipole moment           0.00000000     0.57427224    -0.54107332
 Dipole moment /Debye                   0.00000000     1.45955884    -1.37518114

 Orbital energies:

         1.1          2.1          3.1          4.1          5.1          6.1          7.1          8.1          9.1
    -20.654105   -15.714689    -1.520316    -0.995771    -0.743319    -0.663017    -0.433477     0.022714     0.065531

         1.2          2.2          3.2
     -0.590967     0.057892     0.090747

 HOMO      7.1    -0.433477 =     -11.7955eV
 LUMO      8.1     0.022714 =       0.6181eV
 LUMO-HOMO         0.456191 =      12.4136eV


 **********************************************************************************************************************************
 DATASETS  * FILE   NREC   LENGTH (MB)   RECORD NAMES
              1      19     6374.22       500      610      700      900      950      970     1000      129      960     1100   
                                          VAR    BASINP    GEOM    SYMINP    ZMAT    AOBASIS   BASIS     P2S    ABASIS      S 
                                         1400     1410     1200     1210     1080     1600     1650     1300     1700   
                                           T        V       H0       H01     AOSYM     SMH    MOLCAS    ERIS     OPER   

              2       4        4.02       700     1000      520     2100   
                                         GEOM     BASIS   MCVARS     RHF  

 PROGRAMS   *        TOTAL        HF       INT
 CPU TIMES  *       242.48     99.70    142.69
 REAL TIME  *       394.13 SEC
 DISK USED  *        21.32 GB      
 **********************************************************************************************************************************


 PROGRAM * CCSD (Closed-shell coupled cluster)     Authors: C. Hampel, H.-J. Werner, 1991, M. Deegan, P.J. Knowles, 1992


 Convergence thresholds:  THRVAR = 1.00D-08  THRDEN = 1.00D-12

 CCSD(T)     terms to be evaluated (factor= 1.000)


 Number of core orbitals:           2 (   2   0 )
 Number of closed-shell orbitals:   6 (   5   1 )
 Number of external orbitals:     326 ( 197 129 )

 Molecular orbitals read from record     2100.2  Type=RHF/CANONICAL (state 1.1)

 Number of N-1 electron functions:               6
 Number of N-2 electron functions:              21
 Number of singly external CSFs:              1114
 Number of doubly external CSFs:            975958
 Total number of CSFs:                      977073

 Length of J-op  integral file:               0.00 MB
 Length of K-op  integral file:               4.07 MB
 Length of 3-ext integral record:             0.00 MB

 Memory could be reduced to 151.33 Mwords without degradation in triples

 Integral transformation finished. Total CPU:  14.12 sec, npass=  1  Memory used:  41.21 MW

 Reference energy:                   -129.84770117

 MP2 singlet pair energy:              -0.31239514
 MP2 triplet pair energy:              -0.17283276
 MP2 correlation energy:               -0.48522790
 MP2 total energy:                   -130.33292907

 SCS-MP2 correlation energy:           -0.48241455   (PS=  1.200000  PT=  0.333333)
 SCS-MP2 total energy:               -130.33011572

 ITER.      SQ.NORM     CORR.ENERGY   TOTAL ENERGY   ENERGY CHANGE        DEN1      VAR(S)    VAR(P)  DIIS     TIME  TIME/IT
   1      1.12192881    -0.48176350  -130.32946467     0.00346440     0.02066978  0.33D-02  0.34D-02  1  1    24.60    11.38
   2      1.13287297    -0.48154502  -130.32924619     0.00021847    -0.01300116  0.11D-03  0.51D-03  2  2    35.19    11.57
   3      1.13926460    -0.48194673  -130.32964790    -0.00040170    -0.00307485  0.52D-04  0.60D-04  3  3    45.89    11.63
   4      1.14219687    -0.48194447  -130.32964564     0.00000226    -0.00100724  0.50D-05  0.11D-04  4  4    56.50    11.66
   5      1.14341595    -0.48197596  -130.32967713    -0.00003150    -0.00026936  0.13D-05  0.17D-05  5  5    67.17    11.68
   6      1.14379544    -0.48196317  -130.32966434     0.00001280    -0.00005396  0.13D-06  0.41D-06  6  6    77.84    11.70
   7      1.14387327    -0.48196278  -130.32966395     0.00000039     0.00000386  0.18D-07  0.95D-07  6  1    88.45    11.71
   8      1.14389948    -0.48196268  -130.32966385     0.00000010    -0.00000330  0.34D-08  0.20D-07  6  2    99.29    11.75
   9      1.14390830    -0.48196206  -130.32966323     0.00000062    -0.00000010  0.23D-08  0.23D-08  6  3   110.11    11.78
  10      1.14390338    -0.48196284  -130.32966401    -0.00000078     0.00000168  0.38D-09  0.38D-09  6  5   121.65    11.87
  11      1.14390560    -0.48196282  -130.32966399     0.00000003    -0.00000042  0.11D-09  0.32D-10  6  4   132.61    11.88
  12      1.14390514    -0.48196289  -130.32966406    -0.00000007     0.00000005  0.20D-10  0.73D-11  6  6   143.52    11.89
  13      1.14390492    -0.48196289  -130.32966406    -0.00000000    -0.00000004  0.34D-11  0.10D-11  6  1   154.39    11.91
  14      1.14390463    -0.48196290  -130.32966407    -0.00000001     0.00000004  0.45D-12  0.19D-12  6  3   165.24    11.92
  15      1.14390454    -0.48196291  -130.32966408    -0.00000000     0.00000001  0.13D-12  0.24D-13  6  2   176.20    11.92
  16      1.14390453    -0.48196291  -130.32966408     0.00000000     0.00000000  0.36D-13  0.94D-14  6  4   187.08    11.93
  17      1.14390453    -0.48196291  -130.32966408    -0.00000000    -0.00000000  0.21D-14  0.12D-14  6  5   198.00    11.93
  18      1.14390454    -0.48196291  -130.32966408     0.00000000    -0.00000000  0.30D-15  0.31D-15  6  6   209.01    11.94
  19      1.14390454    -0.48196291  -130.32966408     0.00000000    -0.00000000  0.54D-16  0.41D-16  6  1   219.91    11.95
  20      1.14390454    -0.48196291  -130.32966408     0.00000000    -0.00000000  0.12D-16  0.65D-17  6  3   230.82    11.95
  21      1.14390454    -0.48196291  -130.32966408    -0.00000000     0.00000000  0.22D-17  0.12D-17  6  2   241.76    11.96
  22      1.14390454    -0.48196291  -130.32966408    -0.00000000     0.00000000  0.40D-18  0.19D-18  6  4   252.61    11.96
  23      1.14390454    -0.48196291  -130.32966408    -0.00000000     0.00000000  0.86D-19  0.50D-19  6  5   263.53    11.96
  24      1.14390454    -0.48196291  -130.32966408    -0.00000000     0.00000000  0.38D-19  0.25D-19  6  6   274.38    11.97
  25      1.14390454    -0.48196291  -130.32966408     0.00000000    -0.00000000  0.18D-19  0.13D-19  6  1   285.24    11.97

 Norm of t1 vector:      0.07833971      S-energy:    -0.00000000      T1 diagnostic:  0.01599103
                                                                       D1 diagnostic:  0.04367752

 Doubles amplitudes (print threshold =  0.500E-01):

         I         J         SYM. A    SYM. B    A         B      T(IJ, AB)

         6         6         2         2         1         1     -0.08744129
         6         6         2         2         1         2      0.05270007
         6         6         2         2         2         1      0.05270007


 Total CPU time for triples:    114.03 sec


 RESULTS
 =======

  Reference energy                   -129.847701169628
  CCSD singlet pair energy             -0.334581768310
  CCSD triplet pair energy             -0.147381139363
  CCSD correlation energy              -0.481962907675

  Triples (T) contribution             -0.023307645437
  Total correlation energy             -0.505270553112

  CCSD total energy                  -130.329664077303
  CCSD[T] energy                     -130.354105539501
  CCSD-T energy                      -130.352578804267
 !CCSD(T) total energy               -130.352971722740

 Timing summary (sec):

 STEP                 CPU(USER)    SYS     CPU(TOT)    WALL
 Transformation         14.18      1.52     15.70     15.70
 CCSD iterations       271.06     28.15    299.21    299.24
 Triples               114.03      2.04    116.07    116.07

 Program statistics:

 Available memory in ccsd:               994999756
 Min. memory needed in ccsd:               3348832
 Max. memory used in ccsd:                 4143652
 Max. memory used in cckext:               8340089 (25 integral passes)



 **********************************************************************************************************************************
 DATASETS  * FILE   NREC   LENGTH (MB)   RECORD NAMES
              1      20     6809.41       500      610      700      900      950      970     1000      129      960     1100   
                                          VAR    BASINP    GEOM    SYMINP    ZMAT    AOBASIS   BASIS     P2S    ABASIS      S 
                                         1400     1410     1200     1210     1080     1600     1650     1300     1700     1380   
                                           T        V       H0       H01     AOSYM     SMH    MOLCAS    ERIS     OPER     JKOP   

              2       4        4.02       700     1000      520     2100   
                                         GEOM     BASIS   MCVARS     RHF  

 PROGRAMS   *        TOTAL   CCSD(T)        HF       INT
 CPU TIMES  *       641.78    399.30     99.70    142.69
 REAL TIME  *       825.18 SEC
 DISK USED  *        21.32 GB      
 **********************************************************************************************************************************

 CCSD(T)/aug-cc-pV5Z energy=   -130.352971722740

        CCSD(T)         HF-SCF  
   -130.35297172   -129.84770117
 **********************************************************************************************************************************
 Molpro calculation terminated
 Variable memory released
