
 Primary working directories    : /tmp/r2666/234696.maple
 Secondary working directories  : /tmp/r2666/234696.maple
 Wavefunction directory         : /ddn/home4/r2666/wfu/
 Main file repository           : /tmp/r2666/234696.maple/

 SHA1      : d5ffa45e93fdbca01ffc919aa182cfdae0147319
 NAME      : 2015.1.35
 ARCHNAME  : linux/x86_64
 FC        : /opt/intel/composer_xe_2015.1.133/bin/intel64/ifort
 BLASLIB   : -Wl,-_start-group /opt/intel/mkl/lib/intel64/libmkl_intel_ilp64.a /opt/intel/mkl/lib/intel64/libmkl_intel_thread.a /opt/intel/mkl/lib/intel64/libmkl_core.a -Wl,-_end-group
 id        : olemiss

 Nodes     nprocs
 cn091        1

 Using customized tuning parameters: mindgm=1; mindgv=20; mindgc=4; mindgr=1; noblas=0; minvec=7
 default implementation of scratch files=df  

 ***,hno CCSD(T)/TZ-F12 QFF
 memory, 995, m;
 gthresh,energy=1.d-12,zero=1.d-22,oneint=1.d-22,twoint=1.d-22;
 gthresh,optgrad=1.d-8,optstep=1.d-8;
 nocompress;
 geomtyp=xyz
 bohr
 geometry={
 3
         68        68
 N        0.0000000000       -0.1697829235       -1.1648000114
 H        0.0000000000        1.6683818827       -1.9221098321
 O        0.0000000000        0.0431688307        1.1363202525
 }
 
 basis=av5z
   {hf,maxit=500;accu,20;}
 {ccsd(t),nocheck,maxit=250;orbital,IGNORE_ERROR;}

 Variables initialized (889), CPU time= 0.01 sec
 Commands  initialized (702), CPU time= 0.01 sec, 572 directives.
 Default parameters read. Elapsed time= 0.04 sec

 Checking input...
 Passed
1


                                         ***  PROGRAM SYSTEM MOLPRO  ***
                                       Copyright, TTI GmbH Stuttgart, 2015
                                    Version 2015.1 linked Jul  9 2018 13:16:40


 **********************************************************************************************************************************
 LABEL *   hno CCSD(T)/TZ-F12 QFF                                                        
  64 bit serial version                                                                  DATE: 08-Feb-20          TIME: 17:36:37  
 **********************************************************************************************************************************

 SHA1:             d5ffa45e93fdbca01ffc919aa182cfdae0147319
 **********************************************************************************************************************************

 THRESHOLDS:

 ZERO    =  1.00D-22  ONEINT  =  1.00D-22  TWOINT  =  1.00D-22  PREFAC  =  1.00D-14  LOCALI  =  1.00D-09  EORDER  =  1.00D-04
 ENERGY  =  1.00D-12  ETEST   =  0.00D+00  EDENS   =  0.00D+00  THRDEDEF=  1.00D-06  GRADIENT=  1.00D-02  STEP    =  1.00D-03
 ORBITAL =  1.00D-05  CIVEC   =  1.00D-05  COEFF   =  1.00D-04  PRINTCI =  5.00D-02  PUNCHCI =  9.90D+01  OPTGRAD =  3.00D-04
 OPTENERG=  1.00D-06  OPTSTEP =  3.00D-04  THRGRAD =  1.00D-10  COMPRESS=  1.00D-11  VARMIN  =  1.00D-07  VARMAX  =  1.00D-03
 THRDOUB =  0.00D+00  THRDIV  =  1.00D-05  THRRED  =  1.00D-07  THRPSP  =  1.00D+00  THRDC   =  1.00D-10  THRCS   =  1.00D-10
 THRNRM  =  1.00D-08  THREQ   =  0.00D+00  THRDE   =  1.00D+00  THRREF  =  1.00D-05  SPARFAC =  1.00D+00  THRDLP  =  1.00D-07
 THRDIA  =  1.00D-10  THRDLS  =  1.00D-07  THRGPS  =  0.00D+00  THRKEX  =  0.00D+00  THRDIS  =  2.00D-01  THRVAR  =  1.00D-10
 THRLOC  =  1.00D-06  THRGAP  =  1.00D-06  THRLOCT = -1.00D+00  THRGAPT = -1.00D+00  THRORB  =  1.00D-06  THRMLTP =  0.00D+00
 THRCPQCI=  1.00D-10  KEXTA   =  0.00D+00  THRCOARS=  0.00D+00  SYMTOL  =  1.00D-06  GRADTOL =  1.00D-06  THROVL  =  1.00D-08
 THRORTH =  1.00D-08  GRID    =  1.00D-06  GRIDMAX =  1.00D-03  DTMAX   =  0.00D+00  THROCCDE=  1.00D-01  THROCCDE=  1.00D-01



 THRESHOLDS:

 ZERO    =  1.00D-22  ONEINT  =  1.00D-22  TWOINT  =  1.00D-22  PREFAC  =  1.00D-14  LOCALI  =  1.00D-09  EORDER  =  1.00D-04
 ENERGY  =  1.00D-12  ETEST   =  0.00D+00  EDENS   =  0.00D+00  THRDEDEF=  1.00D-06  GRADIENT=  1.00D-02  STEP    =  1.00D-03
 ORBITAL =  1.00D-05  CIVEC   =  1.00D-05  COEFF   =  1.00D-04  PRINTCI =  5.00D-02  PUNCHCI =  9.90D+01  OPTGRAD =  1.00D-08
 OPTENERG=  1.00D-06  OPTSTEP =  1.00D-08  THRGRAD =  1.00D-10  COMPRESS=  1.00D-11  VARMIN  =  1.00D-07  VARMAX  =  1.00D-03
 THRDOUB =  0.00D+00  THRDIV  =  1.00D-05  THRRED  =  1.00D-07  THRPSP  =  1.00D+00  THRDC   =  1.00D-10  THRCS   =  1.00D-10
 THRNRM  =  1.00D-08  THREQ   =  0.00D+00  THRDE   =  1.00D+00  THRREF  =  1.00D-05  SPARFAC =  1.00D+00  THRDLP  =  1.00D-07
 THRDIA  =  1.00D-10  THRDLS  =  1.00D-07  THRGPS  =  0.00D+00  THRKEX  =  0.00D+00  THRDIS  =  2.00D-01  THRVAR  =  1.00D-10
 THRLOC  =  1.00D-06  THRGAP  =  1.00D-06  THRLOCT = -1.00D+00  THRGAPT = -1.00D+00  THRORB  =  1.00D-06  THRMLTP =  0.00D+00
 THRCPQCI=  1.00D-10  KEXTA   =  0.00D+00  THRCOARS=  0.00D+00  SYMTOL  =  1.00D-06  GRADTOL =  1.00D-06  THROVL  =  1.00D-08
 THRORTH =  1.00D-08  GRID    =  1.00D-06  GRIDMAX =  1.00D-03  DTMAX   =  0.00D+00  THROCCDE=  1.00D-01  THROCCDE=  1.00D-01



 Input parameters for SORTINT:

 COMPRESS =    0.000000
 C_FINAL  =    1.000000
 DEBUG    =   -1.000000
 C_SORT1  =    0.000000
 C_SEWARD =    0.000000
 THRESH   =    0.000000
 IO       =  molpro                                                          
 SPRI     =    0.000000
 SETTING GEOMTYP        =    XYZ
 ZUNIT=BOHR
 

 Variable memory set to  995000000 words,  buffer space   230000 words

 SETTING BASIS          =    AV5Z


 Recomputing integrals since basis changed


 Using spherical harmonics

 Library entry N      S aug-cc-pV5Z          selected for orbital group  1
 Library entry N      P aug-cc-pV5Z          selected for orbital group  1
 Library entry N      D aug-cc-pV5Z          selected for orbital group  1
 Library entry N      F aug-cc-pV5Z          selected for orbital group  1
 Library entry N      G aug-cc-pV5Z          selected for orbital group  1
 Library entry N      H aug-cc-pV5Z          selected for orbital group  1
 Library entry H      S aug-cc-pV5Z          selected for orbital group  2
 Library entry H      P aug-cc-pV5Z          selected for orbital group  2
 Library entry H      D aug-cc-pV5Z          selected for orbital group  2
 Library entry H      F aug-cc-pV5Z          selected for orbital group  2
 Library entry H      G aug-cc-pV5Z          selected for orbital group  2
 Library entry O      S aug-cc-pV5Z          selected for orbital group  3
 Library entry O      P aug-cc-pV5Z          selected for orbital group  3
 Library entry O      D aug-cc-pV5Z          selected for orbital group  3
 Library entry O      F aug-cc-pV5Z          selected for orbital group  3
 Library entry O      G aug-cc-pV5Z          selected for orbital group  3
 Library entry O      H aug-cc-pV5Z          selected for orbital group  3


 PROGRAM * SEWARD (Integral evaluation for generally contracted gaussian basis sets)     Author: Roland Lindh, 1990

 Geometry written to block  1 of record 700


 Point group  Cs  



 ATOMIC COORDINATES

 NR  ATOM    CHARGE       X              Y              Z

   1  N       7.00    0.000000000   -0.169782923   -1.164800011
   2  H       1.00    0.000000000    1.668381883   -1.922109832
   3  O       8.00    0.000000000    0.043168831    1.136320253

 Bond lengths in Bohr (Angstrom)

 1-2  1.988056342  1-3  2.310952816
     ( 1.052034110)     ( 1.222903566)

 Bond angles

  2-1-3  107.10404219

 NUCLEAR CHARGE:                   16
 NUMBER OF PRIMITIVE AOS:         506
 NUMBER OF SYMMETRY AOS:          371
 NUMBER OF CONTRACTIONS:          334   ( 204A'  + 130A"  )
 NUMBER OF CORE ORBITALS:           2   (   2A'  +   0A"  )
 NUMBER OF VALENCE ORBITALS:        9   (   7A'  +   2A"  )


 NUCLEAR REPULSION ENERGY   30.06330826


 Eigenvalues of metric

         1 0.116E-04 0.180E-04 0.647E-04 0.104E-03 0.110E-03 0.142E-03 0.205E-03 0.224E-03
         2 0.133E-03 0.366E-03 0.118E-02 0.168E-02 0.196E-02 0.267E-02 0.331E-02 0.396E-02


 Contracted 2-electron integrals neglected if value below      1.0D-22

      756977574. INTEGRALS WRITTEN OUT IN  184855 BLOCKS ON RECORD 1290 OF FILE 1


 NUMBER OF SORTED TWO-ELECTRON INTEGRALS:  789027325.     BUFFER LENGTH:  32768
 NUMBER OF SEGMENTS:  25  SEGMENT LENGTH:   31997130      RECORD LENGTH: 524288

 Memory used in sort:      32.55 MW

 SORT1 READ   756977574. AND WROTE   760993458. INTEGRALS IN   2189 RECORDS. CPU TIME:    21.13 SEC, REAL TIME:    61.96 SEC
 SORT2 READ   760993458. AND WROTE   789027325. INTEGRALS IN     25 RECORDS. CPU TIME:    12.72 SEC, REAL TIME:    67.13 SEC

 FILE SIZES:   FILE 1: 12137.5 MBYTE,  FILE 4:  9181.4 MBYTE,   TOTAL:  21318.9 MBYTE

 OPERATOR DM      FOR CENTER  0  COORDINATES:    0.000000    0.000000    0.000000


 **********************************************************************************************************************************
 DATASETS  * FILE   NREC   LENGTH (MB)   RECORD NAMES
              1      19     6374.22       500      610      700      900      950      970     1000      129      960     1100   
                                          VAR    BASINP    GEOM    SYMINP    ZMAT    AOBASIS   BASIS     P2S    ABASIS      S 
                                         1400     1410     1200     1210     1080     1600     1650     1300     1700   
                                           T        V       H0       H01     AOSYM     SMH    MOLCAS    ERIS     OPER   

 PROGRAMS   *        TOTAL       INT
 CPU TIMES  *       125.73    125.64
 REAL TIME  *       227.87 SEC
 DISK USED  *        21.32 GB      
 **********************************************************************************************************************************


 PROGRAM * RHF-SCF (CLOSED SHELL)       Authors: W. Meyer, H.-J. Werner


 NUMBER OF ELECTRONS:       8+    8-
 CONVERGENCE THRESHOLDS:    1.00E-10 (Density)    1.00E-13 (Energy)
 MAX. NUMBER OF ITERATIONS:      500
 INTERPOLATION TYPE:            DIIS
 INTERPOLATION STEPS:              2 (START)      1 (STEP)
 LEVEL SHIFTS:                  0.00 (CLOSED)  0.00 (OPEN) 



 Orbital guess generated from atomic densities. Full valence occupancy:    9   2

 Molecular orbital dump at record        2100.2

 Initial occupancy:   7   1

 ITERATION    DDIFF          GRAD             ENERGY        2-EL.EN.            DIPOLE MOMENTS         DIIS   ORB.
    1      0.000D+00      0.000D+00      -129.79375478    153.436379    0.00000    0.59193   -1.07532    0    start
    2      0.000D+00      0.653D-02      -129.82041562    154.619756    0.00000    0.62060   -0.19439    1    diag
    3      0.414D-02      0.516D-02      -129.84618397    154.783022    0.00000    0.55899   -0.61225    2    diag
    4      0.216D-02      0.780D-03      -129.84702096    154.487165    0.00000    0.56654   -0.54835    3    diag
    5      0.384D-03      0.255D-03      -129.84715365    154.582031    0.00000    0.57169   -0.55048    4    diag
    6      0.161D-03      0.741D-04      -129.84717505    154.565463    0.00000    0.57187   -0.54597    5    diag
    7      0.620D-04      0.374D-04      -129.84718153    154.568117    0.00000    0.57306   -0.54310    6    diag
    8      0.430D-04      0.138D-04      -129.84718237    154.567340    0.00000    0.57309   -0.54194    7    diag
    9      0.179D-04      0.270D-05      -129.84718241    154.567217    0.00000    0.57305   -0.54169    8    diag
   10      0.372D-05      0.586D-06      -129.84718241    154.567198    0.00000    0.57302   -0.54166    9    orth
   11      0.665D-06      0.116D-06      -129.84718241    154.567195    0.00000    0.57301   -0.54166    9    diag
   12      0.119D-06      0.245D-07      -129.84718241    154.567195    0.00000    0.57301   -0.54166    9    diag
   13      0.261D-07      0.669D-08      -129.84718241    154.567195    0.00000    0.57301   -0.54166    9    diag
   14      0.743D-08      0.129D-08      -129.84718241    154.567194    0.00000    0.57301   -0.54166    9    diag
   15      0.133D-08      0.362D-09      -129.84718241    154.567195    0.00000    0.57301   -0.54166    9    diag
   16      0.407D-09      0.106D-09      -129.84718241    154.567194    0.00000    0.57301   -0.54166    9    diag
   17      0.746D-10      0.267D-10      -129.84718241    154.567194    0.00000    0.57301   -0.54166    9    diag
   18      0.204D-10      0.890D-11      -129.84718241    154.567194    0.00000    0.57301   -0.54166    9    diag
   19      0.195D-10      0.210D-11      -129.84718241    154.567194    0.00000    0.57301   -0.54166    9    fixocc
   20      0.108D-10      0.525D-12      -129.84718241    154.567194    0.00000    0.57301   -0.54166    9    orth
   21      0.833D-11      0.350D-12      -129.84718241    154.567194    0.00000    0.57301   -0.54166    9    diag
   22      0.680D-11      0.322D-12      -129.84718241    154.567194    0.00000    0.57301   -0.54166    9    diag
   23      0.427D-11      0.266D-12      -129.84718241    154.567194    0.00000    0.57301   -0.54166    9    diag
   24      0.200D-11      0.288D-12      -129.84718241    154.567194    0.00000    0.57301   -0.54166    9    diag
   25      0.115D-11      0.287D-12      -129.84718241    154.567194    0.00000    0.57301   -0.54166    0    orth

 Final occupancy:   7   1

 !RHF STATE 1.1 Energy               -129.847182409275
 Nuclear energy                        30.06330826
 One-electron energy                 -237.19408791
 Two-electron energy                   77.28359724
 Virial quotient                       -1.00210130
 !RHF STATE 1.1 Dipole moment           0.00000000     0.57300875    -0.54166117
 Dipole moment /Debye                   0.00000000     1.45634759    -1.37667518

 Orbital energies:

         1.1          2.1          3.1          4.1          5.1          6.1          7.1          8.1          9.1
    -20.654091   -15.714936    -1.517822    -0.997201    -0.742722    -0.661675    -0.435792     0.022762     0.065535

         1.2          2.2          3.2
     -0.589209     0.057181     0.090459

 HOMO      7.1    -0.435792 =     -11.8585eV
 LUMO      8.1     0.022762 =       0.6194eV
 LUMO-HOMO         0.458554 =      12.4779eV


 **********************************************************************************************************************************
 DATASETS  * FILE   NREC   LENGTH (MB)   RECORD NAMES
              1      19     6374.22       500      610      700      900      950      970     1000      129      960     1100   
                                          VAR    BASINP    GEOM    SYMINP    ZMAT    AOBASIS   BASIS     P2S    ABASIS      S 
                                         1400     1410     1200     1210     1080     1600     1650     1300     1700   
                                           T        V       H0       H01     AOSYM     SMH    MOLCAS    ERIS     OPER   

              2       4        4.02       700     1000      520     2100   
                                         GEOM     BASIS   MCVARS     RHF  

 PROGRAMS   *        TOTAL        HF       INT
 CPU TIMES  *       209.70     83.97    125.64
 REAL TIME  *       337.38 SEC
 DISK USED  *        21.32 GB      
 **********************************************************************************************************************************


 PROGRAM * CCSD (Closed-shell coupled cluster)     Authors: C. Hampel, H.-J. Werner, 1991, M. Deegan, P.J. Knowles, 1992


 Convergence thresholds:  THRVAR = 1.00D-08  THRDEN = 1.00D-12

 CCSD(T)     terms to be evaluated (factor= 1.000)


 Number of core orbitals:           2 (   2   0 )
 Number of closed-shell orbitals:   6 (   5   1 )
 Number of external orbitals:     326 ( 197 129 )

 Molecular orbitals read from record     2100.2  Type=RHF/CANONICAL (state 1.1)

 Number of N-1 electron functions:               6
 Number of N-2 electron functions:              21
 Number of singly external CSFs:              1114
 Number of doubly external CSFs:            975958
 Total number of CSFs:                      977073

 Length of J-op  integral file:               0.00 MB
 Length of K-op  integral file:               4.07 MB
 Length of 3-ext integral record:             0.00 MB

 Memory could be reduced to 151.33 Mwords without degradation in triples

 Integral transformation finished. Total CPU:  10.74 sec, npass=  1  Memory used:  41.21 MW

 Reference energy:                   -129.84718241

 MP2 singlet pair energy:              -0.31270158
 MP2 triplet pair energy:              -0.17304891
 MP2 correlation energy:               -0.48575049
 MP2 total energy:                   -130.33293290

 SCS-MP2 correlation energy:           -0.48291678   (PS=  1.200000  PT=  0.333333)
 SCS-MP2 total energy:               -130.33009919

 ITER.      SQ.NORM     CORR.ENERGY   TOTAL ENERGY   ENERGY CHANGE        DEN1      VAR(S)    VAR(P)  DIIS     TIME  TIME/IT
   1      1.12216285    -0.48213068  -130.32931309     0.00361982     0.02094105  0.33D-02  0.34D-02  1  1    19.71     9.82
   2      1.13316266    -0.48188311  -130.32906552     0.00024756    -0.01307091  0.11D-03  0.51D-03  2  2    28.72     9.96
   3      1.13958544    -0.48228501  -130.32946742    -0.00040189    -0.00308661  0.51D-04  0.60D-04  3  3    37.67    10.03
   4      1.14254213    -0.48228415  -130.32946656     0.00000086    -0.00101276  0.50D-05  0.11D-04  4  4    46.62    10.05
   5      1.14376695    -0.48231598  -130.32949838    -0.00003183    -0.00027094  0.12D-05  0.17D-05  5  5    55.65    10.07
   6      1.14414560    -0.48230286  -130.32948527     0.00001312    -0.00005427  0.13D-06  0.40D-06  6  6    64.56    10.09
   7      1.14422059    -0.48230261  -130.32948502     0.00000025     0.00000428  0.17D-07  0.93D-07  6  1    73.64    10.10
   8      1.14424615    -0.48230244  -130.32948485     0.00000017    -0.00000328  0.31D-08  0.20D-07  6  2    82.84    10.11
   9      1.14425104    -0.48230202  -130.32948443     0.00000042     0.00000142  0.25D-08  0.25D-08  6  4    91.95    10.13
  10      1.14425378    -0.48230234  -130.32948475    -0.00000033    -0.00000088  0.52D-09  0.31D-09  6  3   101.05    10.17
  11      1.14425365    -0.48230243  -130.32948484    -0.00000009    -0.00000014  0.17D-09  0.43D-10  6  5   109.94    10.17
  12      1.14425267    -0.48230258  -130.32948499    -0.00000015     0.00000040  0.21D-10  0.12D-10  6  6   119.04    10.17
  13      1.14425176    -0.48230263  -130.32948504    -0.00000005     0.00000022  0.60D-11  0.28D-11  6  1   128.13    10.17
  14      1.14425102    -0.48230266  -130.32948507    -0.00000004     0.00000018  0.35D-12  0.55D-12  6  4   137.12    10.17
  15      1.14425079    -0.48230267  -130.32948508    -0.00000001     0.00000004  0.83D-13  0.47D-13  6  2   146.15    10.17
  16      1.14425074    -0.48230267  -130.32948508    -0.00000000     0.00000001  0.23D-13  0.82D-14  6  3   155.01    10.17
  17      1.14425071    -0.48230268  -130.32948508    -0.00000000     0.00000001  0.47D-14  0.12D-14  6  5   164.00    10.16
  18      1.14425070    -0.48230268  -130.32948508    -0.00000000     0.00000000  0.10D-14  0.30D-15  6  6   173.04    10.16
  19      1.14425070    -0.48230268  -130.32948508    -0.00000000     0.00000000  0.13D-15  0.57D-16  6  1   182.13    10.16
  20      1.14425070    -0.48230268  -130.32948508     0.00000000    -0.00000000  0.15D-16  0.85D-17  6  4   190.98    10.15
  21      1.14425070    -0.48230267  -130.32948508     0.00000000    -0.00000000  0.12D-17  0.12D-17  6  3   200.00    10.15
  22      1.14425070    -0.48230267  -130.32948508     0.00000000    -0.00000000  0.33D-18  0.22D-18  6  2   208.91    10.15
  23      1.14425070    -0.48230267  -130.32948508     0.00000000    -0.00000000  0.93D-19  0.95D-19  6  5   217.88    10.15
  24      1.14425070    -0.48230267  -130.32948508     0.00000000    -0.00000000  0.38D-19  0.52D-19  6  6   226.88    10.15
  25      1.14425070    -0.48230267  -130.32948508     0.00000000     0.00000000  0.18D-19  0.33D-19  6  4   235.85    10.15

 Norm of t1 vector:      0.07850224      S-energy:     0.00000000      T1 diagnostic:  0.01602420
                                                                       D1 diagnostic:  0.04409489

 Doubles amplitudes (print threshold =  0.500E-01):

         I         J         SYM. A    SYM. B    A         B      T(IJ, AB)

         6         6         2         2         1         1     -0.09032479
         6         6         2         2         1         2      0.05248045
         6         6         2         2         2         1      0.05248045


 Total CPU time for triples:     90.23 sec


 RESULTS
 =======

  Reference energy                   -129.847182409275
  CCSD singlet pair energy             -0.334873106112
  CCSD triplet pair energy             -0.147429568845
  CCSD correlation energy              -0.482302674956

  Triples (T) contribution             -0.023392421239
  Total correlation energy             -0.505695096196

  CCSD total energy                  -130.329485084231
  CCSD[T] energy                     -130.354018500138
  CCSD-T energy                      -130.352483624692
 !CCSD(T) total energy               -130.352877505470

 Timing summary (sec):

 STEP                 CPU(USER)    SYS     CPU(TOT)    WALL
 Transformation         10.79      1.47     12.26     12.28
 CCSD iterations       225.07     28.46    253.53    253.70
 Triples                90.23      1.78     92.01     92.01

 Program statistics:

 Available memory in ccsd:               994999756
 Min. memory needed in ccsd:               3348832
 Max. memory used in ccsd:                 4143652
 Max. memory used in cckext:               8340089 (25 integral passes)



 **********************************************************************************************************************************
 DATASETS  * FILE   NREC   LENGTH (MB)   RECORD NAMES
              1      20     6809.41       500      610      700      900      950      970     1000      129      960     1100   
                                          VAR    BASINP    GEOM    SYMINP    ZMAT    AOBASIS   BASIS     P2S    ABASIS      S 
                                         1400     1410     1200     1210     1080     1600     1650     1300     1700     1380   
                                           T        V       H0       H01     AOSYM     SMH    MOLCAS    ERIS     OPER     JKOP   

              2       4        4.02       700     1000      520     2100   
                                         GEOM     BASIS   MCVARS     RHF  

 PROGRAMS   *        TOTAL   CCSD(T)        HF       INT
 CPU TIMES  *       535.81    326.11     83.97    125.64
 REAL TIME  *       695.41 SEC
 DISK USED  *        21.32 GB      
 **********************************************************************************************************************************

 CCSD(T)/aug-cc-pV5Z energy=   -130.352877505470

        CCSD(T)         HF-SCF  
   -130.35287751   -129.84718241
 **********************************************************************************************************************************
 Molpro calculation terminated
 Variable memory released
