
 Primary working directories    : /tmp/r2666/234655.maple
 Secondary working directories  : /tmp/r2666/234655.maple
 Wavefunction directory         : /ddn/home4/r2666/wfu/
 Main file repository           : /tmp/r2666/234655.maple/

 SHA1      : d5ffa45e93fdbca01ffc919aa182cfdae0147319
 NAME      : 2015.1.35
 ARCHNAME  : linux/x86_64
 FC        : /opt/intel/composer_xe_2015.1.133/bin/intel64/ifort
 BLASLIB   : -Wl,-_start-group /opt/intel/mkl/lib/intel64/libmkl_intel_ilp64.a /opt/intel/mkl/lib/intel64/libmkl_intel_thread.a /opt/intel/mkl/lib/intel64/libmkl_core.a -Wl,-_end-group
 id        : olemiss

 Nodes     nprocs
 cn075        1

 Using customized tuning parameters: mindgm=1; mindgv=20; mindgc=4; mindgr=1; noblas=0; minvec=7
 default implementation of scratch files=df  

 ***,hno CCSD(T)/TZ-F12 QFF
 memory, 995, m;
 gthresh,energy=1.d-12,zero=1.d-22,oneint=1.d-22,twoint=1.d-22;
 gthresh,optgrad=1.d-8,optstep=1.d-8;
 nocompress;
 geomtyp=xyz
 bohr
 geometry={
 3
         27        27
 N        0.0000000000       -0.1570667161       -1.1471222939
 H        0.0000000000        1.6619439394       -1.9256392902
 O        0.0000000000        0.0368905667        1.1221719931
 }
 
 basis=av5z
   {hf,maxit=500;accu,20;}
 {ccsd(t),nocheck,maxit=250;orbital,IGNORE_ERROR;}

 Variables initialized (889), CPU time= 0.01 sec
 Commands  initialized (702), CPU time= 0.01 sec, 572 directives.
 Default parameters read. Elapsed time= 0.06 sec

 Checking input...
 Passed
1


                                         ***  PROGRAM SYSTEM MOLPRO  ***
                                       Copyright, TTI GmbH Stuttgart, 2015
                                    Version 2015.1 linked Jul  9 2018 13:16:40


 **********************************************************************************************************************************
 LABEL *   hno CCSD(T)/TZ-F12 QFF                                                        
  64 bit serial version                                                                  DATE: 08-Feb-20          TIME: 17:24:42  
 **********************************************************************************************************************************

 SHA1:             d5ffa45e93fdbca01ffc919aa182cfdae0147319
 **********************************************************************************************************************************

 THRESHOLDS:

 ZERO    =  1.00D-22  ONEINT  =  1.00D-22  TWOINT  =  1.00D-22  PREFAC  =  1.00D-14  LOCALI  =  1.00D-09  EORDER  =  1.00D-04
 ENERGY  =  1.00D-12  ETEST   =  0.00D+00  EDENS   =  0.00D+00  THRDEDEF=  1.00D-06  GRADIENT=  1.00D-02  STEP    =  1.00D-03
 ORBITAL =  1.00D-05  CIVEC   =  1.00D-05  COEFF   =  1.00D-04  PRINTCI =  5.00D-02  PUNCHCI =  9.90D+01  OPTGRAD =  3.00D-04
 OPTENERG=  1.00D-06  OPTSTEP =  3.00D-04  THRGRAD =  1.00D-10  COMPRESS=  1.00D-11  VARMIN  =  1.00D-07  VARMAX  =  1.00D-03
 THRDOUB =  0.00D+00  THRDIV  =  1.00D-05  THRRED  =  1.00D-07  THRPSP  =  1.00D+00  THRDC   =  1.00D-10  THRCS   =  1.00D-10
 THRNRM  =  1.00D-08  THREQ   =  0.00D+00  THRDE   =  1.00D+00  THRREF  =  1.00D-05  SPARFAC =  1.00D+00  THRDLP  =  1.00D-07
 THRDIA  =  1.00D-10  THRDLS  =  1.00D-07  THRGPS  =  0.00D+00  THRKEX  =  0.00D+00  THRDIS  =  2.00D-01  THRVAR  =  1.00D-10
 THRLOC  =  1.00D-06  THRGAP  =  1.00D-06  THRLOCT = -1.00D+00  THRGAPT = -1.00D+00  THRORB  =  1.00D-06  THRMLTP =  0.00D+00
 THRCPQCI=  1.00D-10  KEXTA   =  0.00D+00  THRCOARS=  0.00D+00  SYMTOL  =  1.00D-06  GRADTOL =  1.00D-06  THROVL  =  1.00D-08
 THRORTH =  1.00D-08  GRID    =  1.00D-06  GRIDMAX =  1.00D-03  DTMAX   =  0.00D+00  THROCCDE=  1.00D-01  THROCCDE=  1.00D-01



 THRESHOLDS:

 ZERO    =  1.00D-22  ONEINT  =  1.00D-22  TWOINT  =  1.00D-22  PREFAC  =  1.00D-14  LOCALI  =  1.00D-09  EORDER  =  1.00D-04
 ENERGY  =  1.00D-12  ETEST   =  0.00D+00  EDENS   =  0.00D+00  THRDEDEF=  1.00D-06  GRADIENT=  1.00D-02  STEP    =  1.00D-03
 ORBITAL =  1.00D-05  CIVEC   =  1.00D-05  COEFF   =  1.00D-04  PRINTCI =  5.00D-02  PUNCHCI =  9.90D+01  OPTGRAD =  1.00D-08
 OPTENERG=  1.00D-06  OPTSTEP =  1.00D-08  THRGRAD =  1.00D-10  COMPRESS=  1.00D-11  VARMIN  =  1.00D-07  VARMAX  =  1.00D-03
 THRDOUB =  0.00D+00  THRDIV  =  1.00D-05  THRRED  =  1.00D-07  THRPSP  =  1.00D+00  THRDC   =  1.00D-10  THRCS   =  1.00D-10
 THRNRM  =  1.00D-08  THREQ   =  0.00D+00  THRDE   =  1.00D+00  THRREF  =  1.00D-05  SPARFAC =  1.00D+00  THRDLP  =  1.00D-07
 THRDIA  =  1.00D-10  THRDLS  =  1.00D-07  THRGPS  =  0.00D+00  THRKEX  =  0.00D+00  THRDIS  =  2.00D-01  THRVAR  =  1.00D-10
 THRLOC  =  1.00D-06  THRGAP  =  1.00D-06  THRLOCT = -1.00D+00  THRGAPT = -1.00D+00  THRORB  =  1.00D-06  THRMLTP =  0.00D+00
 THRCPQCI=  1.00D-10  KEXTA   =  0.00D+00  THRCOARS=  0.00D+00  SYMTOL  =  1.00D-06  GRADTOL =  1.00D-06  THROVL  =  1.00D-08
 THRORTH =  1.00D-08  GRID    =  1.00D-06  GRIDMAX =  1.00D-03  DTMAX   =  0.00D+00  THROCCDE=  1.00D-01  THROCCDE=  1.00D-01



 Input parameters for SORTINT:

 COMPRESS =    0.000000
 C_FINAL  =    1.000000
 DEBUG    =   -1.000000
 C_SORT1  =    0.000000
 C_SEWARD =    0.000000
 THRESH   =    0.000000
 IO       =  molpro                                                          
 SPRI     =    0.000000
 SETTING GEOMTYP        =    XYZ
 ZUNIT=BOHR
 

 Variable memory set to  995000000 words,  buffer space   230000 words

 SETTING BASIS          =    AV5Z


 Recomputing integrals since basis changed


 Using spherical harmonics

 Library entry N      S aug-cc-pV5Z          selected for orbital group  1
 Library entry N      P aug-cc-pV5Z          selected for orbital group  1
 Library entry N      D aug-cc-pV5Z          selected for orbital group  1
 Library entry N      F aug-cc-pV5Z          selected for orbital group  1
 Library entry N      G aug-cc-pV5Z          selected for orbital group  1
 Library entry N      H aug-cc-pV5Z          selected for orbital group  1
 Library entry H      S aug-cc-pV5Z          selected for orbital group  2
 Library entry H      P aug-cc-pV5Z          selected for orbital group  2
 Library entry H      D aug-cc-pV5Z          selected for orbital group  2
 Library entry H      F aug-cc-pV5Z          selected for orbital group  2
 Library entry H      G aug-cc-pV5Z          selected for orbital group  2
 Library entry O      S aug-cc-pV5Z          selected for orbital group  3
 Library entry O      P aug-cc-pV5Z          selected for orbital group  3
 Library entry O      D aug-cc-pV5Z          selected for orbital group  3
 Library entry O      F aug-cc-pV5Z          selected for orbital group  3
 Library entry O      G aug-cc-pV5Z          selected for orbital group  3
 Library entry O      H aug-cc-pV5Z          selected for orbital group  3


 PROGRAM * SEWARD (Integral evaluation for generally contracted gaussian basis sets)     Author: Roland Lindh, 1990

 Geometry written to block  1 of record 700


 Point group  Cs  



 ATOMIC COORDINATES

 NR  ATOM    CHARGE       X              Y              Z

   1  N       7.00    0.000000000   -0.157066716   -1.147122294
   2  H       1.00    0.000000000    1.661943939   -1.925639290
   3  O       8.00    0.000000000    0.036890567    1.122171993

 Bond lengths in Bohr (Angstrom)

 1-2  1.978607712  1-3  2.277567999
     ( 1.047034111)     ( 1.205237081)

 Bond angles

  2-1-3  108.28518867

 NUCLEAR CHARGE:                   16
 NUMBER OF PRIMITIVE AOS:         506
 NUMBER OF SYMMETRY AOS:          371
 NUMBER OF CONTRACTIONS:          334   ( 204A'  + 130A"  )
 NUMBER OF CORE ORBITALS:           2   (   2A'  +   0A"  )
 NUMBER OF VALENCE ORBITALS:        9   (   7A'  +   2A"  )


 NUCLEAR REPULSION ENERGY   30.44164268


 Eigenvalues of metric

         1 0.111E-04 0.170E-04 0.628E-04 0.987E-04 0.104E-03 0.135E-03 0.198E-03 0.223E-03
         2 0.126E-03 0.357E-03 0.111E-02 0.155E-02 0.188E-02 0.249E-02 0.321E-02 0.385E-02


 Contracted 2-electron integrals neglected if value below      1.0D-22

      756977448. INTEGRALS WRITTEN OUT IN  184855 BLOCKS ON RECORD 1290 OF FILE 1


 NUMBER OF SORTED TWO-ELECTRON INTEGRALS:  789027325.     BUFFER LENGTH:  32768
 NUMBER OF SEGMENTS:  25  SEGMENT LENGTH:   31997130      RECORD LENGTH: 524288

 Memory used in sort:      32.55 MW

 SORT1 READ   756977448. AND WROTE   760993337. INTEGRALS IN   2189 RECORDS. CPU TIME:    12.66 SEC, REAL TIME:    17.31 SEC
 SORT2 READ   760993337. AND WROTE   789027325. INTEGRALS IN     25 RECORDS. CPU TIME:     7.85 SEC, REAL TIME:    11.08 SEC

 FILE SIZES:   FILE 1: 12137.5 MBYTE,  FILE 4:  9181.4 MBYTE,   TOTAL:  21318.9 MBYTE

 OPERATOR DM      FOR CENTER  0  COORDINATES:    0.000000    0.000000    0.000000


 **********************************************************************************************************************************
 DATASETS  * FILE   NREC   LENGTH (MB)   RECORD NAMES
              1      19     6374.22       500      610      700      900      950      970     1000      129      960     1100   
                                          VAR    BASINP    GEOM    SYMINP    ZMAT    AOBASIS   BASIS     P2S    ABASIS      S 
                                         1400     1410     1200     1210     1080     1600     1650     1300     1700   
                                           T        V       H0       H01     AOSYM     SMH    MOLCAS    ERIS     OPER   

 PROGRAMS   *        TOTAL       INT
 CPU TIMES  *       104.91    104.80
 REAL TIME  *       119.35 SEC
 DISK USED  *        21.32 GB      
 **********************************************************************************************************************************


 PROGRAM * RHF-SCF (CLOSED SHELL)       Authors: W. Meyer, H.-J. Werner


 NUMBER OF ELECTRONS:       8+    8-
 CONVERGENCE THRESHOLDS:    1.00E-10 (Density)    1.00E-13 (Energy)
 MAX. NUMBER OF ITERATIONS:      500
 INTERPOLATION TYPE:            DIIS
 INTERPOLATION STEPS:              2 (START)      1 (STEP)
 LEVEL SHIFTS:                  0.00 (CLOSED)  0.00 (OPEN) 



 Orbital guess generated from atomic densities. Full valence occupancy:    9   2

 Molecular orbital dump at record        2100.2

 Initial occupancy:   7   1

 ITERATION    DDIFF          GRAD             ENERGY        2-EL.EN.            DIPOLE MOMENTS         DIIS   ORB.
    1      0.000D+00      0.000D+00      -129.79969594    154.112524    0.00000    0.59811   -1.01987    0    start
    2      0.000D+00      0.638D-02      -129.82700745    155.332846    0.00000    0.60916   -0.21131    1    diag
    3      0.397D-02      0.482D-02      -129.84933020    155.455387    0.00000    0.55741   -0.59130    2    diag
    4      0.205D-02      0.767D-03      -129.85012971    155.173377    0.00000    0.56482   -0.53007    3    diag
    5      0.377D-03      0.248D-03      -129.85025384    155.266494    0.00000    0.57001   -0.53259    4    diag
    6      0.155D-03      0.716D-04      -129.85027362    155.250280    0.00000    0.57029   -0.52844    5    diag
    7      0.594D-04      0.356D-04      -129.85027935    155.253069    0.00000    0.57151   -0.52584    6    diag
    8      0.407D-04      0.124D-04      -129.85028000    155.252374    0.00000    0.57156   -0.52484    7    diag
    9      0.155D-04      0.239D-05      -129.85028003    155.252267    0.00000    0.57152   -0.52462    8    diag
   10      0.311D-05      0.542D-06      -129.85028003    155.252249    0.00000    0.57149   -0.52459    9    orth
   11      0.614D-06      0.109D-06      -129.85028003    155.252245    0.00000    0.57148   -0.52459    9    diag
   12      0.115D-06      0.221D-07      -129.85028003    155.252245    0.00000    0.57148   -0.52459    9    diag
   13      0.248D-07      0.575D-08      -129.85028003    155.252245    0.00000    0.57148   -0.52459    9    diag
   14      0.664D-08      0.112D-08      -129.85028003    155.252245    0.00000    0.57148   -0.52459    9    diag
   15      0.122D-08      0.319D-09      -129.85028003    155.252245    0.00000    0.57148   -0.52459    9    diag
   16      0.365D-09      0.968D-10      -129.85028003    155.252245    0.00000    0.57148   -0.52459    9    diag
   17      0.708D-10      0.254D-10      -129.85028003    155.252245    0.00000    0.57148   -0.52459    9    diag
   18      0.232D-10      0.865D-11      -129.85028003    155.252245    0.00000    0.57148   -0.52459    9    diag
   19      0.118D-10      0.213D-11      -129.85028003    155.252245    0.00000    0.57148   -0.52459    9    fixocc
   20      0.147D-10      0.520D-12      -129.85028003    155.252245    0.00000    0.57148   -0.52459    9    orth
   21      0.115D-10      0.303D-12      -129.85028003    155.252245    0.00000    0.57148   -0.52459    0    orth

 Final occupancy:   7   1

 !RHF STATE 1.1 Energy               -129.850280028250
 Nuclear energy                        30.44164268
 One-electron energy                 -237.91804536
 Two-electron energy                   77.62612265
 Virial quotient                       -1.00156234
 !RHF STATE 1.1 Dipole moment           0.00000000     0.57148165    -0.52458604
 Dipole moment /Debye                   0.00000000     1.45246632    -1.33327739

 Orbital energies:

         1.1          2.1          3.1          4.1          5.1          6.1          7.1          8.1          9.1
    -20.652600   -15.711005    -1.531546    -0.995070    -0.748557    -0.666906    -0.429958     0.022879     0.065546

         1.2          2.2          3.2
     -0.597257     0.060713     0.091799

 HOMO      7.1    -0.429958 =     -11.6998eV
 LUMO      8.1     0.022879 =       0.6226eV
 LUMO-HOMO         0.452837 =      12.3223eV


 **********************************************************************************************************************************
 DATASETS  * FILE   NREC   LENGTH (MB)   RECORD NAMES
              1      19     6374.22       500      610      700      900      950      970     1000      129      960     1100   
                                          VAR    BASINP    GEOM    SYMINP    ZMAT    AOBASIS   BASIS     P2S    ABASIS      S 
                                         1400     1410     1200     1210     1080     1600     1650     1300     1700   
                                           T        V       H0       H01     AOSYM     SMH    MOLCAS    ERIS     OPER   

              2       4        4.02       700     1000      520     2100   
                                         GEOM     BASIS   MCVARS     RHF  

 PROGRAMS   *        TOTAL        HF       INT
 CPU TIMES  *       171.26     66.35    104.80
 REAL TIME  *       205.00 SEC
 DISK USED  *        21.32 GB      
 **********************************************************************************************************************************


 PROGRAM * CCSD (Closed-shell coupled cluster)     Authors: C. Hampel, H.-J. Werner, 1991, M. Deegan, P.J. Knowles, 1992


 Convergence thresholds:  THRVAR = 1.00D-08  THRDEN = 1.00D-12

 CCSD(T)     terms to be evaluated (factor= 1.000)


 Number of core orbitals:           2 (   2   0 )
 Number of closed-shell orbitals:   6 (   5   1 )
 Number of external orbitals:     326 ( 197 129 )

 Molecular orbitals read from record     2100.2  Type=RHF/CANONICAL (state 1.1)

 Number of N-1 electron functions:               6
 Number of N-2 electron functions:              21
 Number of singly external CSFs:              1114
 Number of doubly external CSFs:            975958
 Total number of CSFs:                      977073

 Length of J-op  integral file:               0.00 MB
 Length of K-op  integral file:               4.07 MB
 Length of 3-ext integral record:             0.00 MB

 Memory could be reduced to 151.33 Mwords without degradation in triples

 Integral transformation finished. Total CPU:   9.96 sec, npass=  1  Memory used:  41.21 MW

 Reference energy:                   -129.85028003

 MP2 singlet pair energy:              -0.31078460
 MP2 triplet pair energy:              -0.17175874
 MP2 correlation energy:               -0.48254333
 MP2 total energy:                   -130.33282336

 SCS-MP2 correlation energy:           -0.47981362   (PS=  1.200000  PT=  0.333333)
 SCS-MP2 total energy:               -130.33009365

 ITER.      SQ.NORM     CORR.ENERGY   TOTAL ENERGY   ENERGY CHANGE        DEN1      VAR(S)    VAR(P)  DIIS     TIME  TIME/IT
   1      1.12012875    -0.47966336  -130.32994338     0.00287998     0.01938183  0.31D-02  0.32D-02  1  1    17.90     8.76
   2      1.13065831    -0.47957537  -130.32985539     0.00008799    -0.01257813  0.10D-03  0.48D-03  2  2    25.91     8.89
   3      1.13673149    -0.47994956  -130.33022959    -0.00037420    -0.00297598  0.47D-04  0.56D-04  3  3    33.97     8.93
   4      1.13948074    -0.47994828  -130.33022830     0.00000128    -0.00095660  0.43D-05  0.98D-05  4  4    42.09     8.95
   5      1.14058485    -0.47997664  -130.33025667    -0.00002836    -0.00024523  0.11D-05  0.17D-05  5  5    50.16     8.97
   6      1.14093421    -0.47996535  -130.33024538     0.00001129    -0.00004935  0.11D-06  0.41D-06  6  6    58.21     8.98
   7      1.14100909    -0.47996505  -130.33024508     0.00000030     0.00000330  0.16D-07  0.92D-07  6  1    66.26     8.98
   8      1.14103391    -0.47996512  -130.33024515    -0.00000007    -0.00000297  0.35D-08  0.19D-07  6  2    74.31     8.99
   9      1.14104224    -0.47996459  -130.33024462     0.00000053    -0.00000020  0.22D-08  0.19D-08  6  3    82.29     8.99
  10      1.14103770    -0.47996532  -130.33024535    -0.00000073     0.00000157  0.35D-09  0.32D-09  6  5    90.32     9.00
  11      1.14103959    -0.47996530  -130.33024533     0.00000001    -0.00000035  0.97D-10  0.27D-10  6  4    98.38     9.00
  12      1.14103915    -0.47996537  -130.33024540    -0.00000007     0.00000005  0.18D-10  0.61D-11  6  6   106.50     9.01
  13      1.14103895    -0.47996537  -130.33024540    -0.00000000    -0.00000003  0.30D-11  0.90D-12  6  1   114.40     9.01
  14      1.14103869    -0.47996538  -130.33024541    -0.00000001     0.00000004  0.44D-12  0.16D-12  6  3   122.45     9.01
  15      1.14103861    -0.47996539  -130.33024542    -0.00000000     0.00000001  0.12D-12  0.22D-13  6  2   130.45     9.01
  16      1.14103860    -0.47996539  -130.33024542     0.00000000     0.00000000  0.31D-13  0.84D-14  6  4   138.55     9.01
  17      1.14103860    -0.47996539  -130.33024542    -0.00000000    -0.00000000  0.18D-14  0.11D-14  6  5   146.65     9.01
  18      1.14103861    -0.47996539  -130.33024542     0.00000000    -0.00000000  0.27D-15  0.29D-15  6  6   154.69     9.01
  19      1.14103861    -0.47996539  -130.33024542     0.00000000    -0.00000000  0.51D-16  0.40D-16  6  1   162.78     9.01
  20      1.14103861    -0.47996539  -130.33024542     0.00000000    -0.00000000  0.11D-16  0.59D-17  6  3   170.70     9.01
  21      1.14103861    -0.47996539  -130.33024542    -0.00000000     0.00000000  0.21D-17  0.10D-17  6  2   178.85     9.01
  22      1.14103861    -0.47996539  -130.33024542    -0.00000000     0.00000000  0.38D-18  0.16D-18  6  4   186.92     9.02
  23      1.14103861    -0.47996539  -130.33024542    -0.00000000     0.00000000  0.96D-19  0.47D-19  6  5   195.09     9.02
  24      1.14103861    -0.47996539  -130.33024542    -0.00000000     0.00000000  0.41D-19  0.23D-19  6  6   203.06     9.02
  25      1.14103861    -0.47996539  -130.33024542    -0.00000000     0.00000000  0.19D-19  0.11D-19  6  1   211.19     9.02

 Norm of t1 vector:      0.07561605      S-energy:    -0.00000000      T1 diagnostic:  0.01543506
                                                                       D1 diagnostic:  0.04183840

 Doubles amplitudes (print threshold =  0.500E-01):

         I         J         SYM. A    SYM. B    A         B      T(IJ, AB)

         6         6         2         2         1         1     -0.07714758
         6         6         2         2         1         2      0.05305028
         6         6         2         2         2         1      0.05305028


 Total CPU time for triples:     83.86 sec


 RESULTS
 =======

  Reference energy                   -129.850280028250
  CCSD singlet pair energy             -0.332856291527
  CCSD triplet pair energy             -0.147109096198
  CCSD correlation energy              -0.479965387727

  Triples (T) contribution             -0.022797276115
  Total correlation energy             -0.502762663842

  CCSD total energy                  -130.330245415977
  CCSD[T] energy                     -130.354104544335
  CCSD-T energy                      -130.352667979216
 !CCSD(T) total energy               -130.353042692092

 Timing summary (sec):

 STEP                 CPU(USER)    SYS     CPU(TOT)    WALL
 Transformation         10.01      1.34     11.35     11.35
 CCSD iterations       201.19     24.24    225.43    225.51
 Triples                83.86      1.78     85.64     85.67

 Program statistics:

 Available memory in ccsd:               994999756
 Min. memory needed in ccsd:               3348832
 Max. memory used in ccsd:                 4143652
 Max. memory used in cckext:               8340089 (25 integral passes)



 **********************************************************************************************************************************
 DATASETS  * FILE   NREC   LENGTH (MB)   RECORD NAMES
              1      20     6809.41       500      610      700      900      950      970     1000      129      960     1100   
                                          VAR    BASINP    GEOM    SYMINP    ZMAT    AOBASIS   BASIS     P2S    ABASIS      S 
                                         1400     1410     1200     1210     1080     1600     1650     1300     1700     1380   
                                           T        V       H0       H01     AOSYM     SMH    MOLCAS    ERIS     OPER     JKOP   

              2       4        4.02       700     1000      520     2100   
                                         GEOM     BASIS   MCVARS     RHF  

 PROGRAMS   *        TOTAL   CCSD(T)        HF       INT
 CPU TIMES  *       466.34    295.08     66.35    104.80
 REAL TIME  *       527.57 SEC
 DISK USED  *        21.32 GB      
 **********************************************************************************************************************************

 CCSD(T)/aug-cc-pV5Z energy=   -130.353042692092

        CCSD(T)         HF-SCF  
   -130.35304269   -129.85028003
 **********************************************************************************************************************************
 Molpro calculation terminated
 Variable memory released
