
 Primary working directories    : /tmp/r2666/234734.maple
 Secondary working directories  : /tmp/r2666/234734.maple
 Wavefunction directory         : /ddn/home4/r2666/wfu/
 Main file repository           : /tmp/r2666/234734.maple/

 SHA1      : d5ffa45e93fdbca01ffc919aa182cfdae0147319
 NAME      : 2015.1.35
 ARCHNAME  : linux/x86_64
 FC        : /opt/intel/composer_xe_2015.1.133/bin/intel64/ifort
 BLASLIB   : -Wl,-_start-group /opt/intel/mkl/lib/intel64/libmkl_intel_ilp64.a /opt/intel/mkl/lib/intel64/libmkl_intel_thread.a /opt/intel/mkl/lib/intel64/libmkl_core.a -Wl,-_end-group
 id        : olemiss

 Nodes     nprocs
 cn035        1

 Using customized tuning parameters: mindgm=1; mindgv=20; mindgc=4; mindgr=1; noblas=0; minvec=7
 default implementation of scratch files=df  

 ***,hno CCSD(T)/TZ-F12 QFF
 memory, 995, m;
 gthresh,energy=1.d-12,zero=1.d-22,oneint=1.d-22,twoint=1.d-22;
 gthresh,optgrad=1.d-8,optstep=1.d-8;
 nocompress;
 geomtyp=xyz
 bohr
 geometry={
 3
        106       106
 N        0.0000000000       -0.1710593382       -1.1597289942
 H        0.0000000000        1.6727967252       -1.9279873691
 O        0.0000000000        0.0400304029        1.1371267723
 }
 
 basis=av5z
   {hf,maxit=500;accu,20;}
 {ccsd(t),nocheck,maxit=250;orbital,IGNORE_ERROR;}

 Variables initialized (889), CPU time= 0.00 sec
 Commands  initialized (702), CPU time= 0.01 sec, 572 directives.
 Default parameters read. Elapsed time= 0.05 sec

 Checking input...
 Passed
1


                                         ***  PROGRAM SYSTEM MOLPRO  ***
                                       Copyright, TTI GmbH Stuttgart, 2015
                                    Version 2015.1 linked Jul  9 2018 13:16:40


 **********************************************************************************************************************************
 LABEL *   hno CCSD(T)/TZ-F12 QFF                                                        
  64 bit serial version                                                                  DATE: 08-Feb-20          TIME: 17:40:44  
 **********************************************************************************************************************************

 SHA1:             d5ffa45e93fdbca01ffc919aa182cfdae0147319
 **********************************************************************************************************************************

 THRESHOLDS:

 ZERO    =  1.00D-22  ONEINT  =  1.00D-22  TWOINT  =  1.00D-22  PREFAC  =  1.00D-14  LOCALI  =  1.00D-09  EORDER  =  1.00D-04
 ENERGY  =  1.00D-12  ETEST   =  0.00D+00  EDENS   =  0.00D+00  THRDEDEF=  1.00D-06  GRADIENT=  1.00D-02  STEP    =  1.00D-03
 ORBITAL =  1.00D-05  CIVEC   =  1.00D-05  COEFF   =  1.00D-04  PRINTCI =  5.00D-02  PUNCHCI =  9.90D+01  OPTGRAD =  3.00D-04
 OPTENERG=  1.00D-06  OPTSTEP =  3.00D-04  THRGRAD =  1.00D-10  COMPRESS=  1.00D-11  VARMIN  =  1.00D-07  VARMAX  =  1.00D-03
 THRDOUB =  0.00D+00  THRDIV  =  1.00D-05  THRRED  =  1.00D-07  THRPSP  =  1.00D+00  THRDC   =  1.00D-10  THRCS   =  1.00D-10
 THRNRM  =  1.00D-08  THREQ   =  0.00D+00  THRDE   =  1.00D+00  THRREF  =  1.00D-05  SPARFAC =  1.00D+00  THRDLP  =  1.00D-07
 THRDIA  =  1.00D-10  THRDLS  =  1.00D-07  THRGPS  =  0.00D+00  THRKEX  =  0.00D+00  THRDIS  =  2.00D-01  THRVAR  =  1.00D-10
 THRLOC  =  1.00D-06  THRGAP  =  1.00D-06  THRLOCT = -1.00D+00  THRGAPT = -1.00D+00  THRORB  =  1.00D-06  THRMLTP =  0.00D+00
 THRCPQCI=  1.00D-10  KEXTA   =  0.00D+00  THRCOARS=  0.00D+00  SYMTOL  =  1.00D-06  GRADTOL =  1.00D-06  THROVL  =  1.00D-08
 THRORTH =  1.00D-08  GRID    =  1.00D-06  GRIDMAX =  1.00D-03  DTMAX   =  0.00D+00  THROCCDE=  1.00D-01  THROCCDE=  1.00D-01



 THRESHOLDS:

 ZERO    =  1.00D-22  ONEINT  =  1.00D-22  TWOINT  =  1.00D-22  PREFAC  =  1.00D-14  LOCALI  =  1.00D-09  EORDER  =  1.00D-04
 ENERGY  =  1.00D-12  ETEST   =  0.00D+00  EDENS   =  0.00D+00  THRDEDEF=  1.00D-06  GRADIENT=  1.00D-02  STEP    =  1.00D-03
 ORBITAL =  1.00D-05  CIVEC   =  1.00D-05  COEFF   =  1.00D-04  PRINTCI =  5.00D-02  PUNCHCI =  9.90D+01  OPTGRAD =  1.00D-08
 OPTENERG=  1.00D-06  OPTSTEP =  1.00D-08  THRGRAD =  1.00D-10  COMPRESS=  1.00D-11  VARMIN  =  1.00D-07  VARMAX  =  1.00D-03
 THRDOUB =  0.00D+00  THRDIV  =  1.00D-05  THRRED  =  1.00D-07  THRPSP  =  1.00D+00  THRDC   =  1.00D-10  THRCS   =  1.00D-10
 THRNRM  =  1.00D-08  THREQ   =  0.00D+00  THRDE   =  1.00D+00  THRREF  =  1.00D-05  SPARFAC =  1.00D+00  THRDLP  =  1.00D-07
 THRDIA  =  1.00D-10  THRDLS  =  1.00D-07  THRGPS  =  0.00D+00  THRKEX  =  0.00D+00  THRDIS  =  2.00D-01  THRVAR  =  1.00D-10
 THRLOC  =  1.00D-06  THRGAP  =  1.00D-06  THRLOCT = -1.00D+00  THRGAPT = -1.00D+00  THRORB  =  1.00D-06  THRMLTP =  0.00D+00
 THRCPQCI=  1.00D-10  KEXTA   =  0.00D+00  THRCOARS=  0.00D+00  SYMTOL  =  1.00D-06  GRADTOL =  1.00D-06  THROVL  =  1.00D-08
 THRORTH =  1.00D-08  GRID    =  1.00D-06  GRIDMAX =  1.00D-03  DTMAX   =  0.00D+00  THROCCDE=  1.00D-01  THROCCDE=  1.00D-01



 Input parameters for SORTINT:

 COMPRESS =    0.000000
 C_FINAL  =    1.000000
 DEBUG    =   -1.000000
 C_SORT1  =    0.000000
 C_SEWARD =    0.000000
 THRESH   =    0.000000
 IO       =  molpro                                                          
 SPRI     =    0.000000
 SETTING GEOMTYP        =    XYZ
 ZUNIT=BOHR
 

 Variable memory set to  995000000 words,  buffer space   230000 words

 SETTING BASIS          =    AV5Z


 Recomputing integrals since basis changed


 Using spherical harmonics

 Library entry N      S aug-cc-pV5Z          selected for orbital group  1
 Library entry N      P aug-cc-pV5Z          selected for orbital group  1
 Library entry N      D aug-cc-pV5Z          selected for orbital group  1
 Library entry N      F aug-cc-pV5Z          selected for orbital group  1
 Library entry N      G aug-cc-pV5Z          selected for orbital group  1
 Library entry N      H aug-cc-pV5Z          selected for orbital group  1
 Library entry H      S aug-cc-pV5Z          selected for orbital group  2
 Library entry H      P aug-cc-pV5Z          selected for orbital group  2
 Library entry H      D aug-cc-pV5Z          selected for orbital group  2
 Library entry H      F aug-cc-pV5Z          selected for orbital group  2
 Library entry H      G aug-cc-pV5Z          selected for orbital group  2
 Library entry O      S aug-cc-pV5Z          selected for orbital group  3
 Library entry O      P aug-cc-pV5Z          selected for orbital group  3
 Library entry O      D aug-cc-pV5Z          selected for orbital group  3
 Library entry O      F aug-cc-pV5Z          selected for orbital group  3
 Library entry O      G aug-cc-pV5Z          selected for orbital group  3
 Library entry O      H aug-cc-pV5Z          selected for orbital group  3


 PROGRAM * SEWARD (Integral evaluation for generally contracted gaussian basis sets)     Author: Roland Lindh, 1990

 Geometry written to block  1 of record 700


 Point group  Cs  



 ATOMIC COORDINATES

 NR  ATOM    CHARGE       X              Y              Z

   1  N       7.00    0.000000000   -0.171059338   -1.159728994
   2  H       1.00    0.000000000    1.672796725   -1.927987369
   3  O       8.00    0.000000000    0.040030403    1.137126772

 Bond lengths in Bohr (Angstrom)

 1-2  1.997504972  1-3  2.306535344
     ( 1.057034110)     ( 1.220565940)

 Bond angles

  2-1-3  107.36851968

 NUCLEAR CHARGE:                   16
 NUMBER OF PRIMITIVE AOS:         506
 NUMBER OF SYMMETRY AOS:          371
 NUMBER OF CONTRACTIONS:          334   ( 204A'  + 130A"  )
 NUMBER OF CORE ORBITALS:           2   (   2A'  +   0A"  )
 NUMBER OF VALENCE ORBITALS:        9   (   7A'  +   2A"  )


 NUCLEAR REPULSION ENERGY   30.08677855


 Eigenvalues of metric

         1 0.116E-04 0.180E-04 0.651E-04 0.104E-03 0.109E-03 0.142E-03 0.205E-03 0.225E-03
         2 0.132E-03 0.372E-03 0.118E-02 0.167E-02 0.200E-02 0.265E-02 0.335E-02 0.401E-02


 Contracted 2-electron integrals neglected if value below      1.0D-22

      756977523. INTEGRALS WRITTEN OUT IN  184855 BLOCKS ON RECORD 1290 OF FILE 1


 NUMBER OF SORTED TWO-ELECTRON INTEGRALS:  789027325.     BUFFER LENGTH:  32768
 NUMBER OF SEGMENTS:  25  SEGMENT LENGTH:   31997130      RECORD LENGTH: 524288

 Memory used in sort:      32.55 MW

 SORT1 READ   756977523. AND WROTE   760993405. INTEGRALS IN   2189 RECORDS. CPU TIME:    25.74 SEC, REAL TIME:   118.92 SEC
 SORT2 READ   760993405. AND WROTE   789027325. INTEGRALS IN     25 RECORDS. CPU TIME:     9.38 SEC, REAL TIME:    14.84 SEC

 FILE SIZES:   FILE 1: 12137.5 MBYTE,  FILE 4:  9181.4 MBYTE,   TOTAL:  21318.9 MBYTE

 OPERATOR DM      FOR CENTER  0  COORDINATES:    0.000000    0.000000    0.000000


 **********************************************************************************************************************************
 DATASETS  * FILE   NREC   LENGTH (MB)   RECORD NAMES
              1      19     6374.22       500      610      700      900      950      970     1000      129      960     1100   
                                          VAR    BASINP    GEOM    SYMINP    ZMAT    AOBASIS   BASIS     P2S    ABASIS      S 
                                         1400     1410     1200     1210     1080     1600     1650     1300     1700   
                                           T        V       H0       H01     AOSYM     SMH    MOLCAS    ERIS     OPER   

 PROGRAMS   *        TOTAL       INT
 CPU TIMES  *       138.24    138.15
 REAL TIME  *       279.75 SEC
 DISK USED  *        21.32 GB      
 **********************************************************************************************************************************


 PROGRAM * RHF-SCF (CLOSED SHELL)       Authors: W. Meyer, H.-J. Werner


 NUMBER OF ELECTRONS:       8+    8-
 CONVERGENCE THRESHOLDS:    1.00E-10 (Density)    1.00E-13 (Energy)
 MAX. NUMBER OF ITERATIONS:      500
 INTERPOLATION TYPE:            DIIS
 INTERPOLATION STEPS:              2 (START)      1 (STEP)
 LEVEL SHIFTS:                  0.00 (CLOSED)  0.00 (OPEN) 



 Orbital guess generated from atomic densities. Full valence occupancy:    9   2

 Molecular orbital dump at record        2100.2

 Initial occupancy:   7   1

 ITERATION    DDIFF          GRAD             ENERGY        2-EL.EN.            DIPOLE MOMENTS         DIIS   ORB.
    1      0.000D+00      0.000D+00      -129.79410841    153.473997    0.00000    0.59027   -1.06917    0    start
    2      0.000D+00      0.653D-02      -129.82085361    154.669431    0.00000    0.61877   -0.19498    1    diag
    3      0.413D-02      0.514D-02      -129.84641417    154.825525    0.00000    0.55746   -0.60946    2    diag
    4      0.216D-02      0.779D-03      -129.84724750    154.530636    0.00000    0.56490   -0.54589    3    diag
    5      0.384D-03      0.255D-03      -129.84738012    154.625768    0.00000    0.57014   -0.54810    4    diag
    6      0.160D-03      0.741D-04      -129.84740155    154.609163    0.00000    0.57033   -0.54362    5    diag
    7      0.620D-04      0.373D-04      -129.84740798    154.611863    0.00000    0.57154   -0.54080    6    diag
    8      0.429D-04      0.137D-04      -129.84740880    154.611093    0.00000    0.57158   -0.53966    7    diag
    9      0.176D-04      0.268D-05      -129.84740884    154.610969    0.00000    0.57154   -0.53941    8    diag
   10      0.366D-05      0.586D-06      -129.84740884    154.610950    0.00000    0.57151   -0.53938    9    orth
   11      0.665D-06      0.116D-06      -129.84740884    154.610947    0.00000    0.57150   -0.53938    9    diag
   12      0.120D-06      0.243D-07      -129.84740884    154.610947    0.00000    0.57150   -0.53938    9    diag
   13      0.263D-07      0.660D-08      -129.84740884    154.610946    0.00000    0.57150   -0.53938    9    diag
   14      0.743D-08      0.127D-08      -129.84740884    154.610946    0.00000    0.57150   -0.53938    9    diag
   15      0.133D-08      0.357D-09      -129.84740884    154.610946    0.00000    0.57150   -0.53938    9    diag
   16      0.402D-09      0.104D-09      -129.84740884    154.610946    0.00000    0.57150   -0.53938    9    diag
   17      0.726D-10      0.263D-10      -129.84740884    154.610946    0.00000    0.57150   -0.53938    9    diag
   18      0.241D-10      0.875D-11      -129.84740884    154.610946    0.00000    0.57150   -0.53938    0    orth

 Final occupancy:   7   1

 !RHF STATE 1.1 Energy               -129.847408840180
 Nuclear energy                        30.08677855
 One-electron energy                 -237.23966056
 Two-electron energy                   77.30547317
 Virial quotient                       -1.00210253
 !RHF STATE 1.1 Dipole moment           0.00000000     0.57149632    -0.53937540
 Dipole moment /Debye                   0.00000000     1.45250361    -1.37086572

 Orbital energies:

         1.1          2.1          3.1          4.1          5.1          6.1          7.1          8.1          9.1
    -20.654017   -15.715152    -1.519467    -0.995571    -0.742846    -0.662370    -0.434622     0.022765     0.065540

         1.2          2.2          3.2
     -0.590313     0.057670     0.090672

 HOMO      7.1    -0.434622 =     -11.8267eV
 LUMO      8.1     0.022765 =       0.6195eV
 LUMO-HOMO         0.457387 =      12.4461eV


 **********************************************************************************************************************************
 DATASETS  * FILE   NREC   LENGTH (MB)   RECORD NAMES
              1      19     6374.22       500      610      700      900      950      970     1000      129      960     1100   
                                          VAR    BASINP    GEOM    SYMINP    ZMAT    AOBASIS   BASIS     P2S    ABASIS      S 
                                         1400     1410     1200     1210     1080     1600     1650     1300     1700   
                                           T        V       H0       H01     AOSYM     SMH    MOLCAS    ERIS     OPER   

              2       4        4.02       700     1000      520     2100   
                                         GEOM     BASIS   MCVARS     RHF  

 PROGRAMS   *        TOTAL        HF       INT
 CPU TIMES  *       210.81     72.57    138.15
 REAL TIME  *       371.20 SEC
 DISK USED  *        21.32 GB      
 **********************************************************************************************************************************


 PROGRAM * CCSD (Closed-shell coupled cluster)     Authors: C. Hampel, H.-J. Werner, 1991, M. Deegan, P.J. Knowles, 1992


 Convergence thresholds:  THRVAR = 1.00D-08  THRDEN = 1.00D-12

 CCSD(T)     terms to be evaluated (factor= 1.000)


 Number of core orbitals:           2 (   2   0 )
 Number of closed-shell orbitals:   6 (   5   1 )
 Number of external orbitals:     326 ( 197 129 )

 Molecular orbitals read from record     2100.2  Type=RHF/CANONICAL (state 1.1)

 Number of N-1 electron functions:               6
 Number of N-2 electron functions:              21
 Number of singly external CSFs:              1114
 Number of doubly external CSFs:            975958
 Total number of CSFs:                      977073

 Length of J-op  integral file:               0.00 MB
 Length of K-op  integral file:               4.07 MB
 Length of 3-ext integral record:             0.00 MB

 Memory could be reduced to 151.33 Mwords without degradation in triples

 Integral transformation finished. Total CPU:  13.66 sec, npass=  1  Memory used:  41.21 MW

 Reference energy:                   -129.84740884

 MP2 singlet pair energy:              -0.31256972
 MP2 triplet pair energy:              -0.17295165
 MP2 correlation energy:               -0.48552138
 MP2 total energy:                   -130.33293022

 SCS-MP2 correlation energy:           -0.48269803   (PS=  1.200000  PT=  0.333333)
 SCS-MP2 total energy:               -130.33010687

 ITER.      SQ.NORM     CORR.ENERGY   TOTAL ENERGY   ENERGY CHANGE        DEN1      VAR(S)    VAR(P)  DIIS     TIME  TIME/IT
   1      1.12208326    -0.48198640  -130.32939524     0.00353497     0.02079775  0.33D-02  0.34D-02  1  1    24.41    11.67
   2      1.13305610    -0.48175615  -130.32916499     0.00023025    -0.01303682  0.11D-03  0.51D-03  2  2    35.47    11.91
   3      1.13946379    -0.48215815  -130.32956699    -0.00040200    -0.00308325  0.52D-04  0.60D-04  3  3    46.47    11.97
   4      1.14240422    -0.48215644  -130.32956528     0.00000171    -0.00100973  0.50D-05  0.11D-04  4  4    57.54    12.02
   5      1.14362221    -0.48218812  -130.32959696    -0.00003168    -0.00026955  0.12D-05  0.17D-05  5  5    68.51    12.03
   6      1.14399956    -0.48217521  -130.32958405     0.00001291    -0.00005393  0.13D-06  0.40D-06  6  6    79.57    12.06
   7      1.14407561    -0.48217485  -130.32958369     0.00000036     0.00000404  0.18D-07  0.93D-07  6  1    90.49    12.06
   8      1.14410142    -0.48217470  -130.32958354     0.00000015    -0.00000328  0.32D-08  0.20D-07  6  2   101.41    12.05
   9      1.14410994    -0.48217409  -130.32958293     0.00000061    -0.00000008  0.22D-08  0.23D-08  6  3   112.27    12.05
  10      1.14410505    -0.48217486  -130.32958370    -0.00000078     0.00000168  0.36D-09  0.38D-09  6  5   123.11    12.05
  11      1.14410728    -0.48217483  -130.32958367     0.00000003    -0.00000044  0.11D-09  0.31D-10  6  4   134.04    12.05
  12      1.14410683    -0.48217491  -130.32958375    -0.00000007     0.00000005  0.19D-10  0.71D-11  6  6   145.00    12.04
  13      1.14410662    -0.48217491  -130.32958375    -0.00000000    -0.00000004  0.32D-11  0.98D-12  6  1   155.89    12.05
  14      1.14410633    -0.48217492  -130.32958376    -0.00000001     0.00000004  0.42D-12  0.18D-12  6  3   166.81    12.05
  15      1.14410625    -0.48217493  -130.32958377    -0.00000000     0.00000001  0.12D-12  0.23D-13  6  2   177.75    12.05
  16      1.14410624    -0.48217493  -130.32958377     0.00000000     0.00000000  0.34D-13  0.89D-14  6  4   188.77    12.05
  17      1.14410624    -0.48217493  -130.32958377    -0.00000000    -0.00000000  0.21D-14  0.11D-14  6  5   199.76    12.05
  18      1.14410625    -0.48217493  -130.32958377     0.00000000    -0.00000000  0.29D-15  0.29D-15  6  6   210.70    12.06
  19      1.14410625    -0.48217493  -130.32958377     0.00000000    -0.00000000  0.51D-16  0.38D-16  6  1   221.69    12.06
  20      1.14410625    -0.48217493  -130.32958377     0.00000000    -0.00000000  0.11D-16  0.61D-17  6  3   232.68    12.06
  21      1.14410625    -0.48217493  -130.32958377    -0.00000000     0.00000000  0.22D-17  0.12D-17  6  2   243.62    12.06
  22      1.14410625    -0.48217493  -130.32958377    -0.00000000     0.00000000  0.38D-18  0.18D-18  6  4   254.54    12.07
  23      1.14410625    -0.48217493  -130.32958377    -0.00000000     0.00000000  0.85D-19  0.50D-19  6  5   265.51    12.07
  24      1.14410625    -0.48217493  -130.32958377    -0.00000000     0.00000000  0.30D-19  0.21D-19  6  6   276.65    12.07
  25      1.14410625    -0.48217493  -130.32958377     0.00000000     0.00000000  0.13D-19  0.99D-20  6  1   287.56    12.07

 Norm of t1 vector:      0.07836191      S-energy:    -0.00000000      T1 diagnostic:  0.01599556
                                                                       D1 diagnostic:  0.04381257

 Doubles amplitudes (print threshold =  0.500E-01):

         I         J         SYM. A    SYM. B    A         B      T(IJ, AB)

         6         6         2         2         1         1     -0.08863434
         6         6         2         2         1         2      0.05259457
         6         6         2         2         2         1      0.05259457


 Total CPU time for triples:    115.09 sec


 RESULTS
 =======

  Reference energy                   -129.847408840180
  CCSD singlet pair energy             -0.334761643568
  CCSD triplet pair energy             -0.147413281868
  CCSD correlation energy              -0.482174925437

  Triples (T) contribution             -0.023351967481
  Total correlation energy             -0.505526892918

  CCSD total energy                  -130.329583765617
  CCSD[T] energy                     -130.354072176861
  CCSD-T energy                      -130.352542221836
 !CCSD(T) total energy               -130.352935733098

 Timing summary (sec):

 STEP                 CPU(USER)    SYS     CPU(TOT)    WALL
 Transformation         13.73      1.58     15.31     15.31
 CCSD iterations       273.84     27.94    301.78    301.79
 Triples               115.09      2.23    117.32    117.32

 Program statistics:

 Available memory in ccsd:               994999756
 Min. memory needed in ccsd:               3348832
 Max. memory used in ccsd:                 4143652
 Max. memory used in cckext:               8340089 (25 integral passes)



 **********************************************************************************************************************************
 DATASETS  * FILE   NREC   LENGTH (MB)   RECORD NAMES
              1      20     6809.41       500      610      700      900      950      970     1000      129      960     1100   
                                          VAR    BASINP    GEOM    SYMINP    ZMAT    AOBASIS   BASIS     P2S    ABASIS      S 
                                         1400     1410     1200     1210     1080     1600     1650     1300     1700     1380   
                                           T        V       H0       H01     AOSYM     SMH    MOLCAS    ERIS     OPER     JKOP   

              2       4        4.02       700     1000      520     2100   
                                         GEOM     BASIS   MCVARS     RHF  

 PROGRAMS   *        TOTAL   CCSD(T)        HF       INT
 CPU TIMES  *       613.48    402.67     72.57    138.15
 REAL TIME  *       805.67 SEC
 DISK USED  *        21.32 GB      
 **********************************************************************************************************************************

 CCSD(T)/aug-cc-pV5Z energy=   -130.352935733098

        CCSD(T)         HF-SCF  
   -130.35293573   -129.84740884
 **********************************************************************************************************************************
 Molpro calculation terminated
 Variable memory released
