
 Primary working directories    : /tmp/r2666/234749.maple
 Secondary working directories  : /tmp/r2666/234749.maple
 Wavefunction directory         : /ddn/home4/r2666/wfu/
 Main file repository           : /tmp/r2666/234749.maple/

 SHA1      : d5ffa45e93fdbca01ffc919aa182cfdae0147319
 NAME      : 2015.1.35
 ARCHNAME  : linux/x86_64
 FC        : /opt/intel/composer_xe_2015.1.133/bin/intel64/ifort
 BLASLIB   : -Wl,-_start-group /opt/intel/mkl/lib/intel64/libmkl_intel_ilp64.a /opt/intel/mkl/lib/intel64/libmkl_intel_thread.a /opt/intel/mkl/lib/intel64/libmkl_core.a -Wl,-_end-group
 id        : olemiss

 Nodes     nprocs
 cn091        1

 Using customized tuning parameters: mindgm=1; mindgv=20; mindgc=4; mindgr=1; noblas=0; minvec=7
 default implementation of scratch files=df  

 ***,hno CCSD(T)/TZ-F12 QFF
 memory, 995, m;
 gthresh,energy=1.d-12,zero=1.d-22,oneint=1.d-22,twoint=1.d-22;
 gthresh,optgrad=1.d-8,optstep=1.d-8;
 nocompress;
 geomtyp=xyz
 bohr
 geometry={
 3
        121       121
 N        0.0000000000       -0.1705889230       -1.1464711288
 H        0.0000000000        1.6758915977       -1.9328377399
 O        0.0000000000        0.0364651152        1.1287192777
 }
 
 basis=av5z
   {hf,maxit=500;accu,20;}
 {ccsd(t),nocheck,maxit=250;orbital,IGNORE_ERROR;}

 Variables initialized (889), CPU time= 0.01 sec
 Commands  initialized (702), CPU time= 0.01 sec, 572 directives.
 Default parameters read. Elapsed time= 0.04 sec

 Checking input...
 Passed
1


                                         ***  PROGRAM SYSTEM MOLPRO  ***
                                       Copyright, TTI GmbH Stuttgart, 2015
                                    Version 2015.1 linked Jul  9 2018 13:16:40


 **********************************************************************************************************************************
 LABEL *   hno CCSD(T)/TZ-F12 QFF                                                        
  64 bit serial version                                                                  DATE: 08-Feb-20          TIME: 17:43:03  
 **********************************************************************************************************************************

 SHA1:             d5ffa45e93fdbca01ffc919aa182cfdae0147319
 **********************************************************************************************************************************

 THRESHOLDS:

 ZERO    =  1.00D-22  ONEINT  =  1.00D-22  TWOINT  =  1.00D-22  PREFAC  =  1.00D-14  LOCALI  =  1.00D-09  EORDER  =  1.00D-04
 ENERGY  =  1.00D-12  ETEST   =  0.00D+00  EDENS   =  0.00D+00  THRDEDEF=  1.00D-06  GRADIENT=  1.00D-02  STEP    =  1.00D-03
 ORBITAL =  1.00D-05  CIVEC   =  1.00D-05  COEFF   =  1.00D-04  PRINTCI =  5.00D-02  PUNCHCI =  9.90D+01  OPTGRAD =  3.00D-04
 OPTENERG=  1.00D-06  OPTSTEP =  3.00D-04  THRGRAD =  1.00D-10  COMPRESS=  1.00D-11  VARMIN  =  1.00D-07  VARMAX  =  1.00D-03
 THRDOUB =  0.00D+00  THRDIV  =  1.00D-05  THRRED  =  1.00D-07  THRPSP  =  1.00D+00  THRDC   =  1.00D-10  THRCS   =  1.00D-10
 THRNRM  =  1.00D-08  THREQ   =  0.00D+00  THRDE   =  1.00D+00  THRREF  =  1.00D-05  SPARFAC =  1.00D+00  THRDLP  =  1.00D-07
 THRDIA  =  1.00D-10  THRDLS  =  1.00D-07  THRGPS  =  0.00D+00  THRKEX  =  0.00D+00  THRDIS  =  2.00D-01  THRVAR  =  1.00D-10
 THRLOC  =  1.00D-06  THRGAP  =  1.00D-06  THRLOCT = -1.00D+00  THRGAPT = -1.00D+00  THRORB  =  1.00D-06  THRMLTP =  0.00D+00
 THRCPQCI=  1.00D-10  KEXTA   =  0.00D+00  THRCOARS=  0.00D+00  SYMTOL  =  1.00D-06  GRADTOL =  1.00D-06  THROVL  =  1.00D-08
 THRORTH =  1.00D-08  GRID    =  1.00D-06  GRIDMAX =  1.00D-03  DTMAX   =  0.00D+00  THROCCDE=  1.00D-01  THROCCDE=  1.00D-01



 THRESHOLDS:

 ZERO    =  1.00D-22  ONEINT  =  1.00D-22  TWOINT  =  1.00D-22  PREFAC  =  1.00D-14  LOCALI  =  1.00D-09  EORDER  =  1.00D-04
 ENERGY  =  1.00D-12  ETEST   =  0.00D+00  EDENS   =  0.00D+00  THRDEDEF=  1.00D-06  GRADIENT=  1.00D-02  STEP    =  1.00D-03
 ORBITAL =  1.00D-05  CIVEC   =  1.00D-05  COEFF   =  1.00D-04  PRINTCI =  5.00D-02  PUNCHCI =  9.90D+01  OPTGRAD =  1.00D-08
 OPTENERG=  1.00D-06  OPTSTEP =  1.00D-08  THRGRAD =  1.00D-10  COMPRESS=  1.00D-11  VARMIN  =  1.00D-07  VARMAX  =  1.00D-03
 THRDOUB =  0.00D+00  THRDIV  =  1.00D-05  THRRED  =  1.00D-07  THRPSP  =  1.00D+00  THRDC   =  1.00D-10  THRCS   =  1.00D-10
 THRNRM  =  1.00D-08  THREQ   =  0.00D+00  THRDE   =  1.00D+00  THRREF  =  1.00D-05  SPARFAC =  1.00D+00  THRDLP  =  1.00D-07
 THRDIA  =  1.00D-10  THRDLS  =  1.00D-07  THRGPS  =  0.00D+00  THRKEX  =  0.00D+00  THRDIS  =  2.00D-01  THRVAR  =  1.00D-10
 THRLOC  =  1.00D-06  THRGAP  =  1.00D-06  THRLOCT = -1.00D+00  THRGAPT = -1.00D+00  THRORB  =  1.00D-06  THRMLTP =  0.00D+00
 THRCPQCI=  1.00D-10  KEXTA   =  0.00D+00  THRCOARS=  0.00D+00  SYMTOL  =  1.00D-06  GRADTOL =  1.00D-06  THROVL  =  1.00D-08
 THRORTH =  1.00D-08  GRID    =  1.00D-06  GRIDMAX =  1.00D-03  DTMAX   =  0.00D+00  THROCCDE=  1.00D-01  THROCCDE=  1.00D-01



 Input parameters for SORTINT:

 COMPRESS =    0.000000
 C_FINAL  =    1.000000
 DEBUG    =   -1.000000
 C_SORT1  =    0.000000
 C_SEWARD =    0.000000
 THRESH   =    0.000000
 IO       =  molpro                                                          
 SPRI     =    0.000000
 SETTING GEOMTYP        =    XYZ
 ZUNIT=BOHR
 

 Variable memory set to  995000000 words,  buffer space   230000 words

 SETTING BASIS          =    AV5Z


 Recomputing integrals since basis changed


 Using spherical harmonics

 Library entry N      S aug-cc-pV5Z          selected for orbital group  1
 Library entry N      P aug-cc-pV5Z          selected for orbital group  1
 Library entry N      D aug-cc-pV5Z          selected for orbital group  1
 Library entry N      F aug-cc-pV5Z          selected for orbital group  1
 Library entry N      G aug-cc-pV5Z          selected for orbital group  1
 Library entry N      H aug-cc-pV5Z          selected for orbital group  1
 Library entry H      S aug-cc-pV5Z          selected for orbital group  2
 Library entry H      P aug-cc-pV5Z          selected for orbital group  2
 Library entry H      D aug-cc-pV5Z          selected for orbital group  2
 Library entry H      F aug-cc-pV5Z          selected for orbital group  2
 Library entry H      G aug-cc-pV5Z          selected for orbital group  2
 Library entry O      S aug-cc-pV5Z          selected for orbital group  3
 Library entry O      P aug-cc-pV5Z          selected for orbital group  3
 Library entry O      D aug-cc-pV5Z          selected for orbital group  3
 Library entry O      F aug-cc-pV5Z          selected for orbital group  3
 Library entry O      G aug-cc-pV5Z          selected for orbital group  3
 Library entry O      H aug-cc-pV5Z          selected for orbital group  3


 PROGRAM * SEWARD (Integral evaluation for generally contracted gaussian basis sets)     Author: Roland Lindh, 1990

 Geometry written to block  1 of record 700


 Point group  Cs  



 ATOMIC COORDINATES

 NR  ATOM    CHARGE       X              Y              Z

   1  N       7.00    0.000000000   -0.170588923   -1.146471129
   2  H       1.00    0.000000000    1.675891598   -1.932837740
   3  O       8.00    0.000000000    0.036465115    1.128719278

 Bond lengths in Bohr (Angstrom)

 1-2  2.006953602  1-3  2.284592471
     ( 1.062034110)     ( 1.208954272)

 Bond angles

  2-1-3  107.86796887

 NUCLEAR CHARGE:                   16
 NUMBER OF PRIMITIVE AOS:         506
 NUMBER OF SYMMETRY AOS:          371
 NUMBER OF CONTRACTIONS:          334   ( 204A'  + 130A"  )
 NUMBER OF CORE ORBITALS:           2   (   2A'  +   0A"  )
 NUMBER OF VALENCE ORBITALS:        9   (   7A'  +   2A"  )


 NUCLEAR REPULSION ENERGY   30.30347161


 Eigenvalues of metric

         1 0.115E-04 0.175E-04 0.650E-04 0.101E-03 0.105E-03 0.138E-03 0.203E-03 0.225E-03
         2 0.128E-03 0.377E-03 0.114E-02 0.159E-02 0.202E-02 0.256E-02 0.337E-02 0.400E-02


 Contracted 2-electron integrals neglected if value below      1.0D-22

      756977495. INTEGRALS WRITTEN OUT IN  184855 BLOCKS ON RECORD 1290 OF FILE 1


 NUMBER OF SORTED TWO-ELECTRON INTEGRALS:  789027325.     BUFFER LENGTH:  32768
 NUMBER OF SEGMENTS:  25  SEGMENT LENGTH:   31997130      RECORD LENGTH: 524288

 Memory used in sort:      32.55 MW

 SORT1 READ   756977495. AND WROTE   760993377. INTEGRALS IN   2189 RECORDS. CPU TIME:    13.75 SEC, REAL TIME:    18.76 SEC
 SORT2 READ   760993377. AND WROTE   789027325. INTEGRALS IN     25 RECORDS. CPU TIME:     8.47 SEC, REAL TIME:    12.04 SEC

 FILE SIZES:   FILE 1: 12137.5 MBYTE,  FILE 4:  9181.4 MBYTE,   TOTAL:  21318.9 MBYTE

 OPERATOR DM      FOR CENTER  0  COORDINATES:    0.000000    0.000000    0.000000


 **********************************************************************************************************************************
 DATASETS  * FILE   NREC   LENGTH (MB)   RECORD NAMES
              1      19     6374.22       500      610      700      900      950      970     1000      129      960     1100   
                                          VAR    BASINP    GEOM    SYMINP    ZMAT    AOBASIS   BASIS     P2S    ABASIS      S 
                                         1400     1410     1200     1210     1080     1600     1650     1300     1700   
                                           T        V       H0       H01     AOSYM     SMH    MOLCAS    ERIS     OPER   

 PROGRAMS   *        TOTAL       INT
 CPU TIMES  *       115.20    115.11
 REAL TIME  *       130.48 SEC
 DISK USED  *        21.32 GB      
 **********************************************************************************************************************************


 PROGRAM * RHF-SCF (CLOSED SHELL)       Authors: W. Meyer, H.-J. Werner


 NUMBER OF ELECTRONS:       8+    8-
 CONVERGENCE THRESHOLDS:    1.00E-10 (Density)    1.00E-13 (Energy)
 MAX. NUMBER OF ITERATIONS:      500
 INTERPOLATION TYPE:            DIIS
 INTERPOLATION STEPS:              2 (START)      1 (STEP)
 LEVEL SHIFTS:                  0.00 (CLOSED)  0.00 (OPEN) 



 Orbital guess generated from atomic densities. Full valence occupancy:    9   2

 Molecular orbital dump at record        2100.2

 Initial occupancy:   7   1

 ITERATION    DDIFF          GRAD             ENERGY        2-EL.EN.            DIPOLE MOMENTS         DIIS   ORB.
    1      0.000D+00      0.000D+00      -129.79731343    153.855306    0.00000    0.58648   -1.03279    0    start
    2      0.000D+00      0.645D-02      -129.82449384    155.084226    0.00000    0.61055   -0.20153    1    diag
    3      0.404D-02      0.496D-02      -129.84816044    155.211258    0.00000    0.55236   -0.59352    2    diag
    4      0.209D-02      0.769D-03      -129.84897012    154.924414    0.00000    0.55979   -0.53178    3    diag
    5      0.378D-03      0.251D-03      -129.84909874    155.018992    0.00000    0.56515   -0.53428    4    diag
    6      0.158D-03      0.731D-04      -129.84911949    155.002500    0.00000    0.56540   -0.53000    5    diag
    7      0.610D-04      0.364D-04      -129.84912554    155.005335    0.00000    0.56666   -0.52735    6    diag
    8      0.418D-04      0.129D-04      -129.84912624    155.004611    0.00000    0.56670   -0.52631    7    diag
    9      0.162D-04      0.250D-05      -129.84912627    155.004495    0.00000    0.56667   -0.52608    8    diag
   10      0.329D-05      0.562D-06      -129.84912627    155.004476    0.00000    0.56663   -0.52605    9    orth
   11      0.637D-06      0.113D-06      -129.84912627    155.004472    0.00000    0.56663   -0.52605    9    diag
   12      0.119D-06      0.231D-07      -129.84912627    155.004472    0.00000    0.56662   -0.52605    9    diag
   13      0.260D-07      0.610D-08      -129.84912627    155.004472    0.00000    0.56662   -0.52605    9    diag
   14      0.712D-08      0.119D-08      -129.84912627    155.004472    0.00000    0.56662   -0.52605    9    diag
   15      0.130D-08      0.339D-09      -129.84912627    155.004472    0.00000    0.56662   -0.52605    9    diag
   16      0.386D-09      0.102D-09      -129.84912627    155.004472    0.00000    0.56662   -0.52605    9    diag
   17      0.768D-10      0.273D-10      -129.84912627    155.004472    0.00000    0.56662   -0.52605    9    diag
   18      0.224D-10      0.943D-11      -129.84912627    155.004472    0.00000    0.56662   -0.52605    0    orth

 Final occupancy:   7   1

 !RHF STATE 1.1 Energy               -129.849126268589
 Nuclear energy                        30.30347161
 One-electron energy                 -237.65483366
 Two-electron energy                   77.50223578
 Virial quotient                       -1.00183900
 !RHF STATE 1.1 Dipole moment           0.00000000     0.56662316    -0.52604600
 Dipole moment /Debye                   0.00000000     1.44011808    -1.33698798

 Orbital energies:

         1.1          2.1          3.1          4.1          5.1          6.1          7.1          8.1          9.1
    -20.653150   -15.713747    -1.528542    -0.991933    -0.745793    -0.665764    -0.430485     0.022861     0.065555

         1.2          2.2          3.2
     -0.595767     0.060059     0.091637

 HOMO      7.1    -0.430485 =     -11.7141eV
 LUMO      8.1     0.022861 =       0.6221eV
 LUMO-HOMO         0.453346 =      12.3362eV


 **********************************************************************************************************************************
 DATASETS  * FILE   NREC   LENGTH (MB)   RECORD NAMES
              1      19     6374.22       500      610      700      900      950      970     1000      129      960     1100   
                                          VAR    BASINP    GEOM    SYMINP    ZMAT    AOBASIS   BASIS     P2S    ABASIS      S 
                                         1400     1410     1200     1210     1080     1600     1650     1300     1700   
                                           T        V       H0       H01     AOSYM     SMH    MOLCAS    ERIS     OPER   

              2       4        4.02       700     1000      520     2100   
                                         GEOM     BASIS   MCVARS     RHF  

 PROGRAMS   *        TOTAL        HF       INT
 CPU TIMES  *       176.04     60.84    115.11
 REAL TIME  *       209.13 SEC
 DISK USED  *        21.32 GB      
 **********************************************************************************************************************************


 PROGRAM * CCSD (Closed-shell coupled cluster)     Authors: C. Hampel, H.-J. Werner, 1991, M. Deegan, P.J. Knowles, 1992


 Convergence thresholds:  THRVAR = 1.00D-08  THRDEN = 1.00D-12

 CCSD(T)     terms to be evaluated (factor= 1.000)


 Number of core orbitals:           2 (   2   0 )
 Number of closed-shell orbitals:   6 (   5   1 )
 Number of external orbitals:     326 ( 197 129 )

 Molecular orbitals read from record     2100.2  Type=RHF/CANONICAL (state 1.1)

 Number of N-1 electron functions:               6
 Number of N-2 electron functions:              21
 Number of singly external CSFs:              1114
 Number of doubly external CSFs:            975958
 Total number of CSFs:                      977073

 Length of J-op  integral file:               0.00 MB
 Length of K-op  integral file:               4.07 MB
 Length of 3-ext integral record:             0.00 MB

 Memory could be reduced to 151.33 Mwords without degradation in triples

 Integral transformation finished. Total CPU:  10.62 sec, npass=  1  Memory used:  41.21 MW

 Reference energy:                   -129.84912627

 MP2 singlet pair energy:              -0.31149395
 MP2 triplet pair energy:              -0.17221732
 MP2 correlation energy:               -0.48371127
 MP2 total energy:                   -130.33283754

 SCS-MP2 correlation energy:           -0.48095018   (PS=  1.200000  PT=  0.333333)
 SCS-MP2 total energy:               -130.33007645

 ITER.      SQ.NORM     CORR.ENERGY   TOTAL ENERGY   ENERGY CHANGE        DEN1      VAR(S)    VAR(P)  DIIS     TIME  TIME/IT
   1      1.12101932    -0.48064051  -130.32976678     0.00307076     0.01986292  0.32D-02  0.32D-02  1  1    19.44     9.74
   2      1.13173087    -0.48051078  -130.32963705     0.00012973    -0.01275609  0.11D-03  0.49D-03  2  2    28.49     9.88
   3      1.13794893    -0.48089908  -130.33002535    -0.00038830    -0.00302679  0.49D-04  0.57D-04  3  3    37.45     9.94
   4      1.14076508    -0.48089613  -130.33002240     0.00000295    -0.00097817  0.47D-05  0.10D-04  4  4    46.46     9.96
   5      1.14191218    -0.48092591  -130.33005218    -0.00002978    -0.00025475  0.12D-05  0.17D-05  5  5    55.37     9.97
   6      1.14227199    -0.48091416  -130.33004043     0.00001175    -0.00005093  0.13D-06  0.40D-06  6  6    64.36     9.98
   7      1.14234882    -0.48091363  -130.33003990     0.00000053     0.00000328  0.19D-07  0.91D-07  6  1    73.33     9.99
   8      1.14237450    -0.48091361  -130.33003988     0.00000002    -0.00000313  0.35D-08  0.19D-07  6  2    82.31     9.99
   9      1.14238331    -0.48091302  -130.33003929     0.00000059    -0.00000017  0.22D-08  0.20D-08  6  3    91.24     9.99
  10      1.14237876    -0.48091376  -130.33004003    -0.00000074     0.00000157  0.34D-09  0.33D-09  6  5   100.06     9.98
  11      1.14238074    -0.48091374  -130.33004001     0.00000002    -0.00000036  0.10D-09  0.28D-10  6  4   108.86     9.97
  12      1.14238029    -0.48091381  -130.33004008    -0.00000007     0.00000005  0.18D-10  0.65D-11  6  6   117.65     9.96
  13      1.14238007    -0.48091381  -130.33004008    -0.00000000    -0.00000003  0.32D-11  0.94D-12  6  1   126.60     9.96
  14      1.14237980    -0.48091382  -130.33004009    -0.00000001     0.00000004  0.46D-12  0.18D-12  6  3   135.67     9.97
  15      1.14237972    -0.48091383  -130.33004010    -0.00000000     0.00000001  0.13D-12  0.24D-13  6  2   144.66     9.97
  16      1.14237971    -0.48091383  -130.33004010     0.00000000     0.00000000  0.33D-13  0.95D-14  6  4   153.66     9.97
  17      1.14237971    -0.48091383  -130.33004010    -0.00000000    -0.00000000  0.19D-14  0.12D-14  6  5   162.68     9.97
  18      1.14237971    -0.48091383  -130.33004010     0.00000000    -0.00000000  0.28D-15  0.31D-15  6  6   171.54     9.96
  19      1.14237972    -0.48091383  -130.33004010     0.00000000    -0.00000000  0.54D-16  0.41D-16  6  1   180.47     9.97
  20      1.14237972    -0.48091383  -130.33004010     0.00000000    -0.00000000  0.11D-16  0.62D-17  6  3   189.42     9.96
  21      1.14237972    -0.48091383  -130.33004010    -0.00000000     0.00000000  0.22D-17  0.11D-17  6  2   198.39     9.96
  22      1.14237972    -0.48091383  -130.33004010    -0.00000000     0.00000000  0.48D-18  0.20D-18  6  4   207.41     9.96
  23      1.14237972    -0.48091383  -130.33004010    -0.00000000     0.00000000  0.98D-19  0.51D-19  6  5   216.44     9.96
  24      1.14237972    -0.48091383  -130.33004010    -0.00000000     0.00000000  0.40D-19  0.23D-19  6  6   225.38     9.96
  25      1.14237972    -0.48091383  -130.33004010     0.00000000    -0.00000000  0.20D-19  0.14D-19  6  1   234.40     9.97

 Norm of t1 vector:      0.07673310      S-energy:    -0.00000000      T1 diagnostic:  0.01566308
                                                                       D1 diagnostic:  0.04231419

 Doubles amplitudes (print threshold =  0.500E-01):

         I         J         SYM. A    SYM. B    A         B      T(IJ, AB)

         6         6         2         2         1         1     -0.08002398
         6         6         2         2         1         2      0.05294193
         6         6         2         2         2         1      0.05294193


 Total CPU time for triples:     89.31 sec


 RESULTS
 =======

  Reference energy                   -129.849126268589
  CCSD singlet pair energy             -0.333667941388
  CCSD triplet pair energy             -0.147245886438
  CCSD correlation energy              -0.480913827826

  Triples (T) contribution             -0.023014744166
  Total correlation energy             -0.503928571992

  CCSD total energy                  -130.330040096415
  CCSD[T] energy                     -130.354146132313
  CCSD-T energy                      -130.352671168680
 !CCSD(T) total energy               -130.353054840581

 Timing summary (sec):

 STEP                 CPU(USER)    SYS     CPU(TOT)    WALL
 Transformation         10.67      1.46     12.13     12.17
 CCSD iterations       223.74     25.46    249.20    249.21
 Triples                89.31      1.85     91.16     91.17

 Program statistics:

 Available memory in ccsd:               994999756
 Min. memory needed in ccsd:               3348832
 Max. memory used in ccsd:                 4143652
 Max. memory used in cckext:               8340089 (25 integral passes)



 **********************************************************************************************************************************
 DATASETS  * FILE   NREC   LENGTH (MB)   RECORD NAMES
              1      20     6809.41       500      610      700      900      950      970     1000      129      960     1100   
                                          VAR    BASINP    GEOM    SYMINP    ZMAT    AOBASIS   BASIS     P2S    ABASIS      S 
                                         1400     1410     1200     1210     1080     1600     1650     1300     1700     1380   
                                           T        V       H0       H01     AOSYM     SMH    MOLCAS    ERIS     OPER     JKOP   

              2       4        4.02       700     1000      520     2100   
                                         GEOM     BASIS   MCVARS     RHF  

 PROGRAMS   *        TOTAL   CCSD(T)        HF       INT
 CPU TIMES  *       499.78    323.73     60.84    115.11
 REAL TIME  *       561.72 SEC
 DISK USED  *        21.32 GB      
 **********************************************************************************************************************************

 CCSD(T)/aug-cc-pV5Z energy=   -130.353054840581

        CCSD(T)         HF-SCF  
   -130.35305484   -129.84912627
 **********************************************************************************************************************************
 Molpro calculation terminated
 Variable memory released
