
 Primary working directories    : /tmp/r2666/234670.maple
 Secondary working directories  : /tmp/r2666/234670.maple
 Wavefunction directory         : /ddn/home4/r2666/wfu/
 Main file repository           : /tmp/r2666/234670.maple/

 SHA1      : d5ffa45e93fdbca01ffc919aa182cfdae0147319
 NAME      : 2015.1.35
 ARCHNAME  : linux/x86_64
 FC        : /opt/intel/composer_xe_2015.1.133/bin/intel64/ifort
 BLASLIB   : -Wl,-_start-group /opt/intel/mkl/lib/intel64/libmkl_intel_ilp64.a /opt/intel/mkl/lib/intel64/libmkl_intel_thread.a /opt/intel/mkl/lib/intel64/libmkl_core.a -Wl,-_end-group
 id        : olemiss

 Nodes     nprocs
 cn033        1

 Using customized tuning parameters: mindgm=1; mindgv=20; mindgc=4; mindgr=1; noblas=0; minvec=7
 default implementation of scratch files=df  

 ***,hno CCSD(T)/TZ-F12 QFF
 memory, 995, m;
 gthresh,energy=1.d-12,zero=1.d-22,oneint=1.d-22,twoint=1.d-22;
 gthresh,optgrad=1.d-8,optstep=1.d-8;
 nocompress;
 geomtyp=xyz
 bohr
 geometry={
 3
         42        42
 N        0.0000000000       -0.1505436156       -1.1486938794
 H        0.0000000000        1.6637098651       -1.9382334832
 O        0.0000000000        0.0286015405        1.1363377716
 }
 
 basis=av5z
   {hf,maxit=500;accu,20;}
 {ccsd(t),nocheck,maxit=250;orbital,IGNORE_ERROR;}

 Variables initialized (889), CPU time= 0.01 sec
 Commands  initialized (702), CPU time= 0.00 sec, 572 directives.
 Default parameters read. Elapsed time= 0.04 sec

 Checking input...
 Passed
1


                                         ***  PROGRAM SYSTEM MOLPRO  ***
                                       Copyright, TTI GmbH Stuttgart, 2015
                                    Version 2015.1 linked Jul  9 2018 13:16:40


 **********************************************************************************************************************************
 LABEL *   hno CCSD(T)/TZ-F12 QFF                                                        
  64 bit serial version                                                                  DATE: 08-Feb-20          TIME: 17:24:42  
 **********************************************************************************************************************************

 SHA1:             d5ffa45e93fdbca01ffc919aa182cfdae0147319
 **********************************************************************************************************************************

 THRESHOLDS:

 ZERO    =  1.00D-22  ONEINT  =  1.00D-22  TWOINT  =  1.00D-22  PREFAC  =  1.00D-14  LOCALI  =  1.00D-09  EORDER  =  1.00D-04
 ENERGY  =  1.00D-12  ETEST   =  0.00D+00  EDENS   =  0.00D+00  THRDEDEF=  1.00D-06  GRADIENT=  1.00D-02  STEP    =  1.00D-03
 ORBITAL =  1.00D-05  CIVEC   =  1.00D-05  COEFF   =  1.00D-04  PRINTCI =  5.00D-02  PUNCHCI =  9.90D+01  OPTGRAD =  3.00D-04
 OPTENERG=  1.00D-06  OPTSTEP =  3.00D-04  THRGRAD =  1.00D-10  COMPRESS=  1.00D-11  VARMIN  =  1.00D-07  VARMAX  =  1.00D-03
 THRDOUB =  0.00D+00  THRDIV  =  1.00D-05  THRRED  =  1.00D-07  THRPSP  =  1.00D+00  THRDC   =  1.00D-10  THRCS   =  1.00D-10
 THRNRM  =  1.00D-08  THREQ   =  0.00D+00  THRDE   =  1.00D+00  THRREF  =  1.00D-05  SPARFAC =  1.00D+00  THRDLP  =  1.00D-07
 THRDIA  =  1.00D-10  THRDLS  =  1.00D-07  THRGPS  =  0.00D+00  THRKEX  =  0.00D+00  THRDIS  =  2.00D-01  THRVAR  =  1.00D-10
 THRLOC  =  1.00D-06  THRGAP  =  1.00D-06  THRLOCT = -1.00D+00  THRGAPT = -1.00D+00  THRORB  =  1.00D-06  THRMLTP =  0.00D+00
 THRCPQCI=  1.00D-10  KEXTA   =  0.00D+00  THRCOARS=  0.00D+00  SYMTOL  =  1.00D-06  GRADTOL =  1.00D-06  THROVL  =  1.00D-08
 THRORTH =  1.00D-08  GRID    =  1.00D-06  GRIDMAX =  1.00D-03  DTMAX   =  0.00D+00  THROCCDE=  1.00D-01  THROCCDE=  1.00D-01



 THRESHOLDS:

 ZERO    =  1.00D-22  ONEINT  =  1.00D-22  TWOINT  =  1.00D-22  PREFAC  =  1.00D-14  LOCALI  =  1.00D-09  EORDER  =  1.00D-04
 ENERGY  =  1.00D-12  ETEST   =  0.00D+00  EDENS   =  0.00D+00  THRDEDEF=  1.00D-06  GRADIENT=  1.00D-02  STEP    =  1.00D-03
 ORBITAL =  1.00D-05  CIVEC   =  1.00D-05  COEFF   =  1.00D-04  PRINTCI =  5.00D-02  PUNCHCI =  9.90D+01  OPTGRAD =  1.00D-08
 OPTENERG=  1.00D-06  OPTSTEP =  1.00D-08  THRGRAD =  1.00D-10  COMPRESS=  1.00D-11  VARMIN  =  1.00D-07  VARMAX  =  1.00D-03
 THRDOUB =  0.00D+00  THRDIV  =  1.00D-05  THRRED  =  1.00D-07  THRPSP  =  1.00D+00  THRDC   =  1.00D-10  THRCS   =  1.00D-10
 THRNRM  =  1.00D-08  THREQ   =  0.00D+00  THRDE   =  1.00D+00  THRREF  =  1.00D-05  SPARFAC =  1.00D+00  THRDLP  =  1.00D-07
 THRDIA  =  1.00D-10  THRDLS  =  1.00D-07  THRGPS  =  0.00D+00  THRKEX  =  0.00D+00  THRDIS  =  2.00D-01  THRVAR  =  1.00D-10
 THRLOC  =  1.00D-06  THRGAP  =  1.00D-06  THRLOCT = -1.00D+00  THRGAPT = -1.00D+00  THRORB  =  1.00D-06  THRMLTP =  0.00D+00
 THRCPQCI=  1.00D-10  KEXTA   =  0.00D+00  THRCOARS=  0.00D+00  SYMTOL  =  1.00D-06  GRADTOL =  1.00D-06  THROVL  =  1.00D-08
 THRORTH =  1.00D-08  GRID    =  1.00D-06  GRIDMAX =  1.00D-03  DTMAX   =  0.00D+00  THROCCDE=  1.00D-01  THROCCDE=  1.00D-01



 Input parameters for SORTINT:

 COMPRESS =    0.000000
 C_FINAL  =    1.000000
 DEBUG    =   -1.000000
 C_SORT1  =    0.000000
 C_SEWARD =    0.000000
 THRESH   =    0.000000
 IO       =  molpro                                                          
 SPRI     =    0.000000
 SETTING GEOMTYP        =    XYZ
 ZUNIT=BOHR
 

 Variable memory set to  995000000 words,  buffer space   230000 words

 SETTING BASIS          =    AV5Z


 Recomputing integrals since basis changed


 Using spherical harmonics

 Library entry N      S aug-cc-pV5Z          selected for orbital group  1
 Library entry N      P aug-cc-pV5Z          selected for orbital group  1
 Library entry N      D aug-cc-pV5Z          selected for orbital group  1
 Library entry N      F aug-cc-pV5Z          selected for orbital group  1
 Library entry N      G aug-cc-pV5Z          selected for orbital group  1
 Library entry N      H aug-cc-pV5Z          selected for orbital group  1
 Library entry H      S aug-cc-pV5Z          selected for orbital group  2
 Library entry H      P aug-cc-pV5Z          selected for orbital group  2
 Library entry H      D aug-cc-pV5Z          selected for orbital group  2
 Library entry H      F aug-cc-pV5Z          selected for orbital group  2
 Library entry H      G aug-cc-pV5Z          selected for orbital group  2
 Library entry O      S aug-cc-pV5Z          selected for orbital group  3
 Library entry O      P aug-cc-pV5Z          selected for orbital group  3
 Library entry O      D aug-cc-pV5Z          selected for orbital group  3
 Library entry O      F aug-cc-pV5Z          selected for orbital group  3
 Library entry O      G aug-cc-pV5Z          selected for orbital group  3
 Library entry O      H aug-cc-pV5Z          selected for orbital group  3


 PROGRAM * SEWARD (Integral evaluation for generally contracted gaussian basis sets)     Author: Roland Lindh, 1990

 Geometry written to block  1 of record 700


 Point group  Cs  



 ATOMIC COORDINATES

 NR  ATOM    CHARGE       X              Y              Z

   1  N       7.00    0.000000000   -0.150543616   -1.148693879
   2  H       1.00    0.000000000    1.663709865   -1.938233483
   3  O       8.00    0.000000000    0.028601541    1.136337772

 Bond lengths in Bohr (Angstrom)

 1-2  1.978607712  1-3  2.292043331
     ( 1.047034111)     ( 1.212897097)

 Bond angles

  2-1-3  109.03526462

 NUCLEAR CHARGE:                   16
 NUMBER OF PRIMITIVE AOS:         506
 NUMBER OF SYMMETRY AOS:          371
 NUMBER OF CONTRACTIONS:          334   ( 204A'  + 130A"  )
 NUMBER OF CORE ORBITALS:           2   (   2A'  +   0A"  )
 NUMBER OF VALENCE ORBITALS:        9   (   7A'  +   2A"  )


 NUCLEAR REPULSION ENERGY   30.26750673


 Eigenvalues of metric

         1 0.112E-04 0.172E-04 0.629E-04 0.101E-03 0.106E-03 0.137E-03 0.198E-03 0.224E-03
         2 0.129E-03 0.357E-03 0.114E-02 0.161E-02 0.190E-02 0.255E-02 0.322E-02 0.388E-02


 Contracted 2-electron integrals neglected if value below      1.0D-22

      756977291. INTEGRALS WRITTEN OUT IN  184855 BLOCKS ON RECORD 1290 OF FILE 1


 NUMBER OF SORTED TWO-ELECTRON INTEGRALS:  789027325.     BUFFER LENGTH:  32768
 NUMBER OF SEGMENTS:  25  SEGMENT LENGTH:   31997130      RECORD LENGTH: 524288

 Memory used in sort:      32.55 MW

 SORT1 READ   756977291. AND WROTE   760993171. INTEGRALS IN   2189 RECORDS. CPU TIME:    27.32 SEC, REAL TIME:   170.66 SEC
 SORT2 READ   760993171. AND WROTE   789027325. INTEGRALS IN     25 RECORDS. CPU TIME:    11.38 SEC, REAL TIME:    69.61 SEC

 FILE SIZES:   FILE 1: 12137.5 MBYTE,  FILE 4:  9181.4 MBYTE,   TOTAL:  21318.9 MBYTE

 OPERATOR DM      FOR CENTER  0  COORDINATES:    0.000000    0.000000    0.000000


 **********************************************************************************************************************************
 DATASETS  * FILE   NREC   LENGTH (MB)   RECORD NAMES
              1      19     6374.22       500      610      700      900      950      970     1000      129      960     1100   
                                          VAR    BASINP    GEOM    SYMINP    ZMAT    AOBASIS   BASIS     P2S    ABASIS      S 
                                         1400     1410     1200     1210     1080     1600     1650     1300     1700   
                                           T        V       H0       H01     AOSYM     SMH    MOLCAS    ERIS     OPER   

 PROGRAMS   *        TOTAL       INT
 CPU TIMES  *       147.52    147.43
 REAL TIME  *       371.43 SEC
 DISK USED  *        21.32 GB      
 **********************************************************************************************************************************


 PROGRAM * RHF-SCF (CLOSED SHELL)       Authors: W. Meyer, H.-J. Werner


 NUMBER OF ELECTRONS:       8+    8-
 CONVERGENCE THRESHOLDS:    1.00E-10 (Density)    1.00E-13 (Energy)
 MAX. NUMBER OF ITERATIONS:      500
 INTERPOLATION TYPE:            DIIS
 INTERPOLATION STEPS:              2 (START)      1 (STEP)
 LEVEL SHIFTS:                  0.00 (CLOSED)  0.00 (OPEN) 



 Orbital guess generated from atomic densities. Full valence occupancy:    9   2

 Molecular orbital dump at record        2100.2

 Initial occupancy:   7   1

 ITERATION    DDIFF          GRAD             ENERGY        2-EL.EN.            DIPOLE MOMENTS         DIIS   ORB.
    1      0.000D+00      0.000D+00      -129.79750246    153.796419    0.00000    0.60802   -1.04619    0    start
    2      0.000D+00      0.643D-02      -129.82455616    155.005522    0.00000    0.61328   -0.21068    1    diag
    3      0.403D-02      0.494D-02      -129.84809407    155.144581    0.00000    0.56379   -0.60569    2    diag
    4      0.209D-02      0.776D-03      -129.84891324    154.856150    0.00000    0.57064   -0.54292    3    diag
    5      0.381D-03      0.250D-03      -129.84904021    154.950240    0.00000    0.57590   -0.54537    4    diag
    6      0.157D-03      0.722D-04      -129.84906044    154.933932    0.00000    0.57616   -0.54109    5    diag
    7      0.602D-04      0.361D-04      -129.84906641    154.936646    0.00000    0.57737   -0.53840    6    diag
    8      0.414D-04      0.129D-04      -129.84906713    154.935929    0.00000    0.57741   -0.53733    7    diag
    9      0.164D-04      0.252D-05      -129.84906716    154.935814    0.00000    0.57737   -0.53710    8    diag
   10      0.336D-05      0.566D-06      -129.84906716    154.935796    0.00000    0.57734   -0.53707    9    orth
   11      0.645D-06      0.112D-06      -129.84906716    154.935792    0.00000    0.57733   -0.53707    9    diag
   12      0.118D-06      0.229D-07      -129.84906716    154.935792    0.00000    0.57733   -0.53707    9    diag
   13      0.251D-07      0.608D-08      -129.84906716    154.935792    0.00000    0.57733   -0.53707    9    diag
   14      0.688D-08      0.118D-08      -129.84906716    154.935792    0.00000    0.57733   -0.53707    9    diag
   15      0.126D-08      0.333D-09      -129.84906716    154.935792    0.00000    0.57733   -0.53707    9    diag
   16      0.378D-09      0.985D-10      -129.84906716    154.935792    0.00000    0.57733   -0.53707    9    diag
   17      0.686D-10      0.246D-10      -129.84906716    154.935792    0.00000    0.57733   -0.53707    9    diag
   18      0.207D-10      0.813D-11      -129.84906716    154.935792    0.00000    0.57733   -0.53707    9    diag
   19      0.160D-10      0.192D-11      -129.84906716    154.935792    0.00000    0.57733   -0.53707    9    fixocc
   20      0.126D-10      0.604D-12      -129.84906716    154.935792    0.00000    0.57733   -0.53707    9    orth
   21      0.856D-11      0.284D-12      -129.84906716    154.935792    0.00000    0.57733   -0.53707    9    diag
   22      0.440D-11      0.244D-12      -129.84906716    154.935792    0.00000    0.57733   -0.53707    9    diag
   23      0.362D-11      0.420D-12      -129.84906716    154.935792    0.00000    0.57733   -0.53707    9    diag
   24      0.247D-11      0.241D-12      -129.84906716    154.935792    0.00000    0.57733   -0.53707    0    orth

 Final occupancy:   7   1

 !RHF STATE 1.1 Energy               -129.849067164159
 Nuclear energy                        30.26750673
 One-electron energy                 -237.58446983
 Two-electron energy                   77.46789593
 Virial quotient                       -1.00181158
 !RHF STATE 1.1 Dipole moment           0.00000000     0.57733122    -0.53706547
 Dipole moment /Debye                   0.00000000     1.46733347    -1.36499485

 Orbital energies:

         1.1          2.1          3.1          4.1          5.1          6.1          7.1          8.1          9.1
    -20.653529   -15.712190    -1.524916    -0.997323    -0.746212    -0.664853    -0.431781     0.022740     0.065525

         1.2          2.2          3.2
     -0.593535     0.059042     0.091079

 HOMO      7.1    -0.431781 =     -11.7494eV
 LUMO      8.1     0.022740 =       0.6188eV
 LUMO-HOMO         0.454521 =      12.3682eV


 **********************************************************************************************************************************
 DATASETS  * FILE   NREC   LENGTH (MB)   RECORD NAMES
              1      19     6374.22       500      610      700      900      950      970     1000      129      960     1100   
                                          VAR    BASINP    GEOM    SYMINP    ZMAT    AOBASIS   BASIS     P2S    ABASIS      S 
                                         1400     1410     1200     1210     1080     1600     1650     1300     1700   
                                           T        V       H0       H01     AOSYM     SMH    MOLCAS    ERIS     OPER   

              2       4        4.02       700     1000      520     2100   
                                         GEOM     BASIS   MCVARS     RHF  

 PROGRAMS   *        TOTAL        HF       INT
 CPU TIMES  *       244.88     97.36    147.43
 REAL TIME  *       495.22 SEC
 DISK USED  *        21.32 GB      
 **********************************************************************************************************************************


 PROGRAM * CCSD (Closed-shell coupled cluster)     Authors: C. Hampel, H.-J. Werner, 1991, M. Deegan, P.J. Knowles, 1992


 Convergence thresholds:  THRVAR = 1.00D-08  THRDEN = 1.00D-12

 CCSD(T)     terms to be evaluated (factor= 1.000)


 Number of core orbitals:           2 (   2   0 )
 Number of closed-shell orbitals:   6 (   5   1 )
 Number of external orbitals:     326 ( 197 129 )

 Molecular orbitals read from record     2100.2  Type=RHF/CANONICAL (state 1.1)

 Number of N-1 electron functions:               6
 Number of N-2 electron functions:              21
 Number of singly external CSFs:              1114
 Number of doubly external CSFs:            975958
 Total number of CSFs:                      977073

 Length of J-op  integral file:               0.00 MB
 Length of K-op  integral file:               4.07 MB
 Length of 3-ext integral record:             0.00 MB

 Memory could be reduced to 151.33 Mwords without degradation in triples

 Integral transformation finished. Total CPU:  14.00 sec, npass=  1  Memory used:  41.21 MW

 Reference energy:                   -129.84906716

 MP2 singlet pair energy:              -0.31156183
 MP2 triplet pair energy:              -0.17228259
 MP2 correlation energy:               -0.48384442
 MP2 total energy:                   -130.33291158

 SCS-MP2 correlation energy:           -0.48107225   (PS=  1.200000  PT=  0.333333)
 SCS-MP2 total energy:               -130.33013941

 ITER.      SQ.NORM     CORR.ENERGY   TOTAL ENERGY   ENERGY CHANGE        DEN1      VAR(S)    VAR(P)  DIIS     TIME  TIME/IT
   1      1.12097017    -0.48065383  -130.32972099     0.00319059     0.02004697  0.32D-02  0.33D-02  1  1    24.86    11.93
   2      1.13170705    -0.48049573  -130.32956289     0.00015810    -0.01278965  0.11D-03  0.49D-03  2  2    36.25    12.24
   3      1.13793976    -0.48088337  -130.32995054    -0.00038764    -0.00302128  0.49D-04  0.58D-04  3  3    47.49    12.27
   4      1.14078902    -0.48088196  -130.32994913     0.00000141    -0.00098272  0.47D-05  0.10D-04  4  4    59.08    12.39
   5      1.14195740    -0.48091184  -130.32997900    -0.00002988    -0.00025831  0.12D-05  0.17D-05  5  5    70.54    12.44
   6      1.14232491    -0.48089973  -130.32996689     0.00001211    -0.00005200  0.12D-06  0.42D-06  6  6    81.74    12.42
   7      1.14240192    -0.48089947  -130.32996663     0.00000026     0.00000365  0.16D-07  0.96D-07  6  1    92.81    12.41
   8      1.14242760    -0.48089949  -130.32996665    -0.00000002    -0.00000315  0.35D-08  0.20D-07  6  2   104.07    12.40
   9      1.14243622    -0.48089891  -130.32996608     0.00000057    -0.00000015  0.24D-08  0.22D-08  6  3   115.13    12.39
  10      1.14243138    -0.48089968  -130.32996685    -0.00000077     0.00000165  0.38D-09  0.36D-09  6  5   126.39    12.40
  11      1.14243347    -0.48089966  -130.32996682     0.00000002    -0.00000039  0.11D-09  0.30D-10  6  4   137.63    12.39
  12      1.14243302    -0.48089973  -130.32996690    -0.00000007     0.00000005  0.19D-10  0.69D-11  6  6   148.82    12.39
  13      1.14243280    -0.48089973  -130.32996690    -0.00000000    -0.00000004  0.32D-11  0.99D-12  6  1   159.91    12.39
  14      1.14243252    -0.48089975  -130.32996691    -0.00000001     0.00000004  0.46D-12  0.18D-12  6  3   171.37    12.41
  15      1.14243244    -0.48089975  -130.32996691    -0.00000000     0.00000001  0.12D-12  0.23D-13  6  2   182.60    12.40
  16      1.14243243    -0.48089975  -130.32996691     0.00000000     0.00000000  0.34D-13  0.88D-14  6  4   193.87    12.40
  17      1.14243243    -0.48089975  -130.32996691    -0.00000000    -0.00000000  0.20D-14  0.11D-14  6  5   204.97    12.40
  18      1.14243244    -0.48089975  -130.32996691     0.00000000    -0.00000000  0.30D-15  0.30D-15  6  6   216.15    12.40
  19      1.14243244    -0.48089975  -130.32996691     0.00000000    -0.00000000  0.53D-16  0.43D-16  6  1   227.41    12.40
  20      1.14243244    -0.48089975  -130.32996691     0.00000000    -0.00000000  0.12D-16  0.64D-17  6  3   238.55    12.40
  21      1.14243244    -0.48089975  -130.32996691    -0.00000000     0.00000000  0.22D-17  0.11D-17  6  2   249.64    12.40
  22      1.14243244    -0.48089975  -130.32996691    -0.00000000     0.00000000  0.45D-18  0.19D-18  6  4   261.05    12.40
  23      1.14243244    -0.48089975  -130.32996691    -0.00000000     0.00000000  0.93D-19  0.47D-19  6  5   272.32    12.41
  24      1.14243244    -0.48089975  -130.32996691    -0.00000000     0.00000000  0.43D-19  0.24D-19  6  6   284.16    12.43
  25      1.14243244    -0.48089975  -130.32996691     0.00000000    -0.00000000  0.22D-19  0.16D-19  6  1   295.43    12.43

 Norm of t1 vector:      0.07709477      S-energy:    -0.00000000      T1 diagnostic:  0.01573690
                                                                       D1 diagnostic:  0.04291534

 Doubles amplitudes (print threshold =  0.500E-01):

         I         J         SYM. A    SYM. B    A         B      T(IJ, AB)

         6         6         2         2         1         1     -0.08302580
         6         6         2         2         1         2      0.05301040
         6         6         2         2         2         1      0.05301040


 Total CPU time for triples:    116.31 sec


 RESULTS
 =======

  Reference energy                   -129.849067164159
  CCSD singlet pair energy             -0.333667794373
  CCSD triplet pair energy             -0.147231954438
  CCSD correlation energy              -0.480899748812

  Triples (T) contribution             -0.023052165350
  Total correlation energy             -0.503951914163

  CCSD total energy                  -130.329966912971
  CCSD[T] energy                     -130.354118639954
  CCSD-T energy                      -130.352635396688
 !CCSD(T) total energy               -130.353019078322

 Timing summary (sec):

 STEP                 CPU(USER)    SYS     CPU(TOT)    WALL
 Transformation         14.07      1.70     15.77     15.78
 CCSD iterations       281.37     29.50    310.87    310.91
 Triples               116.31      1.99    118.30    118.31

 Program statistics:

 Available memory in ccsd:               994999756
 Min. memory needed in ccsd:               3348832
 Max. memory used in ccsd:                 4143652
 Max. memory used in cckext:               8340089 (25 integral passes)



 **********************************************************************************************************************************
 DATASETS  * FILE   NREC   LENGTH (MB)   RECORD NAMES
              1      20     6809.41       500      610      700      900      950      970     1000      129      960     1100   
                                          VAR    BASINP    GEOM    SYMINP    ZMAT    AOBASIS   BASIS     P2S    ABASIS      S 
                                         1400     1410     1200     1210     1080     1600     1650     1300     1700     1380   
                                           T        V       H0       H01     AOSYM     SMH    MOLCAS    ERIS     OPER     JKOP   

              2       4        4.02       700     1000      520     2100   
                                         GEOM     BASIS   MCVARS     RHF  

 PROGRAMS   *        TOTAL   CCSD(T)        HF       INT
 CPU TIMES  *       656.66    411.78     97.36    147.43
 REAL TIME  *       940.26 SEC
 DISK USED  *        21.32 GB      
 **********************************************************************************************************************************

 CCSD(T)/aug-cc-pV5Z energy=   -130.353019078322

        CCSD(T)         HF-SCF  
   -130.35301908   -129.84906716
 **********************************************************************************************************************************
 Molpro calculation terminated
 Variable memory released
