
 Primary working directories    : /tmp/r2666/234668.maple
 Secondary working directories  : /tmp/r2666/234668.maple
 Wavefunction directory         : /ddn/home4/r2666/wfu/
 Main file repository           : /tmp/r2666/234668.maple/

 SHA1      : d5ffa45e93fdbca01ffc919aa182cfdae0147319
 NAME      : 2015.1.35
 ARCHNAME  : linux/x86_64
 FC        : /opt/intel/composer_xe_2015.1.133/bin/intel64/ifort
 BLASLIB   : -Wl,-_start-group /opt/intel/mkl/lib/intel64/libmkl_intel_ilp64.a /opt/intel/mkl/lib/intel64/libmkl_intel_thread.a /opt/intel/mkl/lib/intel64/libmkl_core.a -Wl,-_end-group
 id        : olemiss

 Nodes     nprocs
 cn032        1

 Using customized tuning parameters: mindgm=1; mindgv=20; mindgc=4; mindgr=1; noblas=0; minvec=7
 default implementation of scratch files=df  

 ***,hno CCSD(T)/TZ-F12 QFF
 memory, 995, m;
 gthresh,energy=1.d-12,zero=1.d-22,oneint=1.d-22,twoint=1.d-22;
 gthresh,optgrad=1.d-8,optstep=1.d-8;
 nocompress;
 geomtyp=xyz
 bohr
 geometry={
 3
         40        40
 N        0.0000000000       -0.1575483052       -1.1576073714
 H        0.0000000000        1.6640188492       -1.9301237665
 O        0.0000000000        0.0352972460        1.1371415470
 }
 
 basis=av5z
   {hf,maxit=500;accu,20;}
 {ccsd(t),nocheck,maxit=250;orbital,IGNORE_ERROR;}

 Variables initialized (889), CPU time= 0.01 sec
 Commands  initialized (702), CPU time= 0.00 sec, 572 directives.
 Default parameters read. Elapsed time= 0.15 sec

 Checking input...
 Passed
1


                                         ***  PROGRAM SYSTEM MOLPRO  ***
                                       Copyright, TTI GmbH Stuttgart, 2015
                                    Version 2015.1 linked Jul  9 2018 13:16:40


 **********************************************************************************************************************************
 LABEL *   hno CCSD(T)/TZ-F12 QFF                                                        
  64 bit serial version                                                                  DATE: 08-Feb-20          TIME: 17:24:42  
 **********************************************************************************************************************************

 SHA1:             d5ffa45e93fdbca01ffc919aa182cfdae0147319
 **********************************************************************************************************************************

 THRESHOLDS:

 ZERO    =  1.00D-22  ONEINT  =  1.00D-22  TWOINT  =  1.00D-22  PREFAC  =  1.00D-14  LOCALI  =  1.00D-09  EORDER  =  1.00D-04
 ENERGY  =  1.00D-12  ETEST   =  0.00D+00  EDENS   =  0.00D+00  THRDEDEF=  1.00D-06  GRADIENT=  1.00D-02  STEP    =  1.00D-03
 ORBITAL =  1.00D-05  CIVEC   =  1.00D-05  COEFF   =  1.00D-04  PRINTCI =  5.00D-02  PUNCHCI =  9.90D+01  OPTGRAD =  3.00D-04
 OPTENERG=  1.00D-06  OPTSTEP =  3.00D-04  THRGRAD =  1.00D-10  COMPRESS=  1.00D-11  VARMIN  =  1.00D-07  VARMAX  =  1.00D-03
 THRDOUB =  0.00D+00  THRDIV  =  1.00D-05  THRRED  =  1.00D-07  THRPSP  =  1.00D+00  THRDC   =  1.00D-10  THRCS   =  1.00D-10
 THRNRM  =  1.00D-08  THREQ   =  0.00D+00  THRDE   =  1.00D+00  THRREF  =  1.00D-05  SPARFAC =  1.00D+00  THRDLP  =  1.00D-07
 THRDIA  =  1.00D-10  THRDLS  =  1.00D-07  THRGPS  =  0.00D+00  THRKEX  =  0.00D+00  THRDIS  =  2.00D-01  THRVAR  =  1.00D-10
 THRLOC  =  1.00D-06  THRGAP  =  1.00D-06  THRLOCT = -1.00D+00  THRGAPT = -1.00D+00  THRORB  =  1.00D-06  THRMLTP =  0.00D+00
 THRCPQCI=  1.00D-10  KEXTA   =  0.00D+00  THRCOARS=  0.00D+00  SYMTOL  =  1.00D-06  GRADTOL =  1.00D-06  THROVL  =  1.00D-08
 THRORTH =  1.00D-08  GRID    =  1.00D-06  GRIDMAX =  1.00D-03  DTMAX   =  0.00D+00  THROCCDE=  1.00D-01  THROCCDE=  1.00D-01



 THRESHOLDS:

 ZERO    =  1.00D-22  ONEINT  =  1.00D-22  TWOINT  =  1.00D-22  PREFAC  =  1.00D-14  LOCALI  =  1.00D-09  EORDER  =  1.00D-04
 ENERGY  =  1.00D-12  ETEST   =  0.00D+00  EDENS   =  0.00D+00  THRDEDEF=  1.00D-06  GRADIENT=  1.00D-02  STEP    =  1.00D-03
 ORBITAL =  1.00D-05  CIVEC   =  1.00D-05  COEFF   =  1.00D-04  PRINTCI =  5.00D-02  PUNCHCI =  9.90D+01  OPTGRAD =  1.00D-08
 OPTENERG=  1.00D-06  OPTSTEP =  1.00D-08  THRGRAD =  1.00D-10  COMPRESS=  1.00D-11  VARMIN  =  1.00D-07  VARMAX  =  1.00D-03
 THRDOUB =  0.00D+00  THRDIV  =  1.00D-05  THRRED  =  1.00D-07  THRPSP  =  1.00D+00  THRDC   =  1.00D-10  THRCS   =  1.00D-10
 THRNRM  =  1.00D-08  THREQ   =  0.00D+00  THRDE   =  1.00D+00  THRREF  =  1.00D-05  SPARFAC =  1.00D+00  THRDLP  =  1.00D-07
 THRDIA  =  1.00D-10  THRDLS  =  1.00D-07  THRGPS  =  0.00D+00  THRKEX  =  0.00D+00  THRDIS  =  2.00D-01  THRVAR  =  1.00D-10
 THRLOC  =  1.00D-06  THRGAP  =  1.00D-06  THRLOCT = -1.00D+00  THRGAPT = -1.00D+00  THRORB  =  1.00D-06  THRMLTP =  0.00D+00
 THRCPQCI=  1.00D-10  KEXTA   =  0.00D+00  THRCOARS=  0.00D+00  SYMTOL  =  1.00D-06  GRADTOL =  1.00D-06  THROVL  =  1.00D-08
 THRORTH =  1.00D-08  GRID    =  1.00D-06  GRIDMAX =  1.00D-03  DTMAX   =  0.00D+00  THROCCDE=  1.00D-01  THROCCDE=  1.00D-01



 Input parameters for SORTINT:

 COMPRESS =    0.000000
 C_FINAL  =    1.000000
 DEBUG    =   -1.000000
 C_SORT1  =    0.000000
 C_SEWARD =    0.000000
 THRESH   =    0.000000
 IO       =  molpro                                                          
 SPRI     =    0.000000
 SETTING GEOMTYP        =    XYZ
 ZUNIT=BOHR
 

 Variable memory set to  995000000 words,  buffer space   230000 words

 SETTING BASIS          =    AV5Z


 Recomputing integrals since basis changed


 Using spherical harmonics

 Library entry N      S aug-cc-pV5Z          selected for orbital group  1
 Library entry N      P aug-cc-pV5Z          selected for orbital group  1
 Library entry N      D aug-cc-pV5Z          selected for orbital group  1
 Library entry N      F aug-cc-pV5Z          selected for orbital group  1
 Library entry N      G aug-cc-pV5Z          selected for orbital group  1
 Library entry N      H aug-cc-pV5Z          selected for orbital group  1
 Library entry H      S aug-cc-pV5Z          selected for orbital group  2
 Library entry H      P aug-cc-pV5Z          selected for orbital group  2
 Library entry H      D aug-cc-pV5Z          selected for orbital group  2
 Library entry H      F aug-cc-pV5Z          selected for orbital group  2
 Library entry H      G aug-cc-pV5Z          selected for orbital group  2
 Library entry O      S aug-cc-pV5Z          selected for orbital group  3
 Library entry O      P aug-cc-pV5Z          selected for orbital group  3
 Library entry O      D aug-cc-pV5Z          selected for orbital group  3
 Library entry O      F aug-cc-pV5Z          selected for orbital group  3
 Library entry O      G aug-cc-pV5Z          selected for orbital group  3
 Library entry O      H aug-cc-pV5Z          selected for orbital group  3


 PROGRAM * SEWARD (Integral evaluation for generally contracted gaussian basis sets)     Author: Roland Lindh, 1990

 Geometry written to block  1 of record 700


 Point group  Cs  



 ATOMIC COORDINATES

 NR  ATOM    CHARGE       X              Y              Z

   1  N       7.00    0.000000000   -0.157548305   -1.157607371
   2  H       1.00    0.000000000    1.664018849   -1.930123766
   3  O       8.00    0.000000000    0.035297246    1.137141547

 Bond lengths in Bohr (Angstrom)

 1-2  1.978607712  1-3  2.302837816
     ( 1.047034111)     ( 1.218609292)

 Bond angles

  2-1-3  108.17780648

 NUCLEAR CHARGE:                   16
 NUMBER OF PRIMITIVE AOS:         506
 NUMBER OF SYMMETRY AOS:          371
 NUMBER OF CONTRACTIONS:          334   ( 204A'  + 130A"  )
 NUMBER OF CORE ORBITALS:           2   (   2A'  +   0A"  )
 NUMBER OF VALENCE ORBITALS:        9   (   7A'  +   2A"  )


 NUCLEAR REPULSION ENERGY   30.15923112


 Eigenvalues of metric

         1 0.113E-04 0.176E-04 0.634E-04 0.103E-03 0.108E-03 0.139E-03 0.201E-03 0.224E-03
         2 0.131E-03 0.358E-03 0.116E-02 0.165E-02 0.191E-02 0.261E-02 0.324E-02 0.389E-02


 Contracted 2-electron integrals neglected if value below      1.0D-22

      756977368. INTEGRALS WRITTEN OUT IN  184855 BLOCKS ON RECORD 1290 OF FILE 1


 NUMBER OF SORTED TWO-ELECTRON INTEGRALS:  789027325.     BUFFER LENGTH:  32768
 NUMBER OF SEGMENTS:  25  SEGMENT LENGTH:   31997130      RECORD LENGTH: 524288

 Memory used in sort:      32.55 MW

 SORT1 READ   756977368. AND WROTE   760993250. INTEGRALS IN   2189 RECORDS. CPU TIME:    28.89 SEC, REAL TIME:   148.69 SEC
 SORT2 READ   760993250. AND WROTE   789027325. INTEGRALS IN     25 RECORDS. CPU TIME:    12.57 SEC, REAL TIME:    69.64 SEC

 FILE SIZES:   FILE 1: 12137.5 MBYTE,  FILE 4:  9181.4 MBYTE,   TOTAL:  21318.9 MBYTE

 OPERATOR DM      FOR CENTER  0  COORDINATES:    0.000000    0.000000    0.000000


 **********************************************************************************************************************************
 DATASETS  * FILE   NREC   LENGTH (MB)   RECORD NAMES
              1      19     6374.22       500      610      700      900      950      970     1000      129      960     1100   
                                          VAR    BASINP    GEOM    SYMINP    ZMAT    AOBASIS   BASIS     P2S    ABASIS      S 
                                         1400     1410     1200     1210     1080     1600     1650     1300     1700   
                                           T        V       H0       H01     AOSYM     SMH    MOLCAS    ERIS     OPER   

 PROGRAMS   *        TOTAL       INT
 CPU TIMES  *       160.24    160.13
 REAL TIME  *       345.84 SEC
 DISK USED  *        21.32 GB      
 **********************************************************************************************************************************


 PROGRAM * RHF-SCF (CLOSED SHELL)       Authors: W. Meyer, H.-J. Werner


 NUMBER OF ELECTRONS:       8+    8-
 CONVERGENCE THRESHOLDS:    1.00E-10 (Density)    1.00E-13 (Energy)
 MAX. NUMBER OF ITERATIONS:      500
 INTERPOLATION TYPE:            DIIS
 INTERPOLATION STEPS:              2 (START)      1 (STEP)
 LEVEL SHIFTS:                  0.00 (CLOSED)  0.00 (OPEN) 



 Orbital guess generated from atomic densities. Full valence occupancy:    9   2

 Molecular orbital dump at record        2100.2

 Initial occupancy:   7   1

 ITERATION    DDIFF          GRAD             ENERGY        2-EL.EN.            DIPOLE MOMENTS         DIIS   ORB.
    1      0.000D+00      0.000D+00      -129.79569839    153.606034    0.00000    0.60286   -1.06278    0    start
    2      0.000D+00      0.648D-02      -129.82254788    154.799009    0.00000    0.61729   -0.20376    1    diag
    3      0.409D-02      0.505D-02      -129.84716875    154.952285    0.00000    0.56293   -0.61070    2    diag
    4      0.213D-02      0.780D-03      -129.84799854    154.659824    0.00000    0.57008   -0.54719    3    diag
    5      0.383D-03      0.253D-03      -129.84812815    154.754204    0.00000    0.57527   -0.54947    4    diag
    6      0.159D-03      0.730D-04      -129.84814888    154.737800    0.00000    0.57549   -0.54507    5    diag
    7      0.610D-04      0.367D-04      -129.84815510    154.740465    0.00000    0.57667   -0.54228    6    diag
    8      0.421D-04      0.134D-04      -129.84815587    154.739720    0.00000    0.57671   -0.54117    7    diag
    9      0.172D-04      0.262D-05      -129.84815591    154.739601    0.00000    0.57667   -0.54092    8    diag
   10      0.355D-05      0.577D-06      -129.84815591    154.739582    0.00000    0.57664   -0.54090    9    orth
   11      0.656D-06      0.114D-06      -129.84815591    154.739579    0.00000    0.57663   -0.54089    9    diag
   12      0.118D-06      0.237D-07      -129.84815591    154.739579    0.00000    0.57663   -0.54089    9    diag
   13      0.254D-07      0.638D-08      -129.84815591    154.739579    0.00000    0.57663   -0.54089    9    diag
   14      0.712D-08      0.123D-08      -129.84815591    154.739579    0.00000    0.57663   -0.54089    9    diag
   15      0.129D-08      0.347D-09      -129.84815591    154.739579    0.00000    0.57663   -0.54089    9    diag
   16      0.387D-09      0.102D-09      -129.84815591    154.739579    0.00000    0.57663   -0.54089    9    diag
   17      0.765D-10      0.254D-10      -129.84815591    154.739579    0.00000    0.57663   -0.54089    9    diag
   18      0.222D-10      0.837D-11      -129.84815591    154.739579    0.00000    0.57663   -0.54089    9    diag
   19      0.171D-10      0.197D-11      -129.84815591    154.739579    0.00000    0.57663   -0.54089    9    fixocc
   20      0.161D-10      0.598D-12      -129.84815591    154.739579    0.00000    0.57663   -0.54089    9    orth
   21      0.950D-11      0.485D-12      -129.84815591    154.739579    0.00000    0.57663   -0.54089    9    diag
   22      0.481D-11      0.464D-12      -129.84815591    154.739579    0.00000    0.57663   -0.54089    9    diag
   23      0.424D-11      0.230D-12      -129.84815591    154.739579    0.00000    0.57663   -0.54089    9    diag
   24      0.217D-11      0.200D-12      -129.84815591    154.739579    0.00000    0.57663   -0.54089    9    diag
   25      0.282D-11      0.274D-12      -129.84815591    154.739579    0.00000    0.57663   -0.54089    9    diag
   26      0.168D-11      0.403D-12      -129.84815591    154.739579    0.00000    0.57663   -0.54089    9    diag
   27      0.139D-11      0.301D-12      -129.84815591    154.739579    0.00000    0.57663   -0.54089    9    diag
   28      0.990D-12      0.184D-12      -129.84815591    154.739579    0.00000    0.57663   -0.54089    9    diag
   29      0.570D-12      0.332D-12      -129.84815591    154.739579    0.00000    0.57663   -0.54089    9    diag
   30      0.591D-12      0.285D-12      -129.84815591    154.739579    0.00000    0.57663   -0.54089    9    orth
   31      0.677D-12      0.260D-12      -129.84815591    154.739579    0.00000    0.57663   -0.54089    9    diag
   32      0.877D-12      0.299D-12      -129.84815591    154.739579    0.00000    0.57663   -0.54089    9    diag
   33      0.533D-12      0.283D-12      -129.84815591    154.739579    0.00000    0.57663   -0.54089    9    diag
   34      0.924D-12      0.260D-12      -129.84815591    154.739579    0.00000    0.57663   -0.54089    9    diag
   35      0.548D-12      0.254D-12      -129.84815591    154.739579    0.00000    0.57663   -0.54089    9    diag
   36      0.114D-11      0.189D-12      -129.84815591    154.739579    0.00000    0.57663   -0.54089    9    diag
   37      0.402D-12      0.225D-12      -129.84815591    154.739579    0.00000    0.57663   -0.54089    9    diag
   38      0.656D-12      0.187D-12      -129.84815591    154.739579    0.00000    0.57663   -0.54089    9    diag
   39      0.671D-12      0.184D-12      -129.84815591    154.739579    0.00000    0.57663   -0.54089    9    diag
   40      0.376D-12      0.203D-12      -129.84815591    154.739579    0.00000    0.57663   -0.54089    9    orth
   41      0.745D-12      0.222D-12      -129.84815591    154.739579    0.00000    0.57663   -0.54089    9    diag
   42      0.850D-12      0.248D-12      -129.84815591    154.739579    0.00000    0.57663   -0.54089    9    diag
   43      0.136D-11      0.288D-12      -129.84815591    154.739579    0.00000    0.57663   -0.54089    9    diag
   44      0.681D-12      0.289D-12      -129.84815591    154.739579    0.00000    0.57663   -0.54089    9    diag
   45      0.101D-11      0.304D-12      -129.84815591    154.739579    0.00000    0.57663   -0.54089    0    orth

 Final occupancy:   7   1

 !RHF STATE 1.1 Energy               -129.848155912133
 Nuclear energy                        30.15923112
 One-electron energy                 -237.37717639
 Two-electron energy                   77.36978935
 Virial quotient                       -1.00195198
 !RHF STATE 1.1 Dipole moment           0.00000000     0.57662910    -0.54089284
 Dipole moment /Debye                   0.00000000     1.46554899    -1.37472243

 Orbital energies:

         1.1          2.1          3.1          4.1          5.1          6.1          7.1          8.1          9.1
    -20.653867   -15.713339    -1.520763    -0.998130    -0.744528    -0.663077    -0.434109     0.022737     0.065527

         1.2          2.2          3.2
     -0.590985     0.057952     0.090666

 HOMO      7.1    -0.434109 =     -11.8127eV
 LUMO      8.1     0.022737 =       0.6187eV
 LUMO-HOMO         0.456845 =      12.4314eV


 **********************************************************************************************************************************
 DATASETS  * FILE   NREC   LENGTH (MB)   RECORD NAMES
              1      19     6374.22       500      610      700      900      950      970     1000      129      960     1100   
                                          VAR    BASINP    GEOM    SYMINP    ZMAT    AOBASIS   BASIS     P2S    ABASIS      S 
                                         1400     1410     1200     1210     1080     1600     1650     1300     1700   
                                           T        V       H0       H01     AOSYM     SMH    MOLCAS    ERIS     OPER   

              2       4        4.02       700     1000      520     2100   
                                         GEOM     BASIS   MCVARS     RHF  

 PROGRAMS   *        TOTAL        HF       INT
 CPU TIMES  *       370.35    210.11    160.13
 REAL TIME  *       609.50 SEC
 DISK USED  *        21.32 GB      
 **********************************************************************************************************************************


 PROGRAM * CCSD (Closed-shell coupled cluster)     Authors: C. Hampel, H.-J. Werner, 1991, M. Deegan, P.J. Knowles, 1992


 Convergence thresholds:  THRVAR = 1.00D-08  THRDEN = 1.00D-12

 CCSD(T)     terms to be evaluated (factor= 1.000)


 Number of core orbitals:           2 (   2   0 )
 Number of closed-shell orbitals:   6 (   5   1 )
 Number of external orbitals:     326 ( 197 129 )

 Molecular orbitals read from record     2100.2  Type=RHF/CANONICAL (state 1.1)

 Number of N-1 electron functions:               6
 Number of N-2 electron functions:              21
 Number of singly external CSFs:              1114
 Number of doubly external CSFs:            975958
 Total number of CSFs:                      977073

 Length of J-op  integral file:               0.00 MB
 Length of K-op  integral file:               4.07 MB
 Length of 3-ext integral record:             0.00 MB

 Memory could be reduced to 151.33 Mwords without degradation in triples

 Integral transformation finished. Total CPU:  15.95 sec, npass=  1  Memory used:  41.21 MW

 Reference energy:                   -129.84815591

 MP2 singlet pair energy:              -0.31214636
 MP2 triplet pair energy:              -0.17267672
 MP2 correlation energy:               -0.48482307
 MP2 total energy:                   -130.33297899

 SCS-MP2 correlation energy:           -0.48201892   (PS=  1.200000  PT=  0.333333)
 SCS-MP2 total energy:               -130.33017483

 ITER.      SQ.NORM     CORR.ENERGY   TOTAL ENERGY   ENERGY CHANGE        DEN1      VAR(S)    VAR(P)  DIIS     TIME  TIME/IT
   1      1.12156139    -0.48139804  -130.32955395     0.00342504     0.02052378  0.33D-02  0.33D-02  1  1    28.76    13.81
   2      1.13243371    -0.48119106  -130.32934697     0.00020698    -0.01293566  0.11D-03  0.50D-03  2  2    41.93    14.05
   3      1.13876349    -0.48158555  -130.32974146    -0.00039449    -0.00305328  0.50D-04  0.59D-04  3  3    55.04    14.13
   4      1.14167132    -0.48158468  -130.32974059     0.00000086    -0.00099837  0.48D-05  0.10D-04  4  4    68.26    14.21
   5      1.14287022    -0.48161552  -130.32977143    -0.00003083    -0.00026499  0.12D-05  0.17D-05  5  5    81.25    14.24
   6      1.14324400    -0.48160284  -130.32975875     0.00001267    -0.00005326  0.12D-06  0.41D-06  6  6    94.23    14.26
   7      1.14331979    -0.48160263  -130.32975855     0.00000021     0.00000404  0.16D-07  0.95D-07  6  1   107.21    14.27
   8      1.14334536    -0.48160256  -130.32975847     0.00000007    -0.00000322  0.33D-08  0.20D-07  6  2   120.27    14.28
   9      1.14335375    -0.48160197  -130.32975789     0.00000059    -0.00000010  0.23D-08  0.22D-08  6  3   133.25    14.27
  10      1.14334880    -0.48160275  -130.32975867    -0.00000078     0.00000169  0.38D-09  0.37D-09  6  5   146.31    14.28
  11      1.14335101    -0.48160273  -130.32975864     0.00000003    -0.00000043  0.11D-09  0.31D-10  6  4   159.33    14.27
  12      1.14335056    -0.48160280  -130.32975871    -0.00000007     0.00000005  0.19D-10  0.70D-11  6  6   172.12    14.27
  13      1.14335035    -0.48160280  -130.32975871    -0.00000000    -0.00000004  0.32D-11  0.98D-12  6  1   185.01    14.27
  14      1.14335007    -0.48160281  -130.32975873    -0.00000001     0.00000004  0.42D-12  0.18D-12  6  3   198.13    14.27
  15      1.14334999    -0.48160282  -130.32975873    -0.00000000     0.00000001  0.12D-12  0.22D-13  6  2   211.06    14.27
  16      1.14334998    -0.48160282  -130.32975873     0.00000000     0.00000000  0.33D-13  0.85D-14  6  4   223.77    14.26
  17      1.14334998    -0.48160282  -130.32975873    -0.00000000    -0.00000000  0.20D-14  0.11D-14  6  5   236.51    14.25
  18      1.14334998    -0.48160282  -130.32975873     0.00000000    -0.00000000  0.29D-15  0.29D-15  6  6   249.50    14.24
  19      1.14334999    -0.48160282  -130.32975873     0.00000000    -0.00000000  0.50D-16  0.39D-16  6  1   262.46    14.24
  20      1.14334999    -0.48160282  -130.32975873     0.00000000    -0.00000000  0.11D-16  0.61D-17  6  3   275.65    14.26
  21      1.14334999    -0.48160282  -130.32975873    -0.00000000     0.00000000  0.21D-17  0.11D-17  6  2   288.61    14.26
  22      1.14334999    -0.48160282  -130.32975873    -0.00000000     0.00000000  0.38D-18  0.17D-18  6  4   301.54    14.25
  23      1.14334999    -0.48160282  -130.32975873    -0.00000000     0.00000000  0.88D-19  0.49D-19  6  5   314.40    14.26
  24      1.14334999    -0.48160282  -130.32975873    -0.00000000     0.00000000  0.40D-19  0.25D-19  6  6   327.39    14.26
  25      1.14334999    -0.48160282  -130.32975873     0.00000000    -0.00000000  0.20D-19  0.13D-19  6  1   340.34    14.26

 Norm of t1 vector:      0.07784570      S-energy:    -0.00000000      T1 diagnostic:  0.01589019
                                                                       D1 diagnostic:  0.04360100

 Doubles amplitudes (print threshold =  0.500E-01):

         I         J         SYM. A    SYM. B    A         B      T(IJ, AB)

         6         6         2         2         1         1     -0.08724527
         6         6         2         2         1         2      0.05278330
         6         6         2         2         2         1      0.05278330


 Total CPU time for triples:    127.13 sec


 RESULTS
 =======

  Reference energy                   -129.848155912133
  CCSD singlet pair energy             -0.334274777854
  CCSD triplet pair energy             -0.147328038504
  CCSD correlation energy              -0.481602816359

  Triples (T) contribution             -0.023228635594
  Total correlation energy             -0.504831451953

  CCSD total energy                  -130.329758728493
  CCSD[T] energy                     -130.354108720112
  CCSD-T energy                      -130.352598592142
 !CCSD(T) total energy               -130.352987364087

 Timing summary (sec):

 STEP                 CPU(USER)    SYS     CPU(TOT)    WALL
 Transformation         16.01      1.87     17.88     17.89
 CCSD iterations       324.34     32.09    356.43    356.45
 Triples               127.13      2.21    129.34    129.36

 Program statistics:

 Available memory in ccsd:               994999756
 Min. memory needed in ccsd:               3348832
 Max. memory used in ccsd:                 4143652
 Max. memory used in cckext:               8340089 (25 integral passes)



 **********************************************************************************************************************************
 DATASETS  * FILE   NREC   LENGTH (MB)   RECORD NAMES
              1      20     6809.41       500      610      700      900      950      970     1000      129      960     1100   
                                          VAR    BASINP    GEOM    SYMINP    ZMAT    AOBASIS   BASIS     P2S    ABASIS      S 
                                         1400     1410     1200     1210     1080     1600     1650     1300     1700     1380   
                                           T        V       H0       H01     AOSYM     SMH    MOLCAS    ERIS     OPER     JKOP   

              2       4        4.02       700     1000      520     2100   
                                         GEOM     BASIS   MCVARS     RHF  

 PROGRAMS   *        TOTAL   CCSD(T)        HF       INT
 CPU TIMES  *       837.87    467.51    210.11    160.13
 REAL TIME  *      1113.26 SEC
 DISK USED  *        21.32 GB      
 **********************************************************************************************************************************

 CCSD(T)/aug-cc-pV5Z energy=   -130.352987364087

        CCSD(T)         HF-SCF  
   -130.35298736   -129.84815591
 **********************************************************************************************************************************
 Molpro calculation terminated
 Variable memory released
