
 Primary working directories    : /tmp/r2666/234730.maple
 Secondary working directories  : /tmp/r2666/234730.maple
 Wavefunction directory         : /ddn/home4/r2666/wfu/
 Main file repository           : /tmp/r2666/234730.maple/

 SHA1      : d5ffa45e93fdbca01ffc919aa182cfdae0147319
 NAME      : 2015.1.35
 ARCHNAME  : linux/x86_64
 FC        : /opt/intel/composer_xe_2015.1.133/bin/intel64/ifort
 BLASLIB   : -Wl,-_start-group /opt/intel/mkl/lib/intel64/libmkl_intel_ilp64.a /opt/intel/mkl/lib/intel64/libmkl_intel_thread.a /opt/intel/mkl/lib/intel64/libmkl_core.a -Wl,-_end-group
 id        : olemiss

 Nodes     nprocs
 cn047        1

 Using customized tuning parameters: mindgm=1; mindgv=20; mindgc=4; mindgr=1; noblas=0; minvec=7
 default implementation of scratch files=df  

 ***,hno CCSD(T)/TZ-F12 QFF
 memory, 995, m;
 gthresh,energy=1.d-12,zero=1.d-22,oneint=1.d-22,twoint=1.d-22;
 gthresh,optgrad=1.d-8,optstep=1.d-8;
 nocompress;
 geomtyp=xyz
 bohr
 geometry={
 3
        102       102
 N        0.0000000000       -0.1594030621       -1.1368679282
 H        0.0000000000        1.6706494297       -1.9374514595
 O        0.0000000000        0.0305214224        1.1237297967
 }
 
 basis=av5z
   {hf,maxit=500;accu,20;}
 {ccsd(t),nocheck,maxit=250;orbital,IGNORE_ERROR;}

 Variables initialized (889), CPU time= 0.01 sec
 Commands  initialized (702), CPU time= 0.00 sec, 572 directives.
 Default parameters read. Elapsed time= 0.06 sec

 Checking input...
 Passed
1


                                         ***  PROGRAM SYSTEM MOLPRO  ***
                                       Copyright, TTI GmbH Stuttgart, 2015
                                    Version 2015.1 linked Jul  9 2018 13:16:40


 **********************************************************************************************************************************
 LABEL *   hno CCSD(T)/TZ-F12 QFF                                                        
  64 bit serial version                                                                  DATE: 08-Feb-20          TIME: 17:40:19  
 **********************************************************************************************************************************

 SHA1:             d5ffa45e93fdbca01ffc919aa182cfdae0147319
 **********************************************************************************************************************************

 THRESHOLDS:

 ZERO    =  1.00D-22  ONEINT  =  1.00D-22  TWOINT  =  1.00D-22  PREFAC  =  1.00D-14  LOCALI  =  1.00D-09  EORDER  =  1.00D-04
 ENERGY  =  1.00D-12  ETEST   =  0.00D+00  EDENS   =  0.00D+00  THRDEDEF=  1.00D-06  GRADIENT=  1.00D-02  STEP    =  1.00D-03
 ORBITAL =  1.00D-05  CIVEC   =  1.00D-05  COEFF   =  1.00D-04  PRINTCI =  5.00D-02  PUNCHCI =  9.90D+01  OPTGRAD =  3.00D-04
 OPTENERG=  1.00D-06  OPTSTEP =  3.00D-04  THRGRAD =  1.00D-10  COMPRESS=  1.00D-11  VARMIN  =  1.00D-07  VARMAX  =  1.00D-03
 THRDOUB =  0.00D+00  THRDIV  =  1.00D-05  THRRED  =  1.00D-07  THRPSP  =  1.00D+00  THRDC   =  1.00D-10  THRCS   =  1.00D-10
 THRNRM  =  1.00D-08  THREQ   =  0.00D+00  THRDE   =  1.00D+00  THRREF  =  1.00D-05  SPARFAC =  1.00D+00  THRDLP  =  1.00D-07
 THRDIA  =  1.00D-10  THRDLS  =  1.00D-07  THRGPS  =  0.00D+00  THRKEX  =  0.00D+00  THRDIS  =  2.00D-01  THRVAR  =  1.00D-10
 THRLOC  =  1.00D-06  THRGAP  =  1.00D-06  THRLOCT = -1.00D+00  THRGAPT = -1.00D+00  THRORB  =  1.00D-06  THRMLTP =  0.00D+00
 THRCPQCI=  1.00D-10  KEXTA   =  0.00D+00  THRCOARS=  0.00D+00  SYMTOL  =  1.00D-06  GRADTOL =  1.00D-06  THROVL  =  1.00D-08
 THRORTH =  1.00D-08  GRID    =  1.00D-06  GRIDMAX =  1.00D-03  DTMAX   =  0.00D+00  THROCCDE=  1.00D-01  THROCCDE=  1.00D-01



 THRESHOLDS:

 ZERO    =  1.00D-22  ONEINT  =  1.00D-22  TWOINT  =  1.00D-22  PREFAC  =  1.00D-14  LOCALI  =  1.00D-09  EORDER  =  1.00D-04
 ENERGY  =  1.00D-12  ETEST   =  0.00D+00  EDENS   =  0.00D+00  THRDEDEF=  1.00D-06  GRADIENT=  1.00D-02  STEP    =  1.00D-03
 ORBITAL =  1.00D-05  CIVEC   =  1.00D-05  COEFF   =  1.00D-04  PRINTCI =  5.00D-02  PUNCHCI =  9.90D+01  OPTGRAD =  1.00D-08
 OPTENERG=  1.00D-06  OPTSTEP =  1.00D-08  THRGRAD =  1.00D-10  COMPRESS=  1.00D-11  VARMIN  =  1.00D-07  VARMAX  =  1.00D-03
 THRDOUB =  0.00D+00  THRDIV  =  1.00D-05  THRRED  =  1.00D-07  THRPSP  =  1.00D+00  THRDC   =  1.00D-10  THRCS   =  1.00D-10
 THRNRM  =  1.00D-08  THREQ   =  0.00D+00  THRDE   =  1.00D+00  THRREF  =  1.00D-05  SPARFAC =  1.00D+00  THRDLP  =  1.00D-07
 THRDIA  =  1.00D-10  THRDLS  =  1.00D-07  THRGPS  =  0.00D+00  THRKEX  =  0.00D+00  THRDIS  =  2.00D-01  THRVAR  =  1.00D-10
 THRLOC  =  1.00D-06  THRGAP  =  1.00D-06  THRLOCT = -1.00D+00  THRGAPT = -1.00D+00  THRORB  =  1.00D-06  THRMLTP =  0.00D+00
 THRCPQCI=  1.00D-10  KEXTA   =  0.00D+00  THRCOARS=  0.00D+00  SYMTOL  =  1.00D-06  GRADTOL =  1.00D-06  THROVL  =  1.00D-08
 THRORTH =  1.00D-08  GRID    =  1.00D-06  GRIDMAX =  1.00D-03  DTMAX   =  0.00D+00  THROCCDE=  1.00D-01  THROCCDE=  1.00D-01



 Input parameters for SORTINT:

 COMPRESS =    0.000000
 C_FINAL  =    1.000000
 DEBUG    =   -1.000000
 C_SORT1  =    0.000000
 C_SEWARD =    0.000000
 THRESH   =    0.000000
 IO       =  molpro                                                          
 SPRI     =    0.000000
 SETTING GEOMTYP        =    XYZ
 ZUNIT=BOHR
 

 Variable memory set to  995000000 words,  buffer space   230000 words

 SETTING BASIS          =    AV5Z


 Recomputing integrals since basis changed


 Using spherical harmonics

 Library entry N      S aug-cc-pV5Z          selected for orbital group  1
 Library entry N      P aug-cc-pV5Z          selected for orbital group  1
 Library entry N      D aug-cc-pV5Z          selected for orbital group  1
 Library entry N      F aug-cc-pV5Z          selected for orbital group  1
 Library entry N      G aug-cc-pV5Z          selected for orbital group  1
 Library entry N      H aug-cc-pV5Z          selected for orbital group  1
 Library entry H      S aug-cc-pV5Z          selected for orbital group  2
 Library entry H      P aug-cc-pV5Z          selected for orbital group  2
 Library entry H      D aug-cc-pV5Z          selected for orbital group  2
 Library entry H      F aug-cc-pV5Z          selected for orbital group  2
 Library entry H      G aug-cc-pV5Z          selected for orbital group  2
 Library entry O      S aug-cc-pV5Z          selected for orbital group  3
 Library entry O      P aug-cc-pV5Z          selected for orbital group  3
 Library entry O      D aug-cc-pV5Z          selected for orbital group  3
 Library entry O      F aug-cc-pV5Z          selected for orbital group  3
 Library entry O      G aug-cc-pV5Z          selected for orbital group  3
 Library entry O      H aug-cc-pV5Z          selected for orbital group  3


 PROGRAM * SEWARD (Integral evaluation for generally contracted gaussian basis sets)     Author: Roland Lindh, 1990

 Geometry written to block  1 of record 700


 Point group  Cs  



 ATOMIC COORDINATES

 NR  ATOM    CHARGE       X              Y              Z

   1  N       7.00    0.000000000   -0.159403062   -1.136867928
   2  H       1.00    0.000000000    1.670649430   -1.937451460
   3  O       8.00    0.000000000    0.030521422    1.123729797

 Bond lengths in Bohr (Angstrom)

 1-2  1.997504972  1-3  2.268561964
     ( 1.057034110)     ( 1.200471293)

 Bond angles

  2-1-3  108.82524850

 NUCLEAR CHARGE:                   16
 NUMBER OF PRIMITIVE AOS:         506
 NUMBER OF SYMMETRY AOS:          371
 NUMBER OF CONTRACTIONS:          334   ( 204A'  + 130A"  )
 NUMBER OF CORE ORBITALS:           2   (   2A'  +   0A"  )
 NUMBER OF VALENCE ORBITALS:        9   (   7A'  +   2A"  )


 NUCLEAR REPULSION ENERGY   30.49318119


 Eigenvalues of metric

         1 0.112E-04 0.169E-04 0.636E-04 0.982E-04 0.103E-03 0.134E-03 0.198E-03 0.224E-03
         2 0.124E-03 0.369E-03 0.110E-02 0.153E-02 0.196E-02 0.246E-02 0.329E-02 0.391E-02


 Contracted 2-electron integrals neglected if value below      1.0D-22

      756977385. INTEGRALS WRITTEN OUT IN  184855 BLOCKS ON RECORD 1290 OF FILE 1


 NUMBER OF SORTED TWO-ELECTRON INTEGRALS:  789027325.     BUFFER LENGTH:  32768
 NUMBER OF SEGMENTS:  25  SEGMENT LENGTH:   31997130      RECORD LENGTH: 524288

 Memory used in sort:      32.55 MW

 SORT1 READ   756977385. AND WROTE   760993267. INTEGRALS IN   2189 RECORDS. CPU TIME:    25.12 SEC, REAL TIME:    85.66 SEC
 SORT2 READ   760993267. AND WROTE   789027325. INTEGRALS IN     25 RECORDS. CPU TIME:    10.28 SEC, REAL TIME:    23.83 SEC

 FILE SIZES:   FILE 1: 12137.5 MBYTE,  FILE 4:  9181.4 MBYTE,   TOTAL:  21318.9 MBYTE

 OPERATOR DM      FOR CENTER  0  COORDINATES:    0.000000    0.000000    0.000000


 **********************************************************************************************************************************
 DATASETS  * FILE   NREC   LENGTH (MB)   RECORD NAMES
              1      19     6374.22       500      610      700      900      950      970     1000      129      960     1100   
                                          VAR    BASINP    GEOM    SYMINP    ZMAT    AOBASIS   BASIS     P2S    ABASIS      S 
                                         1400     1410     1200     1210     1080     1600     1650     1300     1700   
                                           T        V       H0       H01     AOSYM     SMH    MOLCAS    ERIS     OPER   

 PROGRAMS   *        TOTAL       INT
 CPU TIMES  *       151.47    151.36
 REAL TIME  *       233.82 SEC
 DISK USED  *        21.32 GB      
 **********************************************************************************************************************************


 PROGRAM * RHF-SCF (CLOSED SHELL)       Authors: W. Meyer, H.-J. Werner


 NUMBER OF ELECTRONS:       8+    8-
 CONVERGENCE THRESHOLDS:    1.00E-10 (Density)    1.00E-13 (Energy)
 MAX. NUMBER OF ITERATIONS:      500
 INTERPOLATION TYPE:            DIIS
 INTERPOLATION STEPS:              2 (START)      1 (STEP)
 LEVEL SHIFTS:                  0.00 (CLOSED)  0.00 (OPEN) 



 Orbital guess generated from atomic densities. Full valence occupancy:    9   2

 Molecular orbital dump at record        2100.2

 Initial occupancy:   7   1

 ITERATION    DDIFF          GRAD             ENERGY        2-EL.EN.            DIPOLE MOMENTS         DIIS   ORB.
    1      0.000D+00      0.000D+00      -129.80021935    154.194398    0.00000    0.59414   -1.00675    0    start
    2      0.000D+00      0.637D-02      -129.82764219    155.438196    0.00000    0.60477   -0.21126    1    diag
    3      0.395D-02      0.479D-02      -129.84959326    155.546611    0.00000    0.55367   -0.58492    2    diag
    4      0.203D-02      0.763D-03      -129.85038489    155.266745    0.00000    0.56086   -0.52440    3    diag
    5      0.375D-03      0.247D-03      -129.85050873    155.360393    0.00000    0.56624   -0.52712    4    diag
    6      0.155D-03      0.716D-04      -129.85052854    155.344118    0.00000    0.56656   -0.52302    5    diag
    7      0.595D-04      0.354D-04      -129.85053420    155.347003    0.00000    0.56782   -0.52051    6    diag
    8      0.405D-04      0.122D-04      -129.85053481    155.346322    0.00000    0.56788   -0.51954    7    diag
    9      0.151D-04      0.234D-05      -129.85053484    155.346214    0.00000    0.56784   -0.51933    8    diag
   10      0.301D-05      0.540D-06      -129.85053484    155.346195    0.00000    0.56781   -0.51930    9    orth
   11      0.613D-06      0.110D-06      -129.85053484    155.346191    0.00000    0.56780   -0.51929    9    diag
   12      0.117D-06      0.220D-07      -129.85053484    155.346191    0.00000    0.56780   -0.51929    9    diag
   13      0.253D-07      0.572D-08      -129.85053484    155.346191    0.00000    0.56780   -0.51929    9    diag
   14      0.675D-08      0.113D-08      -129.85053484    155.346191    0.00000    0.56780   -0.51929    9    diag
   15      0.126D-08      0.327D-09      -129.85053484    155.346191    0.00000    0.56780   -0.51929    9    diag
   16      0.372D-09      0.100D-09      -129.85053484    155.346191    0.00000    0.56780   -0.51929    9    diag
   17      0.774D-10      0.274D-10      -129.85053484    155.346191    0.00000    0.56780   -0.51929    9    diag
   18      0.248D-10      0.939D-11      -129.85053484    155.346191    0.00000    0.56780   -0.51929    9    diag
   19      0.197D-10      0.237D-11      -129.85053484    155.346191    0.00000    0.56780   -0.51929    0    orth

 Final occupancy:   7   1

 !RHF STATE 1.1 Energy               -129.850534838840
 Nuclear energy                        30.49318119
 One-electron energy                 -238.01681144
 Two-electron energy                   77.67309541
 Virial quotient                       -1.00155112
 !RHF STATE 1.1 Dipole moment           0.00000000     0.56779861    -0.51929319
 Dipole moment /Debye                   0.00000000     1.44310559    -1.31982517

 Orbital energies:

         1.1          2.1          3.1          4.1          5.1          6.1          7.1          8.1          9.1
    -20.652493   -15.711449    -1.535118    -0.991768    -0.748911    -0.668408    -0.427522     0.022895     0.065550

         1.2          2.2          3.2
     -0.599641     0.061579     0.092327

 HOMO      7.1    -0.427522 =     -11.6335eV
 LUMO      8.1     0.022895 =       0.6230eV
 LUMO-HOMO         0.450417 =      12.2565eV


 **********************************************************************************************************************************
 DATASETS  * FILE   NREC   LENGTH (MB)   RECORD NAMES
              1      19     6374.22       500      610      700      900      950      970     1000      129      960     1100   
                                          VAR    BASINP    GEOM    SYMINP    ZMAT    AOBASIS   BASIS     P2S    ABASIS      S 
                                         1400     1410     1200     1210     1080     1600     1650     1300     1700   
                                           T        V       H0       H01     AOSYM     SMH    MOLCAS    ERIS     OPER   

              2       4        4.02       700     1000      520     2100   
                                         GEOM     BASIS   MCVARS     RHF  

 PROGRAMS   *        TOTAL        HF       INT
 CPU TIMES  *       227.18     75.71    151.36
 REAL TIME  *       331.28 SEC
 DISK USED  *        21.32 GB      
 **********************************************************************************************************************************


 PROGRAM * CCSD (Closed-shell coupled cluster)     Authors: C. Hampel, H.-J. Werner, 1991, M. Deegan, P.J. Knowles, 1992


 Convergence thresholds:  THRVAR = 1.00D-08  THRDEN = 1.00D-12

 CCSD(T)     terms to be evaluated (factor= 1.000)


 Number of core orbitals:           2 (   2   0 )
 Number of closed-shell orbitals:   6 (   5   1 )
 Number of external orbitals:     326 ( 197 129 )

 Molecular orbitals read from record     2100.2  Type=RHF/CANONICAL (state 1.1)

 Number of N-1 electron functions:               6
 Number of N-2 electron functions:              21
 Number of singly external CSFs:              1114
 Number of doubly external CSFs:            975958
 Total number of CSFs:                      977073

 Length of J-op  integral file:               0.00 MB
 Length of K-op  integral file:               4.07 MB
 Length of 3-ext integral record:             0.00 MB

 Memory could be reduced to 151.33 Mwords without degradation in triples

 Integral transformation finished. Total CPU:  13.63 sec, npass=  1  Memory used:  41.21 MW

 Reference energy:                   -129.85053484

 MP2 singlet pair energy:              -0.31052900
 MP2 triplet pair energy:              -0.17157817
 MP2 correlation energy:               -0.48210717
 MP2 total energy:                   -130.33264201

 SCS-MP2 correlation energy:           -0.47939455   (PS=  1.200000  PT=  0.333333)
 SCS-MP2 total energy:               -130.32992939

 ITER.      SQ.NORM     CORR.ENERGY   TOTAL ENERGY   ENERGY CHANGE        DEN1      VAR(S)    VAR(P)  DIIS     TIME  TIME/IT
   1      1.11997615    -0.47938681  -130.32992165     0.00272036     0.01911739  0.31D-02  0.31D-02  1  1    24.29    11.72
   2      1.13045839    -0.47932929  -130.32986412     0.00005753    -0.01251648  0.10D-03  0.48D-03  2  2    35.21    11.91
   3      1.13650525    -0.47970385  -130.33023869    -0.00037457    -0.00296937  0.47D-04  0.55D-04  3  3    46.21    12.01
   4      1.13922534    -0.47970088  -130.33023571     0.00000298    -0.00095098  0.44D-05  0.98D-05  4  4    57.06    12.03
   5      1.14032034    -0.47972903  -130.33026387    -0.00002816    -0.00024334  0.11D-05  0.17D-05  5  5    67.97    12.06
   6      1.14066866    -0.47971811  -130.33025295     0.00001092    -0.00004885  0.12D-06  0.41D-06  6  6    78.86    12.07
   7      1.14074607    -0.47971759  -130.33025243     0.00000052     0.00000282  0.18D-07  0.92D-07  6  1    89.72    12.07
   8      1.14077152    -0.47971770  -130.33025254    -0.00000011    -0.00000299  0.37D-08  0.18D-07  6  2   100.73    12.10
   9      1.14078031    -0.47971715  -130.33025198     0.00000055    -0.00000023  0.22D-08  0.19D-08  6  3   111.83    12.13
  10      1.14077592    -0.47971786  -130.33025270    -0.00000072     0.00000151  0.34D-09  0.31D-09  6  5   123.80    12.23
  11      1.14077772    -0.47971786  -130.33025269     0.00000001    -0.00000031  0.96D-10  0.26D-10  6  4   137.51    12.49
  12      1.14077728    -0.47971792  -130.33025276    -0.00000006     0.00000005  0.18D-10  0.61D-11  6  6   151.16    12.71
  13      1.14077706    -0.47971792  -130.33025276    -0.00000000    -0.00000003  0.32D-11  0.93D-12  6  1   164.87    12.90
  14      1.14077679    -0.47971793  -130.33025277    -0.00000001     0.00000004  0.49D-12  0.17D-12  6  3   178.40    13.04
  15      1.14077671    -0.47971794  -130.33025278    -0.00000000     0.00000001  0.13D-12  0.24D-13  6  2   189.38    13.00
  16      1.14077670    -0.47971794  -130.33025278     0.00000000     0.00000000  0.32D-13  0.94D-14  6  4   200.59    12.96
  17      1.14077670    -0.47971794  -130.33025278    -0.00000000    -0.00000000  0.18D-14  0.12D-14  6  5   211.74    12.93
  18      1.14077671    -0.47971794  -130.33025278     0.00000000    -0.00000000  0.28D-15  0.31D-15  6  6   222.90    12.90
  19      1.14077671    -0.47971794  -130.33025278     0.00000000    -0.00000000  0.35D-16  0.46D-16  6  2   234.13    12.88
  20      1.14077671    -0.47971794  -130.33025278     0.00000000    -0.00000000  0.92D-17  0.66D-17  6  1   245.22    12.85
  21      1.14077671    -0.47971794  -130.33025278    -0.00000000     0.00000000  0.16D-17  0.95D-18  6  3   256.63    12.85
  22      1.14077671    -0.47971794  -130.33025278    -0.00000000     0.00000000  0.31D-18  0.14D-18  6  4   267.82    12.83
  23      1.14077671    -0.47971794  -130.33025278    -0.00000000     0.00000000  0.10D-18  0.53D-19  6  5   279.00    12.81
  24      1.14077671    -0.47971794  -130.33025278    -0.00000000     0.00000000  0.53D-19  0.28D-19  6  6   290.17    12.79
  25      1.14077671    -0.47971794  -130.33025278     0.00000000     0.00000000  0.29D-19  0.15D-19  6  2   301.30    12.78

 Norm of t1 vector:      0.07539770      S-energy:    -0.00000000      T1 diagnostic:  0.01539049
                                                                       D1 diagnostic:  0.04128669

 Doubles amplitudes (print threshold =  0.500E-01):

         I         J         SYM. A    SYM. B    A         B      T(IJ, AB)

         6         6         2         2         1         1     -0.07354931
         6         6         2         2         1         2      0.05284985
         6         6         2         2         2         1      0.05284985


 Total CPU time for triples:    117.65 sec


 RESULTS
 =======

  Reference energy                   -129.850534838840
  CCSD singlet pair energy             -0.332635904633
  CCSD triplet pair energy             -0.147082031967
  CCSD correlation energy              -0.479717936601

  Triples (T) contribution             -0.022721630095
  Total correlation energy             -0.502439566696

  CCSD total energy                  -130.330252775441
  CCSD[T] energy                     -130.354028686710
  CCSD-T energy                      -130.352600348125
 !CCSD(T) total energy               -130.352974405536

 Timing summary (sec):

 STEP                 CPU(USER)    SYS     CPU(TOT)    WALL
 Transformation         13.70      1.64     15.34     15.34
 CCSD iterations       287.60     31.84    319.44    319.48
 Triples               117.65      2.17    119.82    119.81

 Program statistics:

 Available memory in ccsd:               994999756
 Min. memory needed in ccsd:               3348832
 Max. memory used in ccsd:                 4143652
 Max. memory used in cckext:               8340089 (25 integral passes)



 **********************************************************************************************************************************
 DATASETS  * FILE   NREC   LENGTH (MB)   RECORD NAMES
              1      20     6809.41       500      610      700      900      950      970     1000      129      960     1100   
                                          VAR    BASINP    GEOM    SYMINP    ZMAT    AOBASIS   BASIS     P2S    ABASIS      S 
                                         1400     1410     1200     1210     1080     1600     1650     1300     1700     1380   
                                           T        V       H0       H01     AOSYM     SMH    MOLCAS    ERIS     OPER     JKOP   

              2       4        4.02       700     1000      520     2100   
                                         GEOM     BASIS   MCVARS     RHF  

 PROGRAMS   *        TOTAL   CCSD(T)        HF       INT
 CPU TIMES  *       646.17    418.97     75.71    151.36
 REAL TIME  *       785.97 SEC
 DISK USED  *        21.32 GB      
 **********************************************************************************************************************************

 CCSD(T)/aug-cc-pV5Z energy=   -130.352974405536

        CCSD(T)         HF-SCF  
   -130.35297441   -129.85053484
 **********************************************************************************************************************************
 Molpro calculation terminated
 Variable memory released
