
 Primary working directories    : /tmp/r2666/234719.maple
 Secondary working directories  : /tmp/r2666/234719.maple
 Wavefunction directory         : /ddn/home4/r2666/wfu/
 Main file repository           : /tmp/r2666/234719.maple/

 SHA1      : d5ffa45e93fdbca01ffc919aa182cfdae0147319
 NAME      : 2015.1.35
 ARCHNAME  : linux/x86_64
 FC        : /opt/intel/composer_xe_2015.1.133/bin/intel64/ifort
 BLASLIB   : -Wl,-_start-group /opt/intel/mkl/lib/intel64/libmkl_intel_ilp64.a /opt/intel/mkl/lib/intel64/libmkl_intel_thread.a /opt/intel/mkl/lib/intel64/libmkl_core.a -Wl,-_end-group
 id        : olemiss

 Nodes     nprocs
 cn030        1

 Using customized tuning parameters: mindgm=1; mindgv=20; mindgc=4; mindgr=1; noblas=0; minvec=7
 default implementation of scratch files=df  

 ***,hno CCSD(T)/TZ-F12 QFF
 memory, 995, m;
 gthresh,energy=1.d-12,zero=1.d-22,oneint=1.d-22,twoint=1.d-22;
 gthresh,optgrad=1.d-8,optstep=1.d-8;
 nocompress;
 geomtyp=xyz
 bohr
 geometry={
 3
         91        91
 N        0.0000000000       -0.1647754998       -1.1377786112
 H        0.0000000000        1.6696720741       -1.9282393704
 O        0.0000000000        0.0368712156        1.1154283906
 }
 
 basis=av5z
   {hf,maxit=500;accu,20;}
 {ccsd(t),nocheck,maxit=250;orbital,IGNORE_ERROR;}

 Variables initialized (889), CPU time= 0.01 sec
 Commands  initialized (702), CPU time= 0.00 sec, 572 directives.
 Default parameters read. Elapsed time= 0.05 sec

 Checking input...
 Passed
1


                                         ***  PROGRAM SYSTEM MOLPRO  ***
                                       Copyright, TTI GmbH Stuttgart, 2015
                                    Version 2015.1 linked Jul  9 2018 13:16:40


 **********************************************************************************************************************************
 LABEL *   hno CCSD(T)/TZ-F12 QFF                                                        
  64 bit serial version                                                                  DATE: 08-Feb-20          TIME: 17:39:36  
 **********************************************************************************************************************************

 SHA1:             d5ffa45e93fdbca01ffc919aa182cfdae0147319
 **********************************************************************************************************************************

 THRESHOLDS:

 ZERO    =  1.00D-22  ONEINT  =  1.00D-22  TWOINT  =  1.00D-22  PREFAC  =  1.00D-14  LOCALI  =  1.00D-09  EORDER  =  1.00D-04
 ENERGY  =  1.00D-12  ETEST   =  0.00D+00  EDENS   =  0.00D+00  THRDEDEF=  1.00D-06  GRADIENT=  1.00D-02  STEP    =  1.00D-03
 ORBITAL =  1.00D-05  CIVEC   =  1.00D-05  COEFF   =  1.00D-04  PRINTCI =  5.00D-02  PUNCHCI =  9.90D+01  OPTGRAD =  3.00D-04
 OPTENERG=  1.00D-06  OPTSTEP =  3.00D-04  THRGRAD =  1.00D-10  COMPRESS=  1.00D-11  VARMIN  =  1.00D-07  VARMAX  =  1.00D-03
 THRDOUB =  0.00D+00  THRDIV  =  1.00D-05  THRRED  =  1.00D-07  THRPSP  =  1.00D+00  THRDC   =  1.00D-10  THRCS   =  1.00D-10
 THRNRM  =  1.00D-08  THREQ   =  0.00D+00  THRDE   =  1.00D+00  THRREF  =  1.00D-05  SPARFAC =  1.00D+00  THRDLP  =  1.00D-07
 THRDIA  =  1.00D-10  THRDLS  =  1.00D-07  THRGPS  =  0.00D+00  THRKEX  =  0.00D+00  THRDIS  =  2.00D-01  THRVAR  =  1.00D-10
 THRLOC  =  1.00D-06  THRGAP  =  1.00D-06  THRLOCT = -1.00D+00  THRGAPT = -1.00D+00  THRORB  =  1.00D-06  THRMLTP =  0.00D+00
 THRCPQCI=  1.00D-10  KEXTA   =  0.00D+00  THRCOARS=  0.00D+00  SYMTOL  =  1.00D-06  GRADTOL =  1.00D-06  THROVL  =  1.00D-08
 THRORTH =  1.00D-08  GRID    =  1.00D-06  GRIDMAX =  1.00D-03  DTMAX   =  0.00D+00  THROCCDE=  1.00D-01  THROCCDE=  1.00D-01



 THRESHOLDS:

 ZERO    =  1.00D-22  ONEINT  =  1.00D-22  TWOINT  =  1.00D-22  PREFAC  =  1.00D-14  LOCALI  =  1.00D-09  EORDER  =  1.00D-04
 ENERGY  =  1.00D-12  ETEST   =  0.00D+00  EDENS   =  0.00D+00  THRDEDEF=  1.00D-06  GRADIENT=  1.00D-02  STEP    =  1.00D-03
 ORBITAL =  1.00D-05  CIVEC   =  1.00D-05  COEFF   =  1.00D-04  PRINTCI =  5.00D-02  PUNCHCI =  9.90D+01  OPTGRAD =  1.00D-08
 OPTENERG=  1.00D-06  OPTSTEP =  1.00D-08  THRGRAD =  1.00D-10  COMPRESS=  1.00D-11  VARMIN  =  1.00D-07  VARMAX  =  1.00D-03
 THRDOUB =  0.00D+00  THRDIV  =  1.00D-05  THRRED  =  1.00D-07  THRPSP  =  1.00D+00  THRDC   =  1.00D-10  THRCS   =  1.00D-10
 THRNRM  =  1.00D-08  THREQ   =  0.00D+00  THRDE   =  1.00D+00  THRREF  =  1.00D-05  SPARFAC =  1.00D+00  THRDLP  =  1.00D-07
 THRDIA  =  1.00D-10  THRDLS  =  1.00D-07  THRGPS  =  0.00D+00  THRKEX  =  0.00D+00  THRDIS  =  2.00D-01  THRVAR  =  1.00D-10
 THRLOC  =  1.00D-06  THRGAP  =  1.00D-06  THRLOCT = -1.00D+00  THRGAPT = -1.00D+00  THRORB  =  1.00D-06  THRMLTP =  0.00D+00
 THRCPQCI=  1.00D-10  KEXTA   =  0.00D+00  THRCOARS=  0.00D+00  SYMTOL  =  1.00D-06  GRADTOL =  1.00D-06  THROVL  =  1.00D-08
 THRORTH =  1.00D-08  GRID    =  1.00D-06  GRIDMAX =  1.00D-03  DTMAX   =  0.00D+00  THROCCDE=  1.00D-01  THROCCDE=  1.00D-01



 Input parameters for SORTINT:

 COMPRESS =    0.000000
 C_FINAL  =    1.000000
 DEBUG    =   -1.000000
 C_SORT1  =    0.000000
 C_SEWARD =    0.000000
 THRESH   =    0.000000
 IO       =  molpro                                                          
 SPRI     =    0.000000
 SETTING GEOMTYP        =    XYZ
 ZUNIT=BOHR
 

 Variable memory set to  995000000 words,  buffer space   230000 words

 SETTING BASIS          =    AV5Z


 Recomputing integrals since basis changed


 Using spherical harmonics

 Library entry N      S aug-cc-pV5Z          selected for orbital group  1
 Library entry N      P aug-cc-pV5Z          selected for orbital group  1
 Library entry N      D aug-cc-pV5Z          selected for orbital group  1
 Library entry N      F aug-cc-pV5Z          selected for orbital group  1
 Library entry N      G aug-cc-pV5Z          selected for orbital group  1
 Library entry N      H aug-cc-pV5Z          selected for orbital group  1
 Library entry H      S aug-cc-pV5Z          selected for orbital group  2
 Library entry H      P aug-cc-pV5Z          selected for orbital group  2
 Library entry H      D aug-cc-pV5Z          selected for orbital group  2
 Library entry H      F aug-cc-pV5Z          selected for orbital group  2
 Library entry H      G aug-cc-pV5Z          selected for orbital group  2
 Library entry O      S aug-cc-pV5Z          selected for orbital group  3
 Library entry O      P aug-cc-pV5Z          selected for orbital group  3
 Library entry O      D aug-cc-pV5Z          selected for orbital group  3
 Library entry O      F aug-cc-pV5Z          selected for orbital group  3
 Library entry O      G aug-cc-pV5Z          selected for orbital group  3
 Library entry O      H aug-cc-pV5Z          selected for orbital group  3


 PROGRAM * SEWARD (Integral evaluation for generally contracted gaussian basis sets)     Author: Roland Lindh, 1990

 Geometry written to block  1 of record 700


 Point group  Cs  



 ATOMIC COORDINATES

 NR  ATOM    CHARGE       X              Y              Z

   1  N       7.00    0.000000000   -0.164775500   -1.137778611
   2  H       1.00    0.000000000    1.669672074   -1.928239370
   3  O       8.00    0.000000000    0.036871216    1.115428391

 Bond lengths in Bohr (Angstrom)

 1-2  1.997504972  1-3  2.262212013
     ( 1.057034110)     ( 1.197111043)

 Bond angles

  2-1-3  108.19717958

 NUCLEAR CHARGE:                   16
 NUMBER OF PRIMITIVE AOS:         506
 NUMBER OF SYMMETRY AOS:          371
 NUMBER OF CONTRACTIONS:          334   ( 204A'  + 130A"  )
 NUMBER OF CORE ORBITALS:           2   (   2A'  +   0A"  )
 NUMBER OF VALENCE ORBITALS:        9   (   7A'  +   2A"  )


 NUCLEAR REPULSION ENERGY   30.57507500


 Eigenvalues of metric

         1 0.112E-04 0.169E-04 0.637E-04 0.970E-04 0.102E-03 0.134E-03 0.198E-03 0.223E-03
         2 0.123E-03 0.369E-03 0.109E-02 0.150E-02 0.195E-02 0.245E-02 0.329E-02 0.387E-02


 Contracted 2-electron integrals neglected if value below      1.0D-22

      756977539. INTEGRALS WRITTEN OUT IN  184855 BLOCKS ON RECORD 1290 OF FILE 1


 NUMBER OF SORTED TWO-ELECTRON INTEGRALS:  789027325.     BUFFER LENGTH:  32768
 NUMBER OF SEGMENTS:  25  SEGMENT LENGTH:   31997130      RECORD LENGTH: 524288

 Memory used in sort:      32.55 MW

 SORT1 READ   756977539. AND WROTE   760993427. INTEGRALS IN   2189 RECORDS. CPU TIME:    22.29 SEC, REAL TIME:    29.76 SEC
 SORT2 READ   760993427. AND WROTE   789027325. INTEGRALS IN     25 RECORDS. CPU TIME:    10.19 SEC, REAL TIME:    14.23 SEC

 FILE SIZES:   FILE 1: 12137.5 MBYTE,  FILE 4:  9181.4 MBYTE,   TOTAL:  21318.9 MBYTE

 OPERATOR DM      FOR CENTER  0  COORDINATES:    0.000000    0.000000    0.000000


 **********************************************************************************************************************************
 DATASETS  * FILE   NREC   LENGTH (MB)   RECORD NAMES
              1      19     6374.22       500      610      700      900      950      970     1000      129      960     1100   
                                          VAR    BASINP    GEOM    SYMINP    ZMAT    AOBASIS   BASIS     P2S    ABASIS      S 
                                         1400     1410     1200     1210     1080     1600     1650     1300     1700   
                                           T        V       H0       H01     AOSYM     SMH    MOLCAS    ERIS     OPER   

 PROGRAMS   *        TOTAL       INT
 CPU TIMES  *       138.15    138.06
 REAL TIME  *       157.65 SEC
 DISK USED  *        21.32 GB      
 **********************************************************************************************************************************


 PROGRAM * RHF-SCF (CLOSED SHELL)       Authors: W. Meyer, H.-J. Werner


 NUMBER OF ELECTRONS:       8+    8-
 CONVERGENCE THRESHOLDS:    1.00E-10 (Density)    1.00E-13 (Energy)
 MAX. NUMBER OF ITERATIONS:      500
 INTERPOLATION TYPE:            DIIS
 INTERPOLATION STEPS:              2 (START)      1 (STEP)
 LEVEL SHIFTS:                  0.00 (CLOSED)  0.00 (OPEN) 



 Orbital guess generated from atomic densities. Full valence occupancy:    9   2

 Molecular orbital dump at record        2100.2

 Initial occupancy:   7   1

 ITERATION    DDIFF          GRAD             ENERGY        2-EL.EN.            DIPOLE MOMENTS         DIIS   ORB.
    1      0.000D+00      0.000D+00      -129.80103326    154.344108    0.00000    0.58716   -0.99450    0    start
    2      0.000D+00      0.635D-02      -129.82855158    155.590797    0.00000    0.60299   -0.20982    1    diag
    3      0.393D-02      0.474D-02      -129.85002656    155.692508    0.00000    0.54964   -0.57724    2    diag
    4      0.201D-02      0.758D-03      -129.85080865    155.415664    0.00000    0.55722   -0.51749    3    diag
    5      0.373D-03      0.246D-03      -129.85093128    155.508794    0.00000    0.56253   -0.52022    4    diag
    6      0.154D-03      0.714D-04      -129.85095090    155.492558    0.00000    0.56286   -0.51619    5    diag
    7      0.592D-04      0.351D-04      -129.85095646    155.495478    0.00000    0.56413   -0.51371    6    diag
    8      0.402D-04      0.120D-04      -129.85095705    155.494805    0.00000    0.56419   -0.51277    7    diag
    9      0.147D-04      0.229D-05      -129.85095708    155.494699    0.00000    0.56415   -0.51256    8    diag
   10      0.291D-05      0.528D-06      -129.85095708    155.494681    0.00000    0.56412   -0.51253    9    orth
   11      0.597D-06      0.108D-06      -129.85095708    155.494677    0.00000    0.56411   -0.51253    9    diag
   12      0.116D-06      0.218D-07      -129.85095708    155.494677    0.00000    0.56411   -0.51252    9    diag
   13      0.253D-07      0.563D-08      -129.85095708    155.494677    0.00000    0.56411   -0.51252    9    diag
   14      0.669D-08      0.112D-08      -129.85095708    155.494677    0.00000    0.56411   -0.51252    9    diag
   15      0.124D-08      0.327D-09      -129.85095708    155.494677    0.00000    0.56411   -0.51252    9    diag
   16      0.370D-09      0.101D-09      -129.85095708    155.494677    0.00000    0.56411   -0.51252    9    diag
   17      0.730D-10      0.281D-10      -129.85095708    155.494677    0.00000    0.56411   -0.51252    0    orth

 Final occupancy:   7   1

 !RHF STATE 1.1 Energy               -129.850957077302
 Nuclear energy                        30.57507500
 One-electron energy                 -238.17337039
 Two-electron energy                   77.74733832
 Virial quotient                       -1.00142770
 !RHF STATE 1.1 Dipole moment           0.00000000     0.56410848    -0.51252380
 Dipole moment /Debye                   0.00000000     1.43372683    -1.30262025

 Orbital energies:

         1.1          2.1          3.1          4.1          5.1          6.1          7.1          8.1          9.1
    -20.652012   -15.710991    -1.538239    -0.990604    -0.749997    -0.669250    -0.426898     0.022978     0.065562

         1.2          2.2          3.2
     -0.601355     0.062303     0.092703

 HOMO      7.1    -0.426898 =     -11.6165eV
 LUMO      8.1     0.022978 =       0.6253eV
 LUMO-HOMO         0.449876 =      12.2417eV


 **********************************************************************************************************************************
 DATASETS  * FILE   NREC   LENGTH (MB)   RECORD NAMES
              1      19     6374.22       500      610      700      900      950      970     1000      129      960     1100   
                                          VAR    BASINP    GEOM    SYMINP    ZMAT    AOBASIS   BASIS     P2S    ABASIS      S 
                                         1400     1410     1200     1210     1080     1600     1650     1300     1700   
                                           T        V       H0       H01     AOSYM     SMH    MOLCAS    ERIS     OPER   

              2       4        4.02       700     1000      520     2100   
                                         GEOM     BASIS   MCVARS     RHF  

 PROGRAMS   *        TOTAL        HF       INT
 CPU TIMES  *       207.14     68.99    138.06
 REAL TIME  *       249.96 SEC
 DISK USED  *        21.32 GB      
 **********************************************************************************************************************************


 PROGRAM * CCSD (Closed-shell coupled cluster)     Authors: C. Hampel, H.-J. Werner, 1991, M. Deegan, P.J. Knowles, 1992


 Convergence thresholds:  THRVAR = 1.00D-08  THRDEN = 1.00D-12

 CCSD(T)     terms to be evaluated (factor= 1.000)


 Number of core orbitals:           2 (   2   0 )
 Number of closed-shell orbitals:   6 (   5   1 )
 Number of external orbitals:     326 ( 197 129 )

 Molecular orbitals read from record     2100.2  Type=RHF/CANONICAL (state 1.1)

 Number of N-1 electron functions:               6
 Number of N-2 electron functions:              21
 Number of singly external CSFs:              1114
 Number of doubly external CSFs:            975958
 Total number of CSFs:                      977073

 Length of J-op  integral file:               0.00 MB
 Length of K-op  integral file:               4.07 MB
 Length of 3-ext integral record:             0.00 MB

 Memory could be reduced to 151.33 Mwords without degradation in triples

 Integral transformation finished. Total CPU:  14.62 sec, npass=  1  Memory used:  41.21 MW

 Reference energy:                   -129.85095708

 MP2 singlet pair energy:              -0.31019300
 MP2 triplet pair energy:              -0.17135128
 MP2 correlation energy:               -0.48154428
 MP2 total energy:                   -130.33250136

 SCS-MP2 correlation energy:           -0.47885018   (PS=  1.200000  PT=  0.333333)
 SCS-MP2 total energy:               -130.32980726

 ITER.      SQ.NORM     CORR.ENERGY   TOTAL ENERGY   ENERGY CHANGE        DEN1      VAR(S)    VAR(P)  DIIS     TIME  TIME/IT
   1      1.11960416    -0.47895818  -130.32991526     0.00258610     0.01882687  0.30D-02  0.31D-02  1  1    25.70    12.41
   2      1.12999420    -0.47893121  -130.32988828     0.00002697    -0.01242335  0.99D-04  0.47D-03  2  2    37.07    12.54
   3      1.13596897    -0.47929945  -130.33025653    -0.00036824    -0.00294956  0.45D-04  0.54D-04  3  3    48.78    12.68
   4      1.13864388    -0.47929671  -130.33025379     0.00000274    -0.00093907  0.42D-05  0.95D-05  4  4    59.97    12.67
   5      1.13970885    -0.47932421  -130.33028129    -0.00002750    -0.00023726  0.11D-05  0.16D-05  5  5    71.05    12.64
   6      1.14004825    -0.47931365  -130.33027073     0.00001057    -0.00004762  0.12D-06  0.40D-06  6  6    82.35    12.64
   7      1.14012422    -0.47931312  -130.33027019     0.00000053     0.00000271  0.18D-07  0.89D-07  6  1    93.51    12.63
   8      1.14014916    -0.47931324  -130.33027031    -0.00000012    -0.00000291  0.37D-08  0.18D-07  6  2   104.59    12.61
   9      1.14015774    -0.47931271  -130.33026978     0.00000053    -0.00000024  0.21D-08  0.18D-08  6  3   115.69    12.60
  10      1.14015350    -0.47931340  -130.33027048    -0.00000070     0.00000147  0.32D-09  0.29D-09  6  5   126.86    12.59
  11      1.14015521    -0.47931340  -130.33027047     0.00000001    -0.00000029  0.90D-10  0.24D-10  6  4   138.02    12.58
  12      1.14015478    -0.47931346  -130.33027054    -0.00000006     0.00000005  0.17D-10  0.57D-11  6  6   149.04    12.58
  13      1.14015456    -0.47931346  -130.33027054    -0.00000000    -0.00000003  0.30D-11  0.87D-12  6  1   160.12    12.58
  14      1.14015431    -0.47931347  -130.33027055    -0.00000001     0.00000004  0.47D-12  0.16D-12  6  3   171.22    12.58
  15      1.14015423    -0.47931348  -130.33027055    -0.00000000     0.00000001  0.12D-12  0.23D-13  6  2   182.42    12.58
  16      1.14015422    -0.47931347  -130.33027055     0.00000000     0.00000000  0.30D-13  0.90D-14  6  4   193.65    12.58
  17      1.14015422    -0.47931348  -130.33027055    -0.00000000    -0.00000000  0.17D-14  0.11D-14  6  5   204.70    12.58
  18      1.14015423    -0.47931347  -130.33027055     0.00000000    -0.00000000  0.27D-15  0.30D-15  6  6   215.77    12.58
  19      1.14015423    -0.47931347  -130.33027055     0.00000000    -0.00000000  0.34D-16  0.44D-16  6  2   226.98    12.58
  20      1.14015423    -0.47931347  -130.33027055     0.00000000    -0.00000000  0.87D-17  0.62D-17  6  1   237.99    12.58
  21      1.14015423    -0.47931347  -130.33027055    -0.00000000     0.00000000  0.15D-17  0.88D-18  6  3   248.98    12.58
  22      1.14015423    -0.47931347  -130.33027055    -0.00000000     0.00000000  0.33D-18  0.15D-18  6  4   260.10    12.57
  23      1.14015423    -0.47931347  -130.33027055    -0.00000000     0.00000000  0.82D-19  0.42D-19  6  5   271.23    12.57
  24      1.14015423    -0.47931347  -130.33027055    -0.00000000     0.00000000  0.46D-19  0.25D-19  6  6   282.43    12.57
  25      1.14015423    -0.47931347  -130.33027055     0.00000000    -0.00000000  0.26D-19  0.14D-19  6  2   293.49    12.57

 Norm of t1 vector:      0.07469541      S-energy:     0.00000000      T1 diagnostic:  0.01524714
                                                                       D1 diagnostic:  0.04080443

 Doubles amplitudes (print threshold =  0.500E-01):

         I         J         SYM. A    SYM. B    A         B      T(IJ, AB)

         6         6         2         2         1         1     -0.07090107
         6         6         2         2         1         2      0.05267551
         6         6         2         2         2         1      0.05267551


 Total CPU time for triples:    114.64 sec


 RESULTS
 =======

  Reference energy                   -129.850957077301
  CCSD singlet pair energy             -0.332284777121
  CCSD triplet pair energy             -0.147028697622
  CCSD correlation energy              -0.479313474741

  Triples (T) contribution             -0.022608738612
  Total correlation energy             -0.501922213354

  CCSD total energy                  -130.330270552042
  CCSD[T] energy                     -130.353916246103
  CCSD-T energy                      -130.352509518096
 !CCSD(T) total energy               -130.352879290655

 Timing summary (sec):

 STEP                 CPU(USER)    SYS     CPU(TOT)    WALL
 Transformation         14.68      2.01     16.69     19.75
 CCSD iterations       278.83     35.37    314.20    314.23
 Triples               114.64      2.26    116.90    116.92

 Program statistics:

 Available memory in ccsd:               994999756
 Min. memory needed in ccsd:               3348832
 Max. memory used in ccsd:                 4143652
 Max. memory used in cckext:               8340089 (25 integral passes)



 **********************************************************************************************************************************
 DATASETS  * FILE   NREC   LENGTH (MB)   RECORD NAMES
              1      20     6809.41       500      610      700      900      950      970     1000      129      960     1100   
                                          VAR    BASINP    GEOM    SYMINP    ZMAT    AOBASIS   BASIS     P2S    ABASIS      S 
                                         1400     1410     1200     1210     1080     1600     1650     1300     1700     1380   
                                           T        V       H0       H01     AOSYM     SMH    MOLCAS    ERIS     OPER     JKOP   

              2       4        4.02       700     1000      520     2100   
                                         GEOM     BASIS   MCVARS     RHF  

 PROGRAMS   *        TOTAL   CCSD(T)        HF       INT
 CPU TIMES  *       615.32    408.18     68.99    138.06
 REAL TIME  *       701.20 SEC
 DISK USED  *        21.32 GB      
 **********************************************************************************************************************************

 CCSD(T)/aug-cc-pV5Z energy=   -130.352879290655

        CCSD(T)         HF-SCF  
   -130.35287929   -129.85095708
 **********************************************************************************************************************************
 Molpro calculation terminated
 Variable memory released
