
 Primary working directories    : /tmp/r2666/234754.maple
 Secondary working directories  : /tmp/r2666/234754.maple
 Wavefunction directory         : /ddn/home4/r2666/wfu/
 Main file repository           : /tmp/r2666/234754.maple/

 SHA1      : d5ffa45e93fdbca01ffc919aa182cfdae0147319
 NAME      : 2015.1.35
 ARCHNAME  : linux/x86_64
 FC        : /opt/intel/composer_xe_2015.1.133/bin/intel64/ifort
 BLASLIB   : -Wl,-_start-group /opt/intel/mkl/lib/intel64/libmkl_intel_ilp64.a /opt/intel/mkl/lib/intel64/libmkl_intel_thread.a /opt/intel/mkl/lib/intel64/libmkl_core.a -Wl,-_end-group
 id        : olemiss

 Nodes     nprocs
 cn076        1

 Using customized tuning parameters: mindgm=1; mindgv=20; mindgc=4; mindgr=1; noblas=0; minvec=7
 default implementation of scratch files=df  

 ***,hno CCSD(T)/TZ-F12 QFF
 memory, 995, m;
 gthresh,energy=1.d-12,zero=1.d-22,oneint=1.d-22,twoint=1.d-22;
 gthresh,optgrad=1.d-8,optstep=1.d-8;
 nocompress;
 geomtyp=xyz
 bohr
 geometry={
 3
        126       126
 N        0.0000000000       -0.1771219916       -1.1422802340
 H        0.0000000000        1.6792535907       -1.9295207681
 O        0.0000000000        0.0396361909        1.1212114111
 }
 
 basis=av5z
   {hf,maxit=500;accu,20;}
 {ccsd(t),nocheck,maxit=250;orbital,IGNORE_ERROR;}

 Variables initialized (889), CPU time= 0.01 sec
 Commands  initialized (702), CPU time= 0.01 sec, 572 directives.
 Default parameters read. Elapsed time= 0.04 sec

 Checking input...
 Passed
1


                                         ***  PROGRAM SYSTEM MOLPRO  ***
                                       Copyright, TTI GmbH Stuttgart, 2015
                                    Version 2015.1 linked Jul  9 2018 13:16:40


 **********************************************************************************************************************************
 LABEL *   hno CCSD(T)/TZ-F12 QFF                                                        
  64 bit serial version                                                                  DATE: 08-Feb-20          TIME: 17:43:44  
 **********************************************************************************************************************************

 SHA1:             d5ffa45e93fdbca01ffc919aa182cfdae0147319
 **********************************************************************************************************************************

 THRESHOLDS:

 ZERO    =  1.00D-22  ONEINT  =  1.00D-22  TWOINT  =  1.00D-22  PREFAC  =  1.00D-14  LOCALI  =  1.00D-09  EORDER  =  1.00D-04
 ENERGY  =  1.00D-12  ETEST   =  0.00D+00  EDENS   =  0.00D+00  THRDEDEF=  1.00D-06  GRADIENT=  1.00D-02  STEP    =  1.00D-03
 ORBITAL =  1.00D-05  CIVEC   =  1.00D-05  COEFF   =  1.00D-04  PRINTCI =  5.00D-02  PUNCHCI =  9.90D+01  OPTGRAD =  3.00D-04
 OPTENERG=  1.00D-06  OPTSTEP =  3.00D-04  THRGRAD =  1.00D-10  COMPRESS=  1.00D-11  VARMIN  =  1.00D-07  VARMAX  =  1.00D-03
 THRDOUB =  0.00D+00  THRDIV  =  1.00D-05  THRRED  =  1.00D-07  THRPSP  =  1.00D+00  THRDC   =  1.00D-10  THRCS   =  1.00D-10
 THRNRM  =  1.00D-08  THREQ   =  0.00D+00  THRDE   =  1.00D+00  THRREF  =  1.00D-05  SPARFAC =  1.00D+00  THRDLP  =  1.00D-07
 THRDIA  =  1.00D-10  THRDLS  =  1.00D-07  THRGPS  =  0.00D+00  THRKEX  =  0.00D+00  THRDIS  =  2.00D-01  THRVAR  =  1.00D-10
 THRLOC  =  1.00D-06  THRGAP  =  1.00D-06  THRLOCT = -1.00D+00  THRGAPT = -1.00D+00  THRORB  =  1.00D-06  THRMLTP =  0.00D+00
 THRCPQCI=  1.00D-10  KEXTA   =  0.00D+00  THRCOARS=  0.00D+00  SYMTOL  =  1.00D-06  GRADTOL =  1.00D-06  THROVL  =  1.00D-08
 THRORTH =  1.00D-08  GRID    =  1.00D-06  GRIDMAX =  1.00D-03  DTMAX   =  0.00D+00  THROCCDE=  1.00D-01  THROCCDE=  1.00D-01



 THRESHOLDS:

 ZERO    =  1.00D-22  ONEINT  =  1.00D-22  TWOINT  =  1.00D-22  PREFAC  =  1.00D-14  LOCALI  =  1.00D-09  EORDER  =  1.00D-04
 ENERGY  =  1.00D-12  ETEST   =  0.00D+00  EDENS   =  0.00D+00  THRDEDEF=  1.00D-06  GRADIENT=  1.00D-02  STEP    =  1.00D-03
 ORBITAL =  1.00D-05  CIVEC   =  1.00D-05  COEFF   =  1.00D-04  PRINTCI =  5.00D-02  PUNCHCI =  9.90D+01  OPTGRAD =  1.00D-08
 OPTENERG=  1.00D-06  OPTSTEP =  1.00D-08  THRGRAD =  1.00D-10  COMPRESS=  1.00D-11  VARMIN  =  1.00D-07  VARMAX  =  1.00D-03
 THRDOUB =  0.00D+00  THRDIV  =  1.00D-05  THRRED  =  1.00D-07  THRPSP  =  1.00D+00  THRDC   =  1.00D-10  THRCS   =  1.00D-10
 THRNRM  =  1.00D-08  THREQ   =  0.00D+00  THRDE   =  1.00D+00  THRREF  =  1.00D-05  SPARFAC =  1.00D+00  THRDLP  =  1.00D-07
 THRDIA  =  1.00D-10  THRDLS  =  1.00D-07  THRGPS  =  0.00D+00  THRKEX  =  0.00D+00  THRDIS  =  2.00D-01  THRVAR  =  1.00D-10
 THRLOC  =  1.00D-06  THRGAP  =  1.00D-06  THRLOCT = -1.00D+00  THRGAPT = -1.00D+00  THRORB  =  1.00D-06  THRMLTP =  0.00D+00
 THRCPQCI=  1.00D-10  KEXTA   =  0.00D+00  THRCOARS=  0.00D+00  SYMTOL  =  1.00D-06  GRADTOL =  1.00D-06  THROVL  =  1.00D-08
 THRORTH =  1.00D-08  GRID    =  1.00D-06  GRIDMAX =  1.00D-03  DTMAX   =  0.00D+00  THROCCDE=  1.00D-01  THROCCDE=  1.00D-01



 Input parameters for SORTINT:

 COMPRESS =    0.000000
 C_FINAL  =    1.000000
 DEBUG    =   -1.000000
 C_SORT1  =    0.000000
 C_SEWARD =    0.000000
 THRESH   =    0.000000
 IO       =  molpro                                                          
 SPRI     =    0.000000
 SETTING GEOMTYP        =    XYZ
 ZUNIT=BOHR
 

 Variable memory set to  995000000 words,  buffer space   230000 words

 SETTING BASIS          =    AV5Z


 Recomputing integrals since basis changed


 Using spherical harmonics

 Library entry N      S aug-cc-pV5Z          selected for orbital group  1
 Library entry N      P aug-cc-pV5Z          selected for orbital group  1
 Library entry N      D aug-cc-pV5Z          selected for orbital group  1
 Library entry N      F aug-cc-pV5Z          selected for orbital group  1
 Library entry N      G aug-cc-pV5Z          selected for orbital group  1
 Library entry N      H aug-cc-pV5Z          selected for orbital group  1
 Library entry H      S aug-cc-pV5Z          selected for orbital group  2
 Library entry H      P aug-cc-pV5Z          selected for orbital group  2
 Library entry H      D aug-cc-pV5Z          selected for orbital group  2
 Library entry H      F aug-cc-pV5Z          selected for orbital group  2
 Library entry H      G aug-cc-pV5Z          selected for orbital group  2
 Library entry O      S aug-cc-pV5Z          selected for orbital group  3
 Library entry O      P aug-cc-pV5Z          selected for orbital group  3
 Library entry O      D aug-cc-pV5Z          selected for orbital group  3
 Library entry O      F aug-cc-pV5Z          selected for orbital group  3
 Library entry O      G aug-cc-pV5Z          selected for orbital group  3
 Library entry O      H aug-cc-pV5Z          selected for orbital group  3


 PROGRAM * SEWARD (Integral evaluation for generally contracted gaussian basis sets)     Author: Roland Lindh, 1990

 Geometry written to block  1 of record 700


 Point group  Cs  



 ATOMIC COORDINATES

 NR  ATOM    CHARGE       X              Y              Z

   1  N       7.00    0.000000000   -0.177121992   -1.142280234
   2  H       1.00    0.000000000    1.679253591   -1.929520768
   3  O       8.00    0.000000000    0.039636191    1.121211411

 Bond lengths in Bohr (Angstrom)

 1-2  2.016402232  1-3  2.273846639
     ( 1.067034109)     ( 1.203267822)

 Bond angles

  2-1-3  107.51041520

 NUCLEAR CHARGE:                   16
 NUMBER OF PRIMITIVE AOS:         506
 NUMBER OF SYMMETRY AOS:          371
 NUMBER OF CONTRACTIONS:          334   ( 204A'  + 130A"  )
 NUMBER OF CORE ORBITALS:           2   (   2A'  +   0A"  )
 NUMBER OF VALENCE ORBITALS:        9   (   7A'  +   2A"  )


 NUCLEAR REPULSION ENERGY   30.40925214


 Eigenvalues of metric

         1 0.115E-04 0.175E-04 0.656E-04 0.999E-04 0.104E-03 0.138E-03 0.203E-03 0.224E-03
         2 0.126E-03 0.383E-03 0.112E-02 0.155E-02 0.205E-02 0.253E-02 0.341E-02 0.397E-02


 Contracted 2-electron integrals neglected if value below      1.0D-22

      756977576. INTEGRALS WRITTEN OUT IN  184855 BLOCKS ON RECORD 1290 OF FILE 1


 NUMBER OF SORTED TWO-ELECTRON INTEGRALS:  789027325.     BUFFER LENGTH:  32768
 NUMBER OF SEGMENTS:  25  SEGMENT LENGTH:   31997130      RECORD LENGTH: 524288

 Memory used in sort:      32.55 MW

 SORT1 READ   756977576. AND WROTE   760993460. INTEGRALS IN   2189 RECORDS. CPU TIME:    13.11 SEC, REAL TIME:    18.73 SEC
 SORT2 READ   760993460. AND WROTE   789027325. INTEGRALS IN     25 RECORDS. CPU TIME:     9.74 SEC, REAL TIME:    21.07 SEC

 FILE SIZES:   FILE 1: 12137.5 MBYTE,  FILE 4:  9181.4 MBYTE,   TOTAL:  21318.9 MBYTE

 OPERATOR DM      FOR CENTER  0  COORDINATES:    0.000000    0.000000    0.000000


 **********************************************************************************************************************************
 DATASETS  * FILE   NREC   LENGTH (MB)   RECORD NAMES
              1      19     6374.22       500      610      700      900      950      970     1000      129      960     1100   
                                          VAR    BASINP    GEOM    SYMINP    ZMAT    AOBASIS   BASIS     P2S    ABASIS      S 
                                         1400     1410     1200     1210     1080     1600     1650     1300     1700   
                                           T        V       H0       H01     AOSYM     SMH    MOLCAS    ERIS     OPER   

 PROGRAMS   *        TOTAL       INT
 CPU TIMES  *       110.67    110.58
 REAL TIME  *       134.14 SEC
 DISK USED  *        21.32 GB      
 **********************************************************************************************************************************


 PROGRAM * RHF-SCF (CLOSED SHELL)       Authors: W. Meyer, H.-J. Werner


 NUMBER OF ELECTRONS:       8+    8-
 CONVERGENCE THRESHOLDS:    1.00E-10 (Density)    1.00E-13 (Energy)
 MAX. NUMBER OF ITERATIONS:      500
 INTERPOLATION TYPE:            DIIS
 INTERPOLATION STEPS:              2 (START)      1 (STEP)
 LEVEL SHIFTS:                  0.00 (CLOSED)  0.00 (OPEN) 



 Orbital guess generated from atomic densities. Full valence occupancy:    9   2

 Molecular orbital dump at record        2100.2

 Initial occupancy:   7   1

 ITERATION    DDIFF          GRAD             ENERGY        2-EL.EN.            DIPOLE MOMENTS         DIIS   ORB.
    1      0.000D+00      0.000D+00      -129.79839856    154.041591    0.00000    0.57736   -1.01366    0    start
    2      0.000D+00      0.643D-02      -129.82575801    155.286492    0.00000    0.60654   -0.20039    1    diag
    3      0.401D-02      0.489D-02      -129.84871545    155.399307    0.00000    0.54639   -0.58264    2    diag
    4      0.207D-02      0.762D-03      -129.84951220    155.116450    0.00000    0.55410   -0.52199    3    diag
    5      0.375D-03      0.249D-03      -129.84963950    155.210782    0.00000    0.55949   -0.52459    4    diag
    6      0.157D-03      0.729D-04      -129.84966008    155.194298    0.00000    0.55977   -0.52041    5    diag
    7      0.607D-04      0.360D-04      -129.84966598    155.197216    0.00000    0.56105   -0.51784    6    diag
    8      0.414D-04      0.125D-04      -129.84966664    155.196507    0.00000    0.56110   -0.51684    7    diag
    9      0.156D-04      0.242D-05      -129.84966667    155.196394    0.00000    0.56107   -0.51662    8    diag
   10      0.313D-05      0.549D-06      -129.84966667    155.196375    0.00000    0.56104   -0.51659    9    orth
   11      0.621D-06      0.112D-06      -129.84966667    155.196371    0.00000    0.56103   -0.51659    9    diag
   12      0.119D-06      0.228D-07      -129.84966667    155.196370    0.00000    0.56103   -0.51659    9    diag
   13      0.263D-07      0.598D-08      -129.84966667    155.196370    0.00000    0.56103   -0.51658    9    diag
   14      0.710D-08      0.118D-08      -129.84966667    155.196370    0.00000    0.56103   -0.51658    9    diag
   15      0.130D-08      0.342D-09      -129.84966667    155.196370    0.00000    0.56103   -0.51658    9    diag
   16      0.386D-09      0.105D-09      -129.84966667    155.196370    0.00000    0.56103   -0.51658    9    diag
   17      0.785D-10      0.293D-10      -129.84966667    155.196370    0.00000    0.56103   -0.51658    9    diag
   18      0.245D-10      0.101D-10      -129.84966667    155.196370    0.00000    0.56103   -0.51658    9    diag
   19      0.369D-10      0.256D-11      -129.84966667    155.196370    0.00000    0.56103   -0.51658    9    fixocc
   20      0.286D-10      0.602D-12      -129.84966667    155.196370    0.00000    0.56103   -0.51658    9    orth
   21      0.144D-10      0.302D-12      -129.84966667    155.196370    0.00000    0.56103   -0.51658    9    diag
   22      0.612D-11      0.412D-12      -129.84966667    155.196370    0.00000    0.56103   -0.51658    9    diag
   23      0.410D-11      0.334D-12      -129.84966667    155.196370    0.00000    0.56103   -0.51658    9    diag
   24      0.184D-11      0.331D-12      -129.84966667    155.196370    0.00000    0.56103   -0.51658    9    diag
   25      0.327D-11      0.389D-12      -129.84966667    155.196370    0.00000    0.56103   -0.51658    9    diag
   26      0.359D-12      0.360D-12      -129.84966667    155.196370    0.00000    0.56103   -0.51658    0    orth

 Final occupancy:   7   1

 !RHF STATE 1.1 Energy               -129.849666666904
 Nuclear energy                        30.40925214
 One-electron energy                 -237.85710390
 Two-electron energy                   77.59818509
 Virial quotient                       -1.00171366
 !RHF STATE 1.1 Dipole moment           0.00000000     0.56102510    -0.51658479
 Dipole moment /Debye                   0.00000000     1.42589017    -1.31294157

 Orbital energies:

         1.1          2.1          3.1          4.1          5.1          6.1          7.1          8.1          9.1
    -20.652639   -15.713521    -1.533366    -0.989192    -0.747032    -0.667338    -0.428658     0.022952     0.065569

         1.2          2.2          3.2
     -0.598622     0.061251     0.092222

 HOMO      7.1    -0.428658 =     -11.6644eV
 LUMO      8.1     0.022952 =       0.6246eV
 LUMO-HOMO         0.451610 =      12.2889eV


 **********************************************************************************************************************************
 DATASETS  * FILE   NREC   LENGTH (MB)   RECORD NAMES
              1      19     6374.22       500      610      700      900      950      970     1000      129      960     1100   
                                          VAR    BASINP    GEOM    SYMINP    ZMAT    AOBASIS   BASIS     P2S    ABASIS      S 
                                         1400     1410     1200     1210     1080     1600     1650     1300     1700   
                                           T        V       H0       H01     AOSYM     SMH    MOLCAS    ERIS     OPER   

              2       4        4.02       700     1000      520     2100   
                                         GEOM     BASIS   MCVARS     RHF  

 PROGRAMS   *        TOTAL        HF       INT
 CPU TIMES  *       193.43     82.76    110.58
 REAL TIME  *       244.50 SEC
 DISK USED  *        21.32 GB      
 **********************************************************************************************************************************


 PROGRAM * CCSD (Closed-shell coupled cluster)     Authors: C. Hampel, H.-J. Werner, 1991, M. Deegan, P.J. Knowles, 1992


 Convergence thresholds:  THRVAR = 1.00D-08  THRDEN = 1.00D-12

 CCSD(T)     terms to be evaluated (factor= 1.000)


 Number of core orbitals:           2 (   2   0 )
 Number of closed-shell orbitals:   6 (   5   1 )
 Number of external orbitals:     326 ( 197 129 )

 Molecular orbitals read from record     2100.2  Type=RHF/CANONICAL (state 1.1)

 Number of N-1 electron functions:               6
 Number of N-2 electron functions:              21
 Number of singly external CSFs:              1114
 Number of doubly external CSFs:            975958
 Total number of CSFs:                      977073

 Length of J-op  integral file:               0.00 MB
 Length of K-op  integral file:               4.07 MB
 Length of 3-ext integral record:             0.00 MB

 Memory could be reduced to 151.33 Mwords without degradation in triples

 Integral transformation finished. Total CPU:  10.10 sec, npass=  1  Memory used:  41.21 MW

 Reference energy:                   -129.84966667

 MP2 singlet pair energy:              -0.31103450
 MP2 triplet pair energy:              -0.17190110
 MP2 correlation energy:               -0.48293560
 MP2 total energy:                   -130.33260226

 SCS-MP2 correlation energy:           -0.48020208   (PS=  1.200000  PT=  0.333333)
 SCS-MP2 total energy:               -130.32986875

 ITER.      SQ.NORM     CORR.ENERGY   TOTAL ENERGY   ENERGY CHANGE        DEN1      VAR(S)    VAR(P)  DIIS     TIME  TIME/IT
   1      1.12057891    -0.48008032  -130.32974699     0.00285528     0.01943674  0.31D-02  0.32D-02  1  1    18.43     9.32
   2      1.13117499    -0.47999809  -130.32966476     0.00008223    -0.01263146  0.10D-03  0.49D-03  2  2    26.84     9.44
   3      1.13730859    -0.48038032  -130.33004699    -0.00038223    -0.00300423  0.48D-04  0.56D-04  3  3    35.25     9.48
   4      1.14006499    -0.48037678  -130.33004344     0.00000355    -0.00096359  0.45D-05  0.98D-05  4  4    43.64     9.50
   5      1.14117637    -0.48040576  -130.33007243    -0.00002898    -0.00024752  0.12D-05  0.16D-05  5  5    52.04     9.51
   6      1.14152641    -0.48039457  -130.33006124     0.00001119    -0.00004940  0.13D-06  0.39D-06  6  6    60.54     9.52
   7      1.14160308    -0.48039392  -130.33006059     0.00000065     0.00000292  0.20D-07  0.88D-07  6  1    68.96     9.52
   8      1.14162862    -0.48039393  -130.33006060    -0.00000001    -0.00000305  0.36D-08  0.18D-07  6  2    77.47     9.53
   9      1.14163748    -0.48039335  -130.33006002     0.00000058    -0.00000020  0.21D-08  0.19D-08  6  3    85.89     9.53
  10      1.14163317    -0.48039407  -130.33006073    -0.00000071     0.00000150  0.32D-09  0.31D-09  6  5    94.35     9.54
  11      1.14163501    -0.48039406  -130.33006072     0.00000001    -0.00000032  0.93D-10  0.26D-10  6  4   102.71     9.54
  12      1.14163458    -0.48039412  -130.33006079    -0.00000006     0.00000005  0.18D-10  0.60D-11  6  6   111.13     9.54
  13      1.14163436    -0.48039413  -130.33006079    -0.00000000    -0.00000003  0.31D-11  0.90D-12  6  1   119.56     9.55
  14      1.14163409    -0.48039414  -130.33006080    -0.00000001     0.00000004  0.47D-12  0.17D-12  6  3   127.96     9.55
  15      1.14163402    -0.48039414  -130.33006081    -0.00000000     0.00000001  0.12D-12  0.24D-13  6  2   136.42     9.55
  16      1.14163400    -0.48039414  -130.33006081     0.00000000     0.00000000  0.31D-13  0.95D-14  6  4   144.88     9.55
  17      1.14163400    -0.48039414  -130.33006081    -0.00000000    -0.00000000  0.17D-14  0.12D-14  6  5   153.31     9.55
  18      1.14163401    -0.48039414  -130.33006081     0.00000000    -0.00000000  0.27D-15  0.31D-15  6  6   161.73     9.55
  19      1.14163401    -0.48039414  -130.33006081     0.00000000    -0.00000000  0.32D-16  0.43D-16  6  2   170.10     9.55
  20      1.14163401    -0.48039414  -130.33006081     0.00000000    -0.00000000  0.85D-17  0.62D-17  6  1   178.46     9.55
  21      1.14163401    -0.48039414  -130.33006081    -0.00000000     0.00000000  0.15D-17  0.87D-18  6  3   186.94     9.55
  22      1.14163401    -0.48039414  -130.33006081    -0.00000000     0.00000000  0.31D-18  0.13D-18  6  4   195.31     9.55
  23      1.14163401    -0.48039414  -130.33006081    -0.00000000     0.00000000  0.95D-19  0.46D-19  6  5   203.72     9.55
  24      1.14163401    -0.48039414  -130.33006081    -0.00000000     0.00000000  0.44D-19  0.23D-19  6  6   212.20     9.55
  25      1.14163401    -0.48039414  -130.33006081    -0.00000000     0.00000000  0.20D-19  0.11D-19  6  2   220.57     9.55

 Norm of t1 vector:      0.07592036      S-energy:    -0.00000000      T1 diagnostic:  0.01549718
                                                                       D1 diagnostic:  0.04155010

 Doubles amplitudes (print threshold =  0.500E-01):

         I         J         SYM. A    SYM. B    A         B      T(IJ, AB)

         6         6         2         2         1         1     -0.07568892
         6         6         2         2         1         2      0.05284798
         6         6         2         2         2         1      0.05284798


 Total CPU time for triples:     87.36 sec


 RESULTS
 =======

  Reference energy                   -129.849666666905
  CCSD singlet pair energy             -0.333213697952
  CCSD triplet pair energy             -0.147180440618
  CCSD correlation energy              -0.480394138573

  Triples (T) contribution             -0.022864872715
  Total correlation energy             -0.503259011288

  CCSD total energy                  -130.330060805478
  CCSD[T] energy                     -130.353995472660
  CCSD-T energy                      -130.352546550280
 !CCSD(T) total energy               -130.352925678193

 Timing summary (sec):

 STEP                 CPU(USER)    SYS     CPU(TOT)    WALL
 Transformation         10.14      1.67     11.81     11.81
 CCSD iterations       210.44     28.33    238.77    238.80
 Triples                87.36      1.91     89.27     89.28

 Program statistics:

 Available memory in ccsd:               994999756
 Min. memory needed in ccsd:               3348832
 Max. memory used in ccsd:                 4143652
 Max. memory used in cckext:               8340089 (25 integral passes)



 **********************************************************************************************************************************
 DATASETS  * FILE   NREC   LENGTH (MB)   RECORD NAMES
              1      20     6809.41       500      610      700      900      950      970     1000      129      960     1100   
                                          VAR    BASINP    GEOM    SYMINP    ZMAT    AOBASIS   BASIS     P2S    ABASIS      S 
                                         1400     1410     1200     1210     1080     1600     1650     1300     1700     1380   
                                           T        V       H0       H01     AOSYM     SMH    MOLCAS    ERIS     OPER     JKOP   

              2       4        4.02       700     1000      520     2100   
                                         GEOM     BASIS   MCVARS     RHF  

 PROGRAMS   *        TOTAL   CCSD(T)        HF       INT
 CPU TIMES  *       501.40    307.97     82.76    110.58
 REAL TIME  *       584.44 SEC
 DISK USED  *        21.32 GB      
 **********************************************************************************************************************************

 CCSD(T)/aug-cc-pV5Z energy=   -130.352925678193

        CCSD(T)         HF-SCF  
   -130.35292568   -129.84966667
 **********************************************************************************************************************************
 Molpro calculation terminated
 Variable memory released
