
 Primary working directories    : /tmp/r2666/234666.maple
 Secondary working directories  : /tmp/r2666/234666.maple
 Wavefunction directory         : /ddn/home4/r2666/wfu/
 Main file repository           : /tmp/r2666/234666.maple/

 SHA1      : d5ffa45e93fdbca01ffc919aa182cfdae0147319
 NAME      : 2015.1.35
 ARCHNAME  : linux/x86_64
 FC        : /opt/intel/composer_xe_2015.1.133/bin/intel64/ifort
 BLASLIB   : -Wl,-_start-group /opt/intel/mkl/lib/intel64/libmkl_intel_ilp64.a /opt/intel/mkl/lib/intel64/libmkl_intel_thread.a /opt/intel/mkl/lib/intel64/libmkl_core.a -Wl,-_end-group
 id        : olemiss

 Nodes     nprocs
 cn031        1

 Using customized tuning parameters: mindgm=1; mindgv=20; mindgc=4; mindgr=1; noblas=0; minvec=7
 default implementation of scratch files=df  

 ***,hno CCSD(T)/TZ-F12 QFF
 memory, 995, m;
 gthresh,energy=1.d-12,zero=1.d-22,oneint=1.d-22,twoint=1.d-22;
 gthresh,optgrad=1.d-8,optstep=1.d-8;
 nocompress;
 geomtyp=xyz
 bohr
 geometry={
 3
         38        38
 N        0.0000000000       -0.1517488246       -1.1462805234
 H        0.0000000000        1.6629400587       -1.9348188772
 O        0.0000000000        0.0305765559        1.1305098097
 }
 
 basis=av5z
   {hf,maxit=500;accu,20;}
 {ccsd(t),nocheck,maxit=250;orbital,IGNORE_ERROR;}

 Variables initialized (889), CPU time= 0.00 sec
 Commands  initialized (702), CPU time= 0.01 sec, 572 directives.
 Default parameters read. Elapsed time= 0.05 sec

 Checking input...
 Passed
1


                                         ***  PROGRAM SYSTEM MOLPRO  ***
                                       Copyright, TTI GmbH Stuttgart, 2015
                                    Version 2015.1 linked Jul  9 2018 13:16:40


 **********************************************************************************************************************************
 LABEL *   hno CCSD(T)/TZ-F12 QFF                                                        
  64 bit serial version                                                                  DATE: 08-Feb-20          TIME: 17:24:42  
 **********************************************************************************************************************************

 SHA1:             d5ffa45e93fdbca01ffc919aa182cfdae0147319
 **********************************************************************************************************************************

 THRESHOLDS:

 ZERO    =  1.00D-22  ONEINT  =  1.00D-22  TWOINT  =  1.00D-22  PREFAC  =  1.00D-14  LOCALI  =  1.00D-09  EORDER  =  1.00D-04
 ENERGY  =  1.00D-12  ETEST   =  0.00D+00  EDENS   =  0.00D+00  THRDEDEF=  1.00D-06  GRADIENT=  1.00D-02  STEP    =  1.00D-03
 ORBITAL =  1.00D-05  CIVEC   =  1.00D-05  COEFF   =  1.00D-04  PRINTCI =  5.00D-02  PUNCHCI =  9.90D+01  OPTGRAD =  3.00D-04
 OPTENERG=  1.00D-06  OPTSTEP =  3.00D-04  THRGRAD =  1.00D-10  COMPRESS=  1.00D-11  VARMIN  =  1.00D-07  VARMAX  =  1.00D-03
 THRDOUB =  0.00D+00  THRDIV  =  1.00D-05  THRRED  =  1.00D-07  THRPSP  =  1.00D+00  THRDC   =  1.00D-10  THRCS   =  1.00D-10
 THRNRM  =  1.00D-08  THREQ   =  0.00D+00  THRDE   =  1.00D+00  THRREF  =  1.00D-05  SPARFAC =  1.00D+00  THRDLP  =  1.00D-07
 THRDIA  =  1.00D-10  THRDLS  =  1.00D-07  THRGPS  =  0.00D+00  THRKEX  =  0.00D+00  THRDIS  =  2.00D-01  THRVAR  =  1.00D-10
 THRLOC  =  1.00D-06  THRGAP  =  1.00D-06  THRLOCT = -1.00D+00  THRGAPT = -1.00D+00  THRORB  =  1.00D-06  THRMLTP =  0.00D+00
 THRCPQCI=  1.00D-10  KEXTA   =  0.00D+00  THRCOARS=  0.00D+00  SYMTOL  =  1.00D-06  GRADTOL =  1.00D-06  THROVL  =  1.00D-08
 THRORTH =  1.00D-08  GRID    =  1.00D-06  GRIDMAX =  1.00D-03  DTMAX   =  0.00D+00  THROCCDE=  1.00D-01  THROCCDE=  1.00D-01



 THRESHOLDS:

 ZERO    =  1.00D-22  ONEINT  =  1.00D-22  TWOINT  =  1.00D-22  PREFAC  =  1.00D-14  LOCALI  =  1.00D-09  EORDER  =  1.00D-04
 ENERGY  =  1.00D-12  ETEST   =  0.00D+00  EDENS   =  0.00D+00  THRDEDEF=  1.00D-06  GRADIENT=  1.00D-02  STEP    =  1.00D-03
 ORBITAL =  1.00D-05  CIVEC   =  1.00D-05  COEFF   =  1.00D-04  PRINTCI =  5.00D-02  PUNCHCI =  9.90D+01  OPTGRAD =  1.00D-08
 OPTENERG=  1.00D-06  OPTSTEP =  1.00D-08  THRGRAD =  1.00D-10  COMPRESS=  1.00D-11  VARMIN  =  1.00D-07  VARMAX  =  1.00D-03
 THRDOUB =  0.00D+00  THRDIV  =  1.00D-05  THRRED  =  1.00D-07  THRPSP  =  1.00D+00  THRDC   =  1.00D-10  THRCS   =  1.00D-10
 THRNRM  =  1.00D-08  THREQ   =  0.00D+00  THRDE   =  1.00D+00  THRREF  =  1.00D-05  SPARFAC =  1.00D+00  THRDLP  =  1.00D-07
 THRDIA  =  1.00D-10  THRDLS  =  1.00D-07  THRGPS  =  0.00D+00  THRKEX  =  0.00D+00  THRDIS  =  2.00D-01  THRVAR  =  1.00D-10
 THRLOC  =  1.00D-06  THRGAP  =  1.00D-06  THRLOCT = -1.00D+00  THRGAPT = -1.00D+00  THRORB  =  1.00D-06  THRMLTP =  0.00D+00
 THRCPQCI=  1.00D-10  KEXTA   =  0.00D+00  THRCOARS=  0.00D+00  SYMTOL  =  1.00D-06  GRADTOL =  1.00D-06  THROVL  =  1.00D-08
 THRORTH =  1.00D-08  GRID    =  1.00D-06  GRIDMAX =  1.00D-03  DTMAX   =  0.00D+00  THROCCDE=  1.00D-01  THROCCDE=  1.00D-01



 Input parameters for SORTINT:

 COMPRESS =    0.000000
 C_FINAL  =    1.000000
 DEBUG    =   -1.000000
 C_SORT1  =    0.000000
 C_SEWARD =    0.000000
 THRESH   =    0.000000
 IO       =  molpro                                                          
 SPRI     =    0.000000
 SETTING GEOMTYP        =    XYZ
 ZUNIT=BOHR
 

 Variable memory set to  995000000 words,  buffer space   230000 words

 SETTING BASIS          =    AV5Z


 Recomputing integrals since basis changed


 Using spherical harmonics

 Library entry N      S aug-cc-pV5Z          selected for orbital group  1
 Library entry N      P aug-cc-pV5Z          selected for orbital group  1
 Library entry N      D aug-cc-pV5Z          selected for orbital group  1
 Library entry N      F aug-cc-pV5Z          selected for orbital group  1
 Library entry N      G aug-cc-pV5Z          selected for orbital group  1
 Library entry N      H aug-cc-pV5Z          selected for orbital group  1
 Library entry H      S aug-cc-pV5Z          selected for orbital group  2
 Library entry H      P aug-cc-pV5Z          selected for orbital group  2
 Library entry H      D aug-cc-pV5Z          selected for orbital group  2
 Library entry H      F aug-cc-pV5Z          selected for orbital group  2
 Library entry H      G aug-cc-pV5Z          selected for orbital group  2
 Library entry O      S aug-cc-pV5Z          selected for orbital group  3
 Library entry O      P aug-cc-pV5Z          selected for orbital group  3
 Library entry O      D aug-cc-pV5Z          selected for orbital group  3
 Library entry O      F aug-cc-pV5Z          selected for orbital group  3
 Library entry O      G aug-cc-pV5Z          selected for orbital group  3
 Library entry O      H aug-cc-pV5Z          selected for orbital group  3


 PROGRAM * SEWARD (Integral evaluation for generally contracted gaussian basis sets)     Author: Roland Lindh, 1990

 Geometry written to block  1 of record 700


 Point group  Cs  



 ATOMIC COORDINATES

 NR  ATOM    CHARGE       X              Y              Z

   1  N       7.00    0.000000000   -0.151748825   -1.146280523
   2  H       1.00    0.000000000    1.662940059   -1.934818877
   3  O       8.00    0.000000000    0.030576556    1.130509810

 Bond lengths in Bohr (Angstrom)

 1-2  1.978607712  1-3  2.284078975
     ( 1.047034111)     ( 1.208682542)

 Bond angles

  2-1-3  108.90795847

 NUCLEAR CHARGE:                   16
 NUMBER OF PRIMITIVE AOS:         506
 NUMBER OF SYMMETRY AOS:          371
 NUMBER OF CONTRACTIONS:          334   ( 204A'  + 130A"  )
 NUMBER OF CORE ORBITALS:           2   (   2A'  +   0A"  )
 NUMBER OF VALENCE ORBITALS:        9   (   7A'  +   2A"  )


 NUCLEAR REPULSION ENERGY   30.35895020


 Eigenvalues of metric

         1 0.111E-04 0.170E-04 0.627E-04 0.997E-04 0.105E-03 0.135E-03 0.197E-03 0.224E-03
         2 0.127E-03 0.357E-03 0.112E-02 0.158E-02 0.189E-02 0.251E-02 0.321E-02 0.387E-02


 Contracted 2-electron integrals neglected if value below      1.0D-22

      756977145. INTEGRALS WRITTEN OUT IN  184855 BLOCKS ON RECORD 1290 OF FILE 1


 NUMBER OF SORTED TWO-ELECTRON INTEGRALS:  789027325.     BUFFER LENGTH:  32768
 NUMBER OF SEGMENTS:  25  SEGMENT LENGTH:   31997130      RECORD LENGTH: 524288

 Memory used in sort:      32.55 MW

 SORT1 READ   756977145. AND WROTE   760993027. INTEGRALS IN   2189 RECORDS. CPU TIME:    28.13 SEC, REAL TIME:    36.87 SEC
 SORT2 READ   760993027. AND WROTE   789027325. INTEGRALS IN     25 RECORDS. CPU TIME:    14.27 SEC, REAL TIME:    60.40 SEC

 FILE SIZES:   FILE 1: 12137.5 MBYTE,  FILE 4:  9181.4 MBYTE,   TOTAL:  21318.9 MBYTE

 OPERATOR DM      FOR CENTER  0  COORDINATES:    0.000000    0.000000    0.000000


 **********************************************************************************************************************************
 DATASETS  * FILE   NREC   LENGTH (MB)   RECORD NAMES
              1      19     6374.22       500      610      700      900      950      970     1000      129      960     1100   
                                          VAR    BASINP    GEOM    SYMINP    ZMAT    AOBASIS   BASIS     P2S    ABASIS      S 
                                         1400     1410     1200     1210     1080     1600     1650     1300     1700   
                                           T        V       H0       H01     AOSYM     SMH    MOLCAS    ERIS     OPER   

 PROGRAMS   *        TOTAL       INT
 CPU TIMES  *       177.85    177.75
 REAL TIME  *       242.10 SEC
 DISK USED  *        21.32 GB      
 **********************************************************************************************************************************


 PROGRAM * RHF-SCF (CLOSED SHELL)       Authors: W. Meyer, H.-J. Werner


 NUMBER OF ELECTRONS:       8+    8-
 CONVERGENCE THRESHOLDS:    1.00E-10 (Density)    1.00E-13 (Energy)
 MAX. NUMBER OF ITERATIONS:      500
 INTERPOLATION TYPE:            DIIS
 INTERPOLATION STEPS:              2 (START)      1 (STEP)
 LEVEL SHIFTS:                  0.00 (CLOSED)  0.00 (OPEN) 



 Orbital guess generated from atomic densities. Full valence occupancy:    9   2

 Molecular orbital dump at record        2100.2

 Initial occupancy:   7   1

 ITERATION    DDIFF          GRAD             ENERGY        2-EL.EN.            DIPOLE MOMENTS         DIIS   ORB.
    1      0.000D+00      0.000D+00      -129.79875297    153.961154    0.00000    0.60504   -1.03232    0    start
    2      0.000D+00      0.640D-02      -129.82594953    155.177991    0.00000    0.61085   -0.21230    1    diag
    3      0.400D-02      0.487D-02      -129.84878557    155.307573    0.00000    0.56139   -0.59891    2    diag
    4      0.206D-02      0.772D-03      -129.84959471    155.022528    0.00000    0.56841   -0.53691    3    diag
    5      0.379D-03      0.249D-03      -129.84972003    155.116169    0.00000    0.57365   -0.53942    4    diag
    6      0.156D-03      0.718D-04      -129.84973998    155.099917    0.00000    0.57394   -0.53521    5    diag
    7      0.597D-04      0.358D-04      -129.84974582    155.102671    0.00000    0.57515   -0.53258    6    diag
    8      0.410D-04      0.126D-04      -129.84974649    155.101968    0.00000    0.57520   -0.53154    7    diag
    9      0.159D-04      0.245D-05      -129.84974652    155.101857    0.00000    0.57516   -0.53132    8    diag
   10      0.322D-05      0.554D-06      -129.84974652    155.101839    0.00000    0.57512   -0.53129    9    orth
   11      0.630D-06      0.111D-06      -129.84974652    155.101835    0.00000    0.57512   -0.53129    9    diag
   12      0.117D-06      0.224D-07      -129.84974652    155.101835    0.00000    0.57512   -0.53129    9    diag
   13      0.249D-07      0.588D-08      -129.84974652    155.101835    0.00000    0.57512   -0.53129    9    diag
   14      0.674D-08      0.114D-08      -129.84974652    155.101835    0.00000    0.57512   -0.53129    9    diag
   15      0.123D-08      0.324D-09      -129.84974652    155.101835    0.00000    0.57512   -0.53129    9    diag
   16      0.369D-09      0.969D-10      -129.84974652    155.101835    0.00000    0.57512   -0.53129    9    diag
   17      0.768D-10      0.247D-10      -129.84974652    155.101835    0.00000    0.57512   -0.53129    9    diag
   18      0.240D-10      0.832D-11      -129.84974652    155.101835    0.00000    0.57512   -0.53129    9    diag
   19      0.201D-10      0.204D-11      -129.84974652    155.101835    0.00000    0.57512   -0.53129    9    fixocc
   20      0.172D-10      0.569D-12      -129.84974652    155.101835    0.00000    0.57512   -0.53129    9    orth
   21      0.110D-10      0.477D-12      -129.84974652    155.101835    0.00000    0.57512   -0.53129    9    diag
   22      0.911D-11      0.314D-12      -129.84974652    155.101835    0.00000    0.57512   -0.53129    9    diag
   23      0.575D-11      0.354D-12      -129.84974652    155.101835    0.00000    0.57512   -0.53129    9    diag
   24      0.342D-11      0.244D-12      -129.84974652    155.101835    0.00000    0.57512   -0.53129    9    diag
   25      0.268D-11      0.213D-12      -129.84974652    155.101835    0.00000    0.57512   -0.53129    9    diag
   26      0.915D-12      0.284D-12      -129.84974652    155.101835    0.00000    0.57512   -0.53129    9    diag
   27      0.156D-11      0.267D-12      -129.84974652    155.101835    0.00000    0.57512   -0.53129    0    orth

 Final occupancy:   7   1

 !RHF STATE 1.1 Energy               -129.849746522142
 Nuclear energy                        30.35895020
 One-electron energy                 -237.75961430
 Two-electron energy                   77.55091758
 Virial quotient                       -1.00168380
 !RHF STATE 1.1 Dipole moment           0.00000000     0.57511547    -0.53128711
 Dipole moment /Debye                   0.00000000     1.46170196    -1.35030870

 Orbital energies:

         1.1          2.1          3.1          4.1          5.1          6.1          7.1          8.1          9.1
    -20.653091   -15.711485    -1.528405    -0.996262    -0.747483    -0.666039    -0.430585     0.022796     0.065533

         1.2          2.2          3.2
     -0.595538     0.059930     0.091449

 HOMO      7.1    -0.430585 =     -11.7168eV
 LUMO      8.1     0.022796 =       0.6203eV
 LUMO-HOMO         0.453382 =      12.3371eV


 **********************************************************************************************************************************
 DATASETS  * FILE   NREC   LENGTH (MB)   RECORD NAMES
              1      19     6374.22       500      610      700      900      950      970     1000      129      960     1100   
                                          VAR    BASINP    GEOM    SYMINP    ZMAT    AOBASIS   BASIS     P2S    ABASIS      S 
                                         1400     1410     1200     1210     1080     1600     1650     1300     1700   
                                           T        V       H0       H01     AOSYM     SMH    MOLCAS    ERIS     OPER   

              2       4        4.02       700     1000      520     2100   
                                         GEOM     BASIS   MCVARS     RHF  

 PROGRAMS   *        TOTAL        HF       INT
 CPU TIMES  *       311.15    133.30    177.75
 REAL TIME  *       411.98 SEC
 DISK USED  *        21.32 GB      
 **********************************************************************************************************************************


 PROGRAM * CCSD (Closed-shell coupled cluster)     Authors: C. Hampel, H.-J. Werner, 1991, M. Deegan, P.J. Knowles, 1992


 Convergence thresholds:  THRVAR = 1.00D-08  THRDEN = 1.00D-12

 CCSD(T)     terms to be evaluated (factor= 1.000)


 Number of core orbitals:           2 (   2   0 )
 Number of closed-shell orbitals:   6 (   5   1 )
 Number of external orbitals:     326 ( 197 129 )

 Molecular orbitals read from record     2100.2  Type=RHF/CANONICAL (state 1.1)

 Number of N-1 electron functions:               6
 Number of N-2 electron functions:              21
 Number of singly external CSFs:              1114
 Number of doubly external CSFs:            975958
 Total number of CSFs:                      977073

 Length of J-op  integral file:               0.00 MB
 Length of K-op  integral file:               4.07 MB
 Length of 3-ext integral record:             0.00 MB

 Memory could be reduced to 151.33 Mwords without degradation in triples

 Integral transformation finished. Total CPU:  17.61 sec, npass=  1  Memory used:  41.21 MW

 Reference energy:                   -129.84974652

 MP2 singlet pair energy:              -0.31113337
 MP2 triplet pair energy:              -0.17199411
 MP2 correlation energy:               -0.48312748
 MP2 total energy:                   -130.33287400

 SCS-MP2 correlation energy:           -0.48037860   (PS=  1.200000  PT=  0.333333)
 SCS-MP2 total energy:               -130.33012512

 ITER.      SQ.NORM     CORR.ENERGY   TOTAL ENERGY   ENERGY CHANGE        DEN1      VAR(S)    VAR(P)  DIIS     TIME  TIME/IT
   1      1.12051447    -0.48010790  -130.32985442     0.00301958     0.01968543  0.32D-02  0.32D-02  1  1    32.22    16.00
   2      1.13114109    -0.47998761  -130.32973413     0.00012029    -0.01267570  0.11D-03  0.49D-03  2  2    46.44    15.88
   3      1.13729025    -0.48036846  -130.33011499    -0.00038085    -0.00299668  0.48D-04  0.57D-04  3  3    60.79    15.86
   4      1.14008756    -0.48036699  -130.33011351     0.00000147    -0.00096909  0.45D-05  0.10D-04  4  4    75.55    15.99
   5      1.14122395    -0.48039607  -130.33014259    -0.00002908    -0.00025171  0.11D-05  0.17D-05  5  5    89.66    15.97
   6      1.14158290    -0.48038440  -130.33013093     0.00001167    -0.00005069  0.12D-06  0.41D-06  6  6   103.86    15.94
   7      1.14165930    -0.48038411  -130.33013064     0.00000029     0.00000343  0.16D-07  0.95D-07  6  1   118.58    15.98
   8      1.14168466    -0.48038417  -130.33013069    -0.00000006    -0.00000307  0.36D-08  0.19D-07  6  2   133.08    16.01
   9      1.14169320    -0.48038362  -130.33013014     0.00000056    -0.00000018  0.23D-08  0.21D-08  6  3   147.42    15.98
  10      1.14168851    -0.48038437  -130.33013089    -0.00000075     0.00000161  0.37D-09  0.34D-09  6  5   162.01    15.98
  11      1.14169049    -0.48038435  -130.33013087     0.00000002    -0.00000037  0.10D-09  0.29D-10  6  4   176.76    16.02
  12      1.14169005    -0.48038442  -130.33013094    -0.00000007     0.00000005  0.19D-10  0.66D-11  6  6   191.04    16.00
  13      1.14168983    -0.48038442  -130.33013095    -0.00000000    -0.00000003  0.32D-11  0.95D-12  6  1   205.40    15.98
  14      1.14168956    -0.48038443  -130.33013096    -0.00000001     0.00000004  0.46D-12  0.17D-12  6  3   220.17    16.02
  15      1.14168948    -0.48038444  -130.33013096    -0.00000000     0.00000001  0.12D-12  0.23D-13  6  2   234.31    16.00
  16      1.14168947    -0.48038444  -130.33013096     0.00000000     0.00000000  0.33D-13  0.87D-14  6  4   248.45    15.99
  17      1.14168947    -0.48038444  -130.33013096    -0.00000000    -0.00000000  0.19D-14  0.11D-14  6  5   263.41    16.03
  18      1.14168948    -0.48038444  -130.33013096     0.00000000    -0.00000000  0.29D-15  0.30D-15  6  6   277.73    16.01
  19      1.14168948    -0.48038444  -130.33013096     0.00000000    -0.00000000  0.53D-16  0.42D-16  6  1   291.99    16.00
  20      1.14168948    -0.48038444  -130.33013096     0.00000000    -0.00000000  0.11D-16  0.62D-17  6  3   306.78    16.03
  21      1.14168948    -0.48038444  -130.33013096    -0.00000000     0.00000000  0.22D-17  0.11D-17  6  2   321.00    16.01
  22      1.14168948    -0.48038444  -130.33013096    -0.00000000     0.00000000  0.43D-18  0.18D-18  6  4   335.22    16.00
  23      1.14168948    -0.48038444  -130.33013096    -0.00000000     0.00000000  0.91D-19  0.45D-19  6  5   350.18    16.03
  24      1.14168948    -0.48038444  -130.33013096    -0.00000000     0.00000000  0.40D-19  0.23D-19  6  6   364.87    16.04
  25      1.14168948    -0.48038444  -130.33013096    -0.00000000     0.00000000  0.32D-19  0.18D-19  6  4   379.63    16.05

 Norm of t1 vector:      0.07635056      S-energy:    -0.00000000      T1 diagnostic:  0.01558499
                                                                       D1 diagnostic:  0.04234473

 Doubles amplitudes (print threshold =  0.500E-01):

         I         J         SYM. A    SYM. B    A         B      T(IJ, AB)

         6         6         2         2         1         1     -0.07982642
         6         6         2         2         1         2      0.05307192
         6         6         2         2         2         1      0.05307192


 Total CPU time for triples:    147.43 sec


 RESULTS
 =======

  Reference energy                   -129.849746522141
  CCSD singlet pair energy             -0.333220813785
  CCSD triplet pair energy             -0.147163623524
  CCSD correlation energy              -0.480384437312

  Triples (T) contribution             -0.022914711527
  Total correlation energy             -0.503299148839

  CCSD total energy                  -130.330130959453
  CCSD[T] energy                     -130.354125729625
  CCSD-T energy                      -130.352666597027
 !CCSD(T) total energy               -130.353045670981

 Timing summary (sec):

 STEP                 CPU(USER)    SYS     CPU(TOT)    WALL
 Transformation         17.69      2.14     19.83     19.84
 CCSD iterations       361.96     39.37    401.33    401.42
 Triples               147.43      2.56    149.99    150.02

 Program statistics:

 Available memory in ccsd:               994999756
 Min. memory needed in ccsd:               3348832
 Max. memory used in ccsd:                 4143652
 Max. memory used in cckext:               8340089 (25 integral passes)



 **********************************************************************************************************************************
 DATASETS  * FILE   NREC   LENGTH (MB)   RECORD NAMES
              1      20     6809.41       500      610      700      900      950      970     1000      129      960     1100   
                                          VAR    BASINP    GEOM    SYMINP    ZMAT    AOBASIS   BASIS     P2S    ABASIS      S 
                                         1400     1410     1200     1210     1080     1600     1650     1300     1700     1380   
                                           T        V       H0       H01     AOSYM     SMH    MOLCAS    ERIS     OPER     JKOP   

              2       4        4.02       700     1000      520     2100   
                                         GEOM     BASIS   MCVARS     RHF  

 PROGRAMS   *        TOTAL   CCSD(T)        HF       INT
 CPU TIMES  *       838.26    527.11    133.30    177.75
 REAL TIME  *       983.32 SEC
 DISK USED  *        21.32 GB      
 **********************************************************************************************************************************

 CCSD(T)/aug-cc-pV5Z energy=   -130.353045670981

        CCSD(T)         HF-SCF  
   -130.35304567   -129.84974652
 **********************************************************************************************************************************
 Molpro calculation terminated
 Variable memory released
