
 Primary working directories    : /tmp/r2666/234640.maple
 Secondary working directories  : /tmp/r2666/234640.maple
 Wavefunction directory         : /ddn/home4/r2666/wfu/
 Main file repository           : /tmp/r2666/234640.maple/

 SHA1      : d5ffa45e93fdbca01ffc919aa182cfdae0147319
 NAME      : 2015.1.35
 ARCHNAME  : linux/x86_64
 FC        : /opt/intel/composer_xe_2015.1.133/bin/intel64/ifort
 BLASLIB   : -Wl,-_start-group /opt/intel/mkl/lib/intel64/libmkl_intel_ilp64.a /opt/intel/mkl/lib/intel64/libmkl_intel_thread.a /opt/intel/mkl/lib/intel64/libmkl_core.a -Wl,-_end-group
 id        : olemiss

 Nodes     nprocs
 cn096        1

 Using customized tuning parameters: mindgm=1; mindgv=20; mindgc=4; mindgr=1; noblas=0; minvec=7
 default implementation of scratch files=df  

 ***,hno CCSD(T)/TZ-F12 QFF
 memory, 995, m;
 gthresh,energy=1.d-12,zero=1.d-22,oneint=1.d-22,twoint=1.d-22;
 gthresh,optgrad=1.d-8,optstep=1.d-8;
 nocompress;
 geomtyp=xyz
 bohr
 geometry={
 3
         12        12
 N        0.0000000000       -0.1447388005       -1.1401080280
 H        0.0000000000        1.6574710290       -1.9335985582
 O        0.0000000000        0.0290355615        1.1231169952
 }
 
 basis=av5z
   {hf,maxit=500;accu,20;}
 {ccsd(t),nocheck,maxit=250;orbital,IGNORE_ERROR;}

 Variables initialized (889), CPU time= 0.00 sec
 Commands  initialized (702), CPU time= 0.01 sec, 572 directives.
 Default parameters read. Elapsed time= 0.12 sec

 Checking input...
 Passed
1


                                         ***  PROGRAM SYSTEM MOLPRO  ***
                                       Copyright, TTI GmbH Stuttgart, 2015
                                    Version 2015.1 linked Jul  9 2018 13:16:40


 **********************************************************************************************************************************
 LABEL *   hno CCSD(T)/TZ-F12 QFF                                                        
  64 bit serial version                                                                  DATE: 08-Feb-20          TIME: 17:24:40  
 **********************************************************************************************************************************

 SHA1:             d5ffa45e93fdbca01ffc919aa182cfdae0147319
 **********************************************************************************************************************************

 THRESHOLDS:

 ZERO    =  1.00D-22  ONEINT  =  1.00D-22  TWOINT  =  1.00D-22  PREFAC  =  1.00D-14  LOCALI  =  1.00D-09  EORDER  =  1.00D-04
 ENERGY  =  1.00D-12  ETEST   =  0.00D+00  EDENS   =  0.00D+00  THRDEDEF=  1.00D-06  GRADIENT=  1.00D-02  STEP    =  1.00D-03
 ORBITAL =  1.00D-05  CIVEC   =  1.00D-05  COEFF   =  1.00D-04  PRINTCI =  5.00D-02  PUNCHCI =  9.90D+01  OPTGRAD =  3.00D-04
 OPTENERG=  1.00D-06  OPTSTEP =  3.00D-04  THRGRAD =  1.00D-10  COMPRESS=  1.00D-11  VARMIN  =  1.00D-07  VARMAX  =  1.00D-03
 THRDOUB =  0.00D+00  THRDIV  =  1.00D-05  THRRED  =  1.00D-07  THRPSP  =  1.00D+00  THRDC   =  1.00D-10  THRCS   =  1.00D-10
 THRNRM  =  1.00D-08  THREQ   =  0.00D+00  THRDE   =  1.00D+00  THRREF  =  1.00D-05  SPARFAC =  1.00D+00  THRDLP  =  1.00D-07
 THRDIA  =  1.00D-10  THRDLS  =  1.00D-07  THRGPS  =  0.00D+00  THRKEX  =  0.00D+00  THRDIS  =  2.00D-01  THRVAR  =  1.00D-10
 THRLOC  =  1.00D-06  THRGAP  =  1.00D-06  THRLOCT = -1.00D+00  THRGAPT = -1.00D+00  THRORB  =  1.00D-06  THRMLTP =  0.00D+00
 THRCPQCI=  1.00D-10  KEXTA   =  0.00D+00  THRCOARS=  0.00D+00  SYMTOL  =  1.00D-06  GRADTOL =  1.00D-06  THROVL  =  1.00D-08
 THRORTH =  1.00D-08  GRID    =  1.00D-06  GRIDMAX =  1.00D-03  DTMAX   =  0.00D+00  THROCCDE=  1.00D-01  THROCCDE=  1.00D-01



 THRESHOLDS:

 ZERO    =  1.00D-22  ONEINT  =  1.00D-22  TWOINT  =  1.00D-22  PREFAC  =  1.00D-14  LOCALI  =  1.00D-09  EORDER  =  1.00D-04
 ENERGY  =  1.00D-12  ETEST   =  0.00D+00  EDENS   =  0.00D+00  THRDEDEF=  1.00D-06  GRADIENT=  1.00D-02  STEP    =  1.00D-03
 ORBITAL =  1.00D-05  CIVEC   =  1.00D-05  COEFF   =  1.00D-04  PRINTCI =  5.00D-02  PUNCHCI =  9.90D+01  OPTGRAD =  1.00D-08
 OPTENERG=  1.00D-06  OPTSTEP =  1.00D-08  THRGRAD =  1.00D-10  COMPRESS=  1.00D-11  VARMIN  =  1.00D-07  VARMAX  =  1.00D-03
 THRDOUB =  0.00D+00  THRDIV  =  1.00D-05  THRRED  =  1.00D-07  THRPSP  =  1.00D+00  THRDC   =  1.00D-10  THRCS   =  1.00D-10
 THRNRM  =  1.00D-08  THREQ   =  0.00D+00  THRDE   =  1.00D+00  THRREF  =  1.00D-05  SPARFAC =  1.00D+00  THRDLP  =  1.00D-07
 THRDIA  =  1.00D-10  THRDLS  =  1.00D-07  THRGPS  =  0.00D+00  THRKEX  =  0.00D+00  THRDIS  =  2.00D-01  THRVAR  =  1.00D-10
 THRLOC  =  1.00D-06  THRGAP  =  1.00D-06  THRLOCT = -1.00D+00  THRGAPT = -1.00D+00  THRORB  =  1.00D-06  THRMLTP =  0.00D+00
 THRCPQCI=  1.00D-10  KEXTA   =  0.00D+00  THRCOARS=  0.00D+00  SYMTOL  =  1.00D-06  GRADTOL =  1.00D-06  THROVL  =  1.00D-08
 THRORTH =  1.00D-08  GRID    =  1.00D-06  GRIDMAX =  1.00D-03  DTMAX   =  0.00D+00  THROCCDE=  1.00D-01  THROCCDE=  1.00D-01



 Input parameters for SORTINT:

 COMPRESS =    0.000000
 C_FINAL  =    1.000000
 DEBUG    =   -1.000000
 C_SORT1  =    0.000000
 C_SEWARD =    0.000000
 THRESH   =    0.000000
 IO       =  molpro                                                          
 SPRI     =    0.000000
 SETTING GEOMTYP        =    XYZ
 ZUNIT=BOHR
 

 Variable memory set to  995000000 words,  buffer space   230000 words

 SETTING BASIS          =    AV5Z


 Recomputing integrals since basis changed


 Using spherical harmonics

 Library entry N      S aug-cc-pV5Z          selected for orbital group  1
 Library entry N      P aug-cc-pV5Z          selected for orbital group  1
 Library entry N      D aug-cc-pV5Z          selected for orbital group  1
 Library entry N      F aug-cc-pV5Z          selected for orbital group  1
 Library entry N      G aug-cc-pV5Z          selected for orbital group  1
 Library entry N      H aug-cc-pV5Z          selected for orbital group  1
 Library entry H      S aug-cc-pV5Z          selected for orbital group  2
 Library entry H      P aug-cc-pV5Z          selected for orbital group  2
 Library entry H      D aug-cc-pV5Z          selected for orbital group  2
 Library entry H      F aug-cc-pV5Z          selected for orbital group  2
 Library entry H      G aug-cc-pV5Z          selected for orbital group  2
 Library entry O      S aug-cc-pV5Z          selected for orbital group  3
 Library entry O      P aug-cc-pV5Z          selected for orbital group  3
 Library entry O      D aug-cc-pV5Z          selected for orbital group  3
 Library entry O      F aug-cc-pV5Z          selected for orbital group  3
 Library entry O      G aug-cc-pV5Z          selected for orbital group  3
 Library entry O      H aug-cc-pV5Z          selected for orbital group  3


 PROGRAM * SEWARD (Integral evaluation for generally contracted gaussian basis sets)     Author: Roland Lindh, 1990

 Geometry written to block  1 of record 700


 Point group  Cs  



 ATOMIC COORDINATES

 NR  ATOM    CHARGE       X              Y              Z

   1  N       7.00    0.000000000   -0.144738800   -1.140108028
   2  H       1.00    0.000000000    1.657471029   -1.933598558
   3  O       8.00    0.000000000    0.029035562    1.123116995

 Bond lengths in Bohr (Angstrom)

 1-2  1.969159082  1-3  2.269886569
     ( 1.042034111)     ( 1.201172244)

 Bond angles

  2-1-3  109.37264055

 NUCLEAR CHARGE:                   16
 NUMBER OF PRIMITIVE AOS:         506
 NUMBER OF SYMMETRY AOS:          371
 NUMBER OF CONTRACTIONS:          334   ( 204A'  + 130A"  )
 NUMBER OF CORE ORBITALS:           2   (   2A'  +   0A"  )
 NUMBER OF VALENCE ORBITALS:        9   (   7A'  +   2A"  )


 NUCLEAR REPULSION ENERGY   30.53550554


 Eigenvalues of metric

         1 0.109E-04 0.166E-04 0.615E-04 0.970E-04 0.103E-03 0.132E-03 0.194E-03 0.223E-03
         2 0.124E-03 0.349E-03 0.109E-02 0.152E-02 0.183E-02 0.243E-02 0.314E-02 0.379E-02


 Contracted 2-electron integrals neglected if value below      1.0D-22

      756977241. INTEGRALS WRITTEN OUT IN  184855 BLOCKS ON RECORD 1290 OF FILE 1


 NUMBER OF SORTED TWO-ELECTRON INTEGRALS:  789027325.     BUFFER LENGTH:  32768
 NUMBER OF SEGMENTS:  25  SEGMENT LENGTH:   31997130      RECORD LENGTH: 524288

 Memory used in sort:      32.55 MW

 SORT1 READ   756977241. AND WROTE   760993125. INTEGRALS IN   2189 RECORDS. CPU TIME:    39.71 SEC, REAL TIME:   291.32 SEC
 SORT2 READ   760993125. AND WROTE   789027325. INTEGRALS IN     25 RECORDS. CPU TIME:    14.49 SEC, REAL TIME:   141.27 SEC

 FILE SIZES:   FILE 1: 12137.5 MBYTE,  FILE 4:  9181.4 MBYTE,   TOTAL:  21318.9 MBYTE

 OPERATOR DM      FOR CENTER  0  COORDINATES:    0.000000    0.000000    0.000000


 **********************************************************************************************************************************
 DATASETS  * FILE   NREC   LENGTH (MB)   RECORD NAMES
              1      19     6374.22       500      610      700      900      950      970     1000      129      960     1100   
                                          VAR    BASINP    GEOM    SYMINP    ZMAT    AOBASIS   BASIS     P2S    ABASIS      S 
                                         1400     1410     1200     1210     1080     1600     1650     1300     1700   
                                           T        V       H0       H01     AOSYM     SMH    MOLCAS    ERIS     OPER   

 PROGRAMS   *        TOTAL       INT
 CPU TIMES  *       168.21    168.09
 REAL TIME  *       643.88 SEC
 DISK USED  *        21.32 GB      
 **********************************************************************************************************************************


 PROGRAM * RHF-SCF (CLOSED SHELL)       Authors: W. Meyer, H.-J. Werner


 NUMBER OF ELECTRONS:       8+    8-
 CONVERGENCE THRESHOLDS:    1.00E-10 (Density)    1.00E-13 (Energy)
 MAX. NUMBER OF ITERATIONS:      500
 INTERPOLATION TYPE:            DIIS
 INTERPOLATION STEPS:              2 (START)      1 (STEP)
 LEVEL SHIFTS:                  0.00 (CLOSED)  0.00 (OPEN) 



 Orbital guess generated from atomic densities. Full valence occupancy:    9   2

 Molecular orbital dump at record        2100.2

 Initial occupancy:   7   1

 ITERATION    DDIFF          GRAD             ENERGY        2-EL.EN.            DIPOLE MOMENTS         DIIS   ORB.
    1      0.000D+00      0.000D+00      -129.80119804    154.279742    0.00000    0.60870   -1.00854    0    start
    2      0.000D+00      0.633D-02      -129.82859694    155.506778    0.00000    0.60653   -0.21955    1    diag
    3      0.392D-02      0.473D-02      -129.84996086    155.620319    0.00000    0.56143   -0.58993    2    diag
    4      0.201D-02      0.765D-03      -129.85075278    155.341777    0.00000    0.56843   -0.52912    3    diag
    5      0.376D-03      0.245D-03      -129.85087396    155.434423    0.00000    0.57364   -0.53178    4    diag
    6      0.153D-03      0.705D-04      -129.85089313    155.418349    0.00000    0.57397   -0.52773    5    diag
    7      0.585D-04      0.349D-04      -129.85089863    155.421143    0.00000    0.57519   -0.52521    6    diag
    8      0.399D-04      0.121D-04      -129.85089923    155.420474    0.00000    0.57524   -0.52424    7    diag
    9      0.150D-04      0.231D-05      -129.85089926    155.420370    0.00000    0.57521   -0.52403    8    diag
   10      0.297D-05      0.533D-06      -129.85089926    155.420353    0.00000    0.57517   -0.52400    9    orth
   11      0.605D-06      0.107D-06      -129.85089926    155.420349    0.00000    0.57517   -0.52400    9    diag
   12      0.115D-06      0.214D-07      -129.85089926    155.420349    0.00000    0.57516   -0.52399    9    diag
   13      0.243D-07      0.553D-08      -129.85089926    155.420349    0.00000    0.57516   -0.52399    9    diag
   14      0.640D-08      0.108D-08      -129.85089926    155.420349    0.00000    0.57516   -0.52399    9    diag
   15      0.119D-08      0.310D-09      -129.85089926    155.420349    0.00000    0.57516   -0.52399    9    diag
   16      0.352D-09      0.949D-10      -129.85089926    155.420349    0.00000    0.57516   -0.52399    9    diag
   17      0.742D-10      0.248D-10      -129.85089926    155.420349    0.00000    0.57516   -0.52399    9    diag
   18      0.213D-10      0.841D-11      -129.85089926    155.420349    0.00000    0.57516   -0.52399    9    diag
   19      0.185D-10      0.213D-11      -129.85089926    155.420349    0.00000    0.57516   -0.52399    9    fixocc
   20      0.126D-10      0.524D-12      -129.85089926    155.420349    0.00000    0.57516   -0.52399    0    orth

 Final occupancy:   7   1

 !RHF STATE 1.1 Energy               -129.850899261887
 Nuclear energy                        30.53550554
 One-electron energy                 -238.09657940
 Two-electron energy                   77.71017460
 Virial quotient                       -1.00140765
 !RHF STATE 1.1 Dipole moment           0.00000000     0.57516382    -0.52399351
 Dipole moment /Debye                   0.00000000     1.46182487    -1.33177143

 Orbital energies:

         1.1          2.1          3.1          4.1          5.1          6.1          7.1          8.1          9.1
    -20.652383   -15.709419    -1.534401    -0.996108    -0.750290    -0.668306    -0.428216     0.022851     0.065534

         1.2          2.2          3.2
     -0.598993     0.061331     0.092075

 HOMO      7.1    -0.428216 =     -11.6524eV
 LUMO      8.1     0.022851 =       0.6218eV
 LUMO-HOMO         0.451067 =      12.2742eV


 **********************************************************************************************************************************
 DATASETS  * FILE   NREC   LENGTH (MB)   RECORD NAMES
              1      19     6374.22       500      610      700      900      950      970     1000      129      960     1100   
                                          VAR    BASINP    GEOM    SYMINP    ZMAT    AOBASIS   BASIS     P2S    ABASIS      S 
                                         1400     1410     1200     1210     1080     1600     1650     1300     1700   
                                           T        V       H0       H01     AOSYM     SMH    MOLCAS    ERIS     OPER   

              2       4        4.02       700     1000      520     2100   
                                         GEOM     BASIS   MCVARS     RHF  

 PROGRAMS   *        TOTAL        HF       INT
 CPU TIMES  *       239.53     71.32    168.09
 REAL TIME  *       736.49 SEC
 DISK USED  *        21.32 GB      
 **********************************************************************************************************************************


 PROGRAM * CCSD (Closed-shell coupled cluster)     Authors: C. Hampel, H.-J. Werner, 1991, M. Deegan, P.J. Knowles, 1992


 Convergence thresholds:  THRVAR = 1.00D-08  THRDEN = 1.00D-12

 CCSD(T)     terms to be evaluated (factor= 1.000)


 Number of core orbitals:           2 (   2   0 )
 Number of closed-shell orbitals:   6 (   5   1 )
 Number of external orbitals:     326 ( 197 129 )

 Molecular orbitals read from record     2100.2  Type=RHF/CANONICAL (state 1.1)

 Number of N-1 electron functions:               6
 Number of N-2 electron functions:              21
 Number of singly external CSFs:              1114
 Number of doubly external CSFs:            975958
 Total number of CSFs:                      977073

 Length of J-op  integral file:               0.00 MB
 Length of K-op  integral file:               4.07 MB
 Length of 3-ext integral record:             0.00 MB

 Memory could be reduced to 151.33 Mwords without degradation in triples

 Integral transformation finished. Total CPU:  10.31 sec, npass=  1  Memory used:  41.21 MW

 Reference energy:                   -129.85089926

 MP2 singlet pair energy:              -0.31026945
 MP2 triplet pair energy:              -0.17142155
 MP2 correlation energy:               -0.48169099
 MP2 total energy:                   -130.33259026

 SCS-MP2 correlation energy:           -0.47898563   (PS=  1.200000  PT=  0.333333)
 SCS-MP2 total energy:               -130.32988490

 ITER.      SQ.NORM     CORR.ENERGY   TOTAL ENERGY   ENERGY CHANGE        DEN1      VAR(S)    VAR(P)  DIIS     TIME  TIME/IT
   1      1.11956359    -0.47898353  -130.32988279     0.00270747     0.01901165  0.31D-02  0.31D-02  1  1    19.24     9.86
   2      1.12997834    -0.47892899  -130.32982825     0.00005454    -0.01245677  0.10D-03  0.47D-03  2  2    28.28     9.97
   3      1.13596763    -0.47929673  -130.33019599    -0.00036774    -0.00294454  0.46D-04  0.55D-04  3  3    38.72    10.49
   4      1.13867506    -0.47929555  -130.33019481     0.00000118    -0.00094381  0.42D-05  0.98D-05  4  4    49.58    10.91
   5      1.13975955    -0.47932315  -130.33022241    -0.00002761    -0.00024054  0.11D-05  0.17D-05  5  5    60.50    11.18
   6      1.14010616    -0.47931225  -130.33021152     0.00001090    -0.00004863  0.11D-06  0.42D-06  6  6    71.45    11.34
   7      1.14018231    -0.47931199  -130.33021126     0.00000026     0.00000307  0.16D-07  0.94D-07  6  1    82.53    11.45
   8      1.14020724    -0.47931216  -130.33021142    -0.00000016    -0.00000293  0.37D-08  0.19D-07  6  2    93.57    11.54
   9      1.14021566    -0.47931164  -130.33021090     0.00000052    -0.00000024  0.23D-08  0.19D-08  6  3   104.65    11.60
  10      1.14021114    -0.47931237  -130.33021163    -0.00000072     0.00000155  0.36D-09  0.31D-09  6  5   115.61    11.65
  11      1.14021296    -0.47931236  -130.33021162     0.00000001    -0.00000033  0.98D-10  0.26D-10  6  4   126.59    11.69
  12      1.14021252    -0.47931242  -130.33021168    -0.00000007     0.00000005  0.18D-10  0.61D-11  6  6   137.58    11.73
  13      1.14021231    -0.47931242  -130.33021169    -0.00000000    -0.00000003  0.31D-11  0.92D-12  6  1   148.61    11.76
  14      1.14021205    -0.47931243  -130.33021170    -0.00000001     0.00000004  0.47D-12  0.16D-12  6  3   159.53    11.78
  15      1.14021197    -0.47931244  -130.33021170    -0.00000000     0.00000001  0.12D-12  0.22D-13  6  2   170.54    11.81
  16      1.14021196    -0.47931244  -130.33021170     0.00000000     0.00000000  0.32D-13  0.84D-14  6  4   181.58    11.82
  17      1.14021196    -0.47931244  -130.33021170    -0.00000000    -0.00000000  0.18D-14  0.11D-14  6  5   192.47    11.84
  18      1.14021197    -0.47931244  -130.33021170     0.00000000    -0.00000000  0.28D-15  0.29D-15  6  6   203.53    11.86
  19      1.14021197    -0.47931244  -130.33021170     0.00000000    -0.00000000  0.35D-16  0.45D-16  6  2   214.63    11.87
  20      1.14021197    -0.47931244  -130.33021170     0.00000000    -0.00000000  0.93D-17  0.63D-17  6  1   225.60    11.88
  21      1.14021197    -0.47931244  -130.33021170    -0.00000000     0.00000000  0.16D-17  0.92D-18  6  3   236.59    11.89
  22      1.14021197    -0.47931244  -130.33021170    -0.00000000     0.00000000  0.31D-18  0.14D-18  6  4   247.69    11.90
  23      1.14021197    -0.47931244  -130.33021170    -0.00000000     0.00000000  0.91D-19  0.51D-19  6  2   258.75    11.91
  24      1.14021197    -0.47931244  -130.33021170    -0.00000000     0.00000000  0.37D-19  0.19D-19  6  5   269.75    11.92
  25      1.14021197    -0.47931244  -130.33021170    -0.00000000     0.00000000  0.21D-19  0.10D-19  6  6   278.79    11.85

 Norm of t1 vector:      0.07503472      S-energy:    -0.00000000      T1 diagnostic:  0.01531640
                                                                       D1 diagnostic:  0.04140096

 Doubles amplitudes (print threshold =  0.500E-01):

         I         J         SYM. A    SYM. B    A         B      T(IJ, AB)

         6         6         2         2         1         1     -0.07405170
         6         6         2         2         1         2      0.05299919
         6         6         2         2         2         1      0.05299919


 Total CPU time for triples:     88.71 sec


 RESULTS
 =======

  Reference energy                   -129.850899261887
  CCSD singlet pair energy             -0.332295603841
  CCSD triplet pair energy             -0.147016833957
  CCSD correlation energy              -0.479312437800

  Triples (T) contribution             -0.022647412303
  Total correlation energy             -0.501959850104

  CCSD total energy                  -130.330211699687
  CCSD[T] energy                     -130.353903882566
  CCSD-T energy                      -130.352489235540
 !CCSD(T) total energy               -130.352859111991

 Timing summary (sec):

 STEP                 CPU(USER)    SYS     CPU(TOT)    WALL
 Transformation         10.35      1.46     11.81     12.14
 CCSD iterations       268.45     27.65    296.10    296.20
 Triples                88.71      1.60     90.31     90.32

 Program statistics:

 Available memory in ccsd:               994999756
 Min. memory needed in ccsd:               3348832
 Max. memory used in ccsd:                 4143652
 Max. memory used in cckext:               8340089 (25 integral passes)



 **********************************************************************************************************************************
 DATASETS  * FILE   NREC   LENGTH (MB)   RECORD NAMES
              1      20     6809.41       500      610      700      900      950      970     1000      129      960     1100   
                                          VAR    BASINP    GEOM    SYMINP    ZMAT    AOBASIS   BASIS     P2S    ABASIS      S 
                                         1400     1410     1200     1210     1080     1600     1650     1300     1700     1380   
                                           T        V       H0       H01     AOSYM     SMH    MOLCAS    ERIS     OPER     JKOP   

              2       4        4.02       700     1000      520     2100   
                                         GEOM     BASIS   MCVARS     RHF  

 PROGRAMS   *        TOTAL   CCSD(T)        HF       INT
 CPU TIMES  *       607.07    367.54     71.32    168.09
 REAL TIME  *      1135.28 SEC
 DISK USED  *        21.32 GB      
 **********************************************************************************************************************************

 CCSD(T)/aug-cc-pV5Z energy=   -130.352859111991

        CCSD(T)         HF-SCF  
   -130.35285911   -129.85089926
 **********************************************************************************************************************************
 Molpro calculation terminated
 Variable memory released
