
 Primary working directories    : /tmp/r2666/234675.maple
 Secondary working directories  : /tmp/r2666/234675.maple
 Wavefunction directory         : /ddn/home4/r2666/wfu/
 Main file repository           : /tmp/r2666/234675.maple/

 SHA1      : d5ffa45e93fdbca01ffc919aa182cfdae0147319
 NAME      : 2015.1.35
 ARCHNAME  : linux/x86_64
 FC        : /opt/intel/composer_xe_2015.1.133/bin/intel64/ifort
 BLASLIB   : -Wl,-_start-group /opt/intel/mkl/lib/intel64/libmkl_intel_ilp64.a /opt/intel/mkl/lib/intel64/libmkl_intel_thread.a /opt/intel/mkl/lib/intel64/libmkl_core.a -Wl,-_end-group
 id        : olemiss

 Nodes     nprocs
 cn034        1

 Using customized tuning parameters: mindgm=1; mindgv=20; mindgc=4; mindgr=1; noblas=0; minvec=7
 default implementation of scratch files=df  

 ***,hno CCSD(T)/TZ-F12 QFF
 memory, 995, m;
 gthresh,energy=1.d-12,zero=1.d-22,oneint=1.d-22,twoint=1.d-22;
 gthresh,optgrad=1.d-8,optstep=1.d-8;
 nocompress;
 geomtyp=xyz
 bohr
 geometry={
 3
         47        47
 N        0.0000000000       -0.1618941763       -1.1348240112
 H        0.0000000000        1.6639965196       -1.9212661171
 O        0.0000000000        0.0396654467        1.1055005373
 }
 
 basis=av5z
   {hf,maxit=500;accu,20;}
 {ccsd(t),nocheck,maxit=250;orbital,IGNORE_ERROR;}

 Variables initialized (889), CPU time= 0.01 sec
 Commands  initialized (702), CPU time= 0.00 sec, 572 directives.
 Default parameters read. Elapsed time= 0.05 sec

 Checking input...
 Passed
1


                                         ***  PROGRAM SYSTEM MOLPRO  ***
                                       Copyright, TTI GmbH Stuttgart, 2015
                                    Version 2015.1 linked Jul  9 2018 13:16:40


 **********************************************************************************************************************************
 LABEL *   hno CCSD(T)/TZ-F12 QFF                                                        
  64 bit serial version                                                                  DATE: 08-Feb-20          TIME: 17:24:42  
 **********************************************************************************************************************************

 SHA1:             d5ffa45e93fdbca01ffc919aa182cfdae0147319
 **********************************************************************************************************************************

 THRESHOLDS:

 ZERO    =  1.00D-22  ONEINT  =  1.00D-22  TWOINT  =  1.00D-22  PREFAC  =  1.00D-14  LOCALI  =  1.00D-09  EORDER  =  1.00D-04
 ENERGY  =  1.00D-12  ETEST   =  0.00D+00  EDENS   =  0.00D+00  THRDEDEF=  1.00D-06  GRADIENT=  1.00D-02  STEP    =  1.00D-03
 ORBITAL =  1.00D-05  CIVEC   =  1.00D-05  COEFF   =  1.00D-04  PRINTCI =  5.00D-02  PUNCHCI =  9.90D+01  OPTGRAD =  3.00D-04
 OPTENERG=  1.00D-06  OPTSTEP =  3.00D-04  THRGRAD =  1.00D-10  COMPRESS=  1.00D-11  VARMIN  =  1.00D-07  VARMAX  =  1.00D-03
 THRDOUB =  0.00D+00  THRDIV  =  1.00D-05  THRRED  =  1.00D-07  THRPSP  =  1.00D+00  THRDC   =  1.00D-10  THRCS   =  1.00D-10
 THRNRM  =  1.00D-08  THREQ   =  0.00D+00  THRDE   =  1.00D+00  THRREF  =  1.00D-05  SPARFAC =  1.00D+00  THRDLP  =  1.00D-07
 THRDIA  =  1.00D-10  THRDLS  =  1.00D-07  THRGPS  =  0.00D+00  THRKEX  =  0.00D+00  THRDIS  =  2.00D-01  THRVAR  =  1.00D-10
 THRLOC  =  1.00D-06  THRGAP  =  1.00D-06  THRLOCT = -1.00D+00  THRGAPT = -1.00D+00  THRORB  =  1.00D-06  THRMLTP =  0.00D+00
 THRCPQCI=  1.00D-10  KEXTA   =  0.00D+00  THRCOARS=  0.00D+00  SYMTOL  =  1.00D-06  GRADTOL =  1.00D-06  THROVL  =  1.00D-08
 THRORTH =  1.00D-08  GRID    =  1.00D-06  GRIDMAX =  1.00D-03  DTMAX   =  0.00D+00  THROCCDE=  1.00D-01  THROCCDE=  1.00D-01



 THRESHOLDS:

 ZERO    =  1.00D-22  ONEINT  =  1.00D-22  TWOINT  =  1.00D-22  PREFAC  =  1.00D-14  LOCALI  =  1.00D-09  EORDER  =  1.00D-04
 ENERGY  =  1.00D-12  ETEST   =  0.00D+00  EDENS   =  0.00D+00  THRDEDEF=  1.00D-06  GRADIENT=  1.00D-02  STEP    =  1.00D-03
 ORBITAL =  1.00D-05  CIVEC   =  1.00D-05  COEFF   =  1.00D-04  PRINTCI =  5.00D-02  PUNCHCI =  9.90D+01  OPTGRAD =  1.00D-08
 OPTENERG=  1.00D-06  OPTSTEP =  1.00D-08  THRGRAD =  1.00D-10  COMPRESS=  1.00D-11  VARMIN  =  1.00D-07  VARMAX  =  1.00D-03
 THRDOUB =  0.00D+00  THRDIV  =  1.00D-05  THRRED  =  1.00D-07  THRPSP  =  1.00D+00  THRDC   =  1.00D-10  THRCS   =  1.00D-10
 THRNRM  =  1.00D-08  THREQ   =  0.00D+00  THRDE   =  1.00D+00  THRREF  =  1.00D-05  SPARFAC =  1.00D+00  THRDLP  =  1.00D-07
 THRDIA  =  1.00D-10  THRDLS  =  1.00D-07  THRGPS  =  0.00D+00  THRKEX  =  0.00D+00  THRDIS  =  2.00D-01  THRVAR  =  1.00D-10
 THRLOC  =  1.00D-06  THRGAP  =  1.00D-06  THRLOCT = -1.00D+00  THRGAPT = -1.00D+00  THRORB  =  1.00D-06  THRMLTP =  0.00D+00
 THRCPQCI=  1.00D-10  KEXTA   =  0.00D+00  THRCOARS=  0.00D+00  SYMTOL  =  1.00D-06  GRADTOL =  1.00D-06  THROVL  =  1.00D-08
 THRORTH =  1.00D-08  GRID    =  1.00D-06  GRIDMAX =  1.00D-03  DTMAX   =  0.00D+00  THROCCDE=  1.00D-01  THROCCDE=  1.00D-01



 Input parameters for SORTINT:

 COMPRESS =    0.000000
 C_FINAL  =    1.000000
 DEBUG    =   -1.000000
 C_SORT1  =    0.000000
 C_SEWARD =    0.000000
 THRESH   =    0.000000
 IO       =  molpro                                                          
 SPRI     =    0.000000
 SETTING GEOMTYP        =    XYZ
 ZUNIT=BOHR
 

 Variable memory set to  995000000 words,  buffer space   230000 words

 SETTING BASIS          =    AV5Z


 Recomputing integrals since basis changed


 Using spherical harmonics

 Library entry N      S aug-cc-pV5Z          selected for orbital group  1
 Library entry N      P aug-cc-pV5Z          selected for orbital group  1
 Library entry N      D aug-cc-pV5Z          selected for orbital group  1
 Library entry N      F aug-cc-pV5Z          selected for orbital group  1
 Library entry N      G aug-cc-pV5Z          selected for orbital group  1
 Library entry N      H aug-cc-pV5Z          selected for orbital group  1
 Library entry H      S aug-cc-pV5Z          selected for orbital group  2
 Library entry H      P aug-cc-pV5Z          selected for orbital group  2
 Library entry H      D aug-cc-pV5Z          selected for orbital group  2
 Library entry H      F aug-cc-pV5Z          selected for orbital group  2
 Library entry H      G aug-cc-pV5Z          selected for orbital group  2
 Library entry O      S aug-cc-pV5Z          selected for orbital group  3
 Library entry O      P aug-cc-pV5Z          selected for orbital group  3
 Library entry O      D aug-cc-pV5Z          selected for orbital group  3
 Library entry O      F aug-cc-pV5Z          selected for orbital group  3
 Library entry O      G aug-cc-pV5Z          selected for orbital group  3
 Library entry O      H aug-cc-pV5Z          selected for orbital group  3


 PROGRAM * SEWARD (Integral evaluation for generally contracted gaussian basis sets)     Author: Roland Lindh, 1990

 Geometry written to block  1 of record 700


 Point group  Cs  



 ATOMIC COORDINATES

 NR  ATOM    CHARGE       X              Y              Z

   1  N       7.00    0.000000000   -0.161894176   -1.134824011
   2  H       1.00    0.000000000    1.663996520   -1.921266117
   3  O       8.00    0.000000000    0.039665447    1.105500537

 Bond lengths in Bohr (Angstrom)

 1-2  1.988056342  1-3  2.249373327
     ( 1.052034110)     ( 1.190317104)

 Bond angles

  2-1-3  108.16136558

 NUCLEAR CHARGE:                   16
 NUMBER OF PRIMITIVE AOS:         506
 NUMBER OF SYMMETRY AOS:          371
 NUMBER OF CONTRACTIONS:          334   ( 204A'  + 130A"  )
 NUMBER OF CORE ORBITALS:           2   (   2A'  +   0A"  )
 NUMBER OF VALENCE ORBITALS:        9   (   7A'  +   2A"  )


 NUCLEAR REPULSION ENERGY   30.74576283


 Eigenvalues of metric

         1 0.109E-04 0.165E-04 0.627E-04 0.944E-04 0.100E-03 0.131E-03 0.196E-03 0.222E-03
         2 0.121E-03 0.362E-03 0.106E-02 0.145E-02 0.190E-02 0.238E-02 0.322E-02 0.377E-02


 Contracted 2-electron integrals neglected if value below      1.0D-22

      756977575. INTEGRALS WRITTEN OUT IN  184855 BLOCKS ON RECORD 1290 OF FILE 1


 NUMBER OF SORTED TWO-ELECTRON INTEGRALS:  789027325.     BUFFER LENGTH:  32768
 NUMBER OF SEGMENTS:  25  SEGMENT LENGTH:   31997130      RECORD LENGTH: 524288

 Memory used in sort:      32.55 MW

 SORT1 READ   756977575. AND WROTE   760993470. INTEGRALS IN   2189 RECORDS. CPU TIME:    27.48 SEC, REAL TIME:   167.72 SEC
 SORT2 READ   760993470. AND WROTE   789027325. INTEGRALS IN     25 RECORDS. CPU TIME:    11.49 SEC, REAL TIME:    71.24 SEC

 FILE SIZES:   FILE 1: 12137.5 MBYTE,  FILE 4:  9181.4 MBYTE,   TOTAL:  21318.9 MBYTE

 OPERATOR DM      FOR CENTER  0  COORDINATES:    0.000000    0.000000    0.000000


 **********************************************************************************************************************************
 DATASETS  * FILE   NREC   LENGTH (MB)   RECORD NAMES
              1      19     6374.22       500      610      700      900      950      970     1000      129      960     1100   
                                          VAR    BASINP    GEOM    SYMINP    ZMAT    AOBASIS   BASIS     P2S    ABASIS      S 
                                         1400     1410     1200     1210     1080     1600     1650     1300     1700   
                                           T        V       H0       H01     AOSYM     SMH    MOLCAS    ERIS     OPER   

 PROGRAMS   *        TOTAL       INT
 CPU TIMES  *       141.88    141.80
 REAL TIME  *       349.63 SEC
 DISK USED  *        21.32 GB      
 **********************************************************************************************************************************


 PROGRAM * RHF-SCF (CLOSED SHELL)       Authors: W. Meyer, H.-J. Werner


 NUMBER OF ELECTRONS:       8+    8-
 CONVERGENCE THRESHOLDS:    1.00E-10 (Density)    1.00E-13 (Energy)
 MAX. NUMBER OF ITERATIONS:      500
 INTERPOLATION TYPE:            DIIS
 INTERPOLATION STEPS:              2 (START)      1 (STEP)
 LEVEL SHIFTS:                  0.00 (CLOSED)  0.00 (OPEN) 



 Orbital guess generated from atomic densities. Full valence occupancy:    9   2

 Molecular orbital dump at record        2100.2

 Initial occupancy:   7   1

 ITERATION    DDIFF          GRAD             ENERGY        2-EL.EN.            DIPOLE MOMENTS         DIIS   ORB.
    1      0.000D+00      0.000D+00      -129.80305230    154.654873    0.00000    0.58697   -0.97225    0    start
    2      0.000D+00      0.629D-02      -129.83070602    155.905968    0.00000    0.59915   -0.21379    1    diag
    3      0.386D-02      0.461D-02      -129.85095239    155.994658    0.00000    0.54802   -0.56724    2    diag
    4      0.197D-02      0.750D-03      -129.85171721    155.724078    0.00000    0.55581   -0.50872    3    diag
    5      0.369D-03      0.243D-03      -129.85183609    155.816136    0.00000    0.56104   -0.51155    4    diag
    6      0.151D-03      0.702D-04      -129.85185500    155.800067    0.00000    0.56140   -0.50766    5    diag
    7      0.580D-04      0.344D-04      -129.85186028    155.803024    0.00000    0.56267   -0.50529    6    diag
    8      0.392D-04      0.115D-04      -129.85186080    155.802377    0.00000    0.56273   -0.50439    7    diag
    9      0.139D-04      0.217D-05      -129.85186082    155.802278    0.00000    0.56270   -0.50419    8    diag
   10      0.271D-05      0.507D-06      -129.85186083    155.802261    0.00000    0.56267   -0.50416    9    orth
   11      0.572D-06      0.105D-06      -129.85186083    155.802257    0.00000    0.56266   -0.50416    9    diag
   12      0.113D-06      0.210D-07      -129.85186083    155.802256    0.00000    0.56266   -0.50416    9    diag
   13      0.248D-07      0.539D-08      -129.85186083    155.802256    0.00000    0.56266   -0.50416    9    diag
   14      0.643D-08      0.108D-08      -129.85186083    155.802256    0.00000    0.56266   -0.50416    9    diag
   15      0.120D-08      0.319D-09      -129.85186083    155.802256    0.00000    0.56266   -0.50416    9    diag
   16      0.365D-09      0.100D-09      -129.85186083    155.802256    0.00000    0.56266   -0.50416    9    diag
   17      0.722D-10      0.278D-10      -129.85186083    155.802256    0.00000    0.56266   -0.50416    9    diag
   18      0.260D-10      0.927D-11      -129.85186083    155.802256    0.00000    0.56266   -0.50416    9    diag
   19      0.201D-10      0.235D-11      -129.85186083    155.802256    0.00000    0.56266   -0.50416    0    orth

 Final occupancy:   7   1

 !RHF STATE 1.1 Energy               -129.851860826205
 Nuclear energy                        30.74576283
 One-electron energy                 -238.49875176
 Two-electron energy                   77.90112811
 Virial quotient                       -1.00114919
 !RHF STATE 1.1 Dipole moment           0.00000000     0.56265556    -0.50415923
 Dipole moment /Debye                   0.00000000     1.43003413    -1.28136101

 Orbital energies:

         1.1          2.1          3.1          4.1          5.1          6.1          7.1          8.1          9.1
    -20.651236   -15.709150    -1.544030    -0.990255    -0.752675    -0.671214    -0.425071     0.023059     0.065567

         1.2          2.2          3.2
     -0.604618     0.063518     0.093397

 HOMO      7.1    -0.425071 =     -11.5668eV
 LUMO      8.1     0.023059 =       0.6275eV
 LUMO-HOMO         0.448130 =      12.1942eV


 **********************************************************************************************************************************
 DATASETS  * FILE   NREC   LENGTH (MB)   RECORD NAMES
              1      19     6374.22       500      610      700      900      950      970     1000      129      960     1100   
                                          VAR    BASINP    GEOM    SYMINP    ZMAT    AOBASIS   BASIS     P2S    ABASIS      S 
                                         1400     1410     1200     1210     1080     1600     1650     1300     1700   
                                           T        V       H0       H01     AOSYM     SMH    MOLCAS    ERIS     OPER   

              2       4        4.02       700     1000      520     2100   
                                         GEOM     BASIS   MCVARS     RHF  

 PROGRAMS   *        TOTAL        HF       INT
 CPU TIMES  *       220.95     79.07    141.80
 REAL TIME  *       451.52 SEC
 DISK USED  *        21.32 GB      
 **********************************************************************************************************************************


 PROGRAM * CCSD (Closed-shell coupled cluster)     Authors: C. Hampel, H.-J. Werner, 1991, M. Deegan, P.J. Knowles, 1992


 Convergence thresholds:  THRVAR = 1.00D-08  THRDEN = 1.00D-12

 CCSD(T)     terms to be evaluated (factor= 1.000)


 Number of core orbitals:           2 (   2   0 )
 Number of closed-shell orbitals:   6 (   5   1 )
 Number of external orbitals:     326 ( 197 129 )

 Molecular orbitals read from record     2100.2  Type=RHF/CANONICAL (state 1.1)

 Number of N-1 electron functions:               6
 Number of N-2 electron functions:              21
 Number of singly external CSFs:              1114
 Number of doubly external CSFs:            975958
 Total number of CSFs:                      977073

 Length of J-op  integral file:               0.00 MB
 Length of K-op  integral file:               4.07 MB
 Length of 3-ext integral record:             0.00 MB

 Memory could be reduced to 151.33 Mwords without degradation in triples

 Integral transformation finished. Total CPU:  14.64 sec, npass=  1  Memory used:  41.21 MW

 Reference energy:                   -129.85186083

 MP2 singlet pair energy:              -0.30940956
 MP2 triplet pair energy:              -0.17083432
 MP2 correlation energy:               -0.48024388
 MP2 total energy:                   -130.33210471

 SCS-MP2 correlation energy:           -0.47758839   (PS=  1.200000  PT=  0.333333)
 SCS-MP2 total energy:               -130.32944921

 ITER.      SQ.NORM     CORR.ENERGY   TOTAL ENERGY   ENERGY CHANGE        DEN1      VAR(S)    VAR(P)  DIIS     TIME  TIME/IT
   1      1.11872194    -0.47793507  -130.32979590     0.00230881     0.01822090  0.29D-02  0.30D-02  1  1    25.72    12.26
   2      1.12891610    -0.47796566  -130.32982649    -0.00003059    -0.01222395  0.95D-04  0.46D-03  2  2    37.15    12.52
   3      1.13474058    -0.47832109  -130.33018192    -0.00035543    -0.00290128  0.43D-04  0.52D-04  3  3    48.59    12.60
   4      1.13733157    -0.47831889  -130.33017972     0.00000220    -0.00091517  0.39D-05  0.92D-05  4  4    60.12    12.64
   5      1.13834723    -0.47834508  -130.33020591    -0.00002619    -0.00022673  0.10D-05  0.16D-05  5  5    71.52    12.67
   6      1.13867412    -0.47833518  -130.33019600     0.00000990    -0.00004566  0.11D-06  0.40D-06  6  6    83.15    12.70
   7      1.13874896    -0.47833469  -130.33019551     0.00000049     0.00000245  0.17D-07  0.87D-07  6  1    94.51    12.71
   8      1.13877324    -0.47833488  -130.33019571    -0.00000020    -0.00000276  0.37D-08  0.17D-07  6  2   106.02    12.74
   9      1.13878154    -0.47833439  -130.33019522     0.00000049    -0.00000028  0.20D-08  0.17D-08  6  3   117.39    12.74
  10      1.13877746    -0.47833506  -130.33019588    -0.00000067     0.00000142  0.31D-09  0.26D-09  6  5   128.97    12.74
  11      1.13877903    -0.47833506  -130.33019588     0.00000000    -0.00000026  0.84D-10  0.22D-10  6  4   140.35    12.74
  12      1.13877861    -0.47833512  -130.33019594    -0.00000006     0.00000005  0.16D-10  0.52D-11  6  6   151.87    12.74
  13      1.13877825    -0.47833512  -130.33019595    -0.00000001    -0.00000003  0.17D-11  0.68D-12  6  4   163.46    12.75
  14      1.13877816    -0.47833513  -130.33019595    -0.00000001     0.00000002  0.46D-12  0.15D-12  6  1   174.95    12.75
  15      1.13877810    -0.47833513  -130.33019596    -0.00000000     0.00000001  0.88D-13  0.29D-13  6  3   186.44    12.75
  16      1.13877808    -0.47833513  -130.33019596    -0.00000000     0.00000001  0.17D-13  0.61D-14  6  2   197.90    12.75
  17      1.13877808    -0.47833513  -130.33019596    -0.00000000     0.00000000  0.18D-14  0.16D-14  6  5   209.52    12.76
  18      1.13877809    -0.47833513  -130.33019596     0.00000000    -0.00000000  0.29D-15  0.28D-15  6  6   220.94    12.76
  19      1.13877809    -0.47833513  -130.33019596     0.00000000    -0.00000000  0.72D-16  0.50D-16  6  4   232.37    12.76
  20      1.13877809    -0.47833513  -130.33019596     0.00000000    -0.00000000  0.91D-17  0.71D-17  6  3   243.97    12.76
  21      1.13877809    -0.47833513  -130.33019596     0.00000000    -0.00000000  0.17D-17  0.12D-17  6  1   255.44    12.76
  22      1.13877809    -0.47833513  -130.33019596    -0.00000000     0.00000000  0.48D-18  0.33D-18  6  2   266.94    12.76
  23      1.13877809    -0.47833513  -130.33019596    -0.00000000    -0.00000000  0.17D-18  0.16D-18  6  5   278.39    12.76
  24      1.13877809    -0.47833513  -130.33019596     0.00000000    -0.00000000  0.82D-19  0.88D-19  6  6   289.75    12.76

 Norm of t1 vector:      0.07341632      S-energy:    -0.00000000      T1 diagnostic:  0.01498604
                                                                       D1 diagnostic:  0.03994327

 Doubles amplitudes (print threshold =  0.500E-01):

         I         J         SYM. A    SYM. B    A         B      T(IJ, AB)

         6         6         2         2         1         1     -0.06556940
         6         6         2         2         1         2      0.05215848
         6         6         2         2         2         1      0.05215848


 Total CPU time for triples:    118.90 sec


 RESULTS
 =======

  Reference energy                   -129.851860826205
  CCSD singlet pair energy             -0.331440392587
  CCSD triplet pair energy             -0.146894738540
  CCSD correlation energy              -0.478335131128

  Triples (T) contribution             -0.022362950885
  Total correlation energy             -0.500698082014

  CCSD total energy                  -130.330195957333
  CCSD[T] energy                     -130.353562878236
  CCSD-T energy                      -130.352198098730
 !CCSD(T) total energy               -130.352558908218

 Timing summary (sec):

 STEP                 CPU(USER)    SYS     CPU(TOT)    WALL
 Transformation         14.71      1.61     16.32     16.33
 CCSD iterations       275.04     31.25    306.29    306.30
 Triples               118.90      2.02    120.92    120.92

 Program statistics:

 Available memory in ccsd:               994999756
 Min. memory needed in ccsd:               3348832
 Max. memory used in ccsd:                 4143652
 Max. memory used in cckext:               8340089 (24 integral passes)



 **********************************************************************************************************************************
 DATASETS  * FILE   NREC   LENGTH (MB)   RECORD NAMES
              1      20     6809.41       500      610      700      900      950      970     1000      129      960     1100   
                                          VAR    BASINP    GEOM    SYMINP    ZMAT    AOBASIS   BASIS     P2S    ABASIS      S 
                                         1400     1410     1200     1210     1080     1600     1650     1300     1700     1380   
                                           T        V       H0       H01     AOSYM     SMH    MOLCAS    ERIS     OPER     JKOP   

              2       4        4.02       700     1000      520     2100   
                                         GEOM     BASIS   MCVARS     RHF  

 PROGRAMS   *        TOTAL   CCSD(T)        HF       INT
 CPU TIMES  *       629.62    408.67     79.07    141.80
 REAL TIME  *       895.12 SEC
 DISK USED  *        21.32 GB      
 **********************************************************************************************************************************

 CCSD(T)/aug-cc-pV5Z energy=   -130.352558908218

        CCSD(T)         HF-SCF  
   -130.35255891   -129.85186083
 **********************************************************************************************************************************
 Molpro calculation terminated
 Variable memory released
