
 Primary working directories    : /tmp/r2666/234755.maple
 Secondary working directories  : /tmp/r2666/234755.maple
 Wavefunction directory         : /ddn/home4/r2666/wfu/
 Main file repository           : /tmp/r2666/234755.maple/

 SHA1      : d5ffa45e93fdbca01ffc919aa182cfdae0147319
 NAME      : 2015.1.35
 ARCHNAME  : linux/x86_64
 FC        : /opt/intel/composer_xe_2015.1.133/bin/intel64/ifort
 BLASLIB   : -Wl,-_start-group /opt/intel/mkl/lib/intel64/libmkl_intel_ilp64.a /opt/intel/mkl/lib/intel64/libmkl_intel_thread.a /opt/intel/mkl/lib/intel64/libmkl_core.a -Wl,-_end-group
 id        : olemiss

 Nodes     nprocs
 cn076        1

 Using customized tuning parameters: mindgm=1; mindgv=20; mindgc=4; mindgr=1; noblas=0; minvec=7
 default implementation of scratch files=df  

 ***,hno CCSD(T)/TZ-F12 QFF
 memory, 995, m;
 gthresh,energy=1.d-12,zero=1.d-22,oneint=1.d-22,twoint=1.d-22;
 gthresh,optgrad=1.d-8,optstep=1.d-8;
 nocompress;
 geomtyp=xyz
 bohr
 geometry={
 3
        127       127
 N        0.0000000000       -0.1800354817       -1.1480500511
 H        0.0000000000        1.6797765988       -1.9271373286
 O        0.0000000000        0.0420266728        1.1245977887
 }
 
 basis=av5z
   {hf,maxit=500;accu,20;}
 {ccsd(t),nocheck,maxit=250;orbital,IGNORE_ERROR;}

 Variables initialized (889), CPU time= 0.01 sec
 Commands  initialized (702), CPU time= 0.01 sec, 572 directives.
 Default parameters read. Elapsed time= 0.04 sec

 Checking input...
 Passed
1


                                         ***  PROGRAM SYSTEM MOLPRO  ***
                                       Copyright, TTI GmbH Stuttgart, 2015
                                    Version 2015.1 linked Jul  9 2018 13:16:40


 **********************************************************************************************************************************
 LABEL *   hno CCSD(T)/TZ-F12 QFF                                                        
  64 bit serial version                                                                  DATE: 08-Feb-20          TIME: 17:43:56  
 **********************************************************************************************************************************

 SHA1:             d5ffa45e93fdbca01ffc919aa182cfdae0147319
 **********************************************************************************************************************************

 THRESHOLDS:

 ZERO    =  1.00D-22  ONEINT  =  1.00D-22  TWOINT  =  1.00D-22  PREFAC  =  1.00D-14  LOCALI  =  1.00D-09  EORDER  =  1.00D-04
 ENERGY  =  1.00D-12  ETEST   =  0.00D+00  EDENS   =  0.00D+00  THRDEDEF=  1.00D-06  GRADIENT=  1.00D-02  STEP    =  1.00D-03
 ORBITAL =  1.00D-05  CIVEC   =  1.00D-05  COEFF   =  1.00D-04  PRINTCI =  5.00D-02  PUNCHCI =  9.90D+01  OPTGRAD =  3.00D-04
 OPTENERG=  1.00D-06  OPTSTEP =  3.00D-04  THRGRAD =  1.00D-10  COMPRESS=  1.00D-11  VARMIN  =  1.00D-07  VARMAX  =  1.00D-03
 THRDOUB =  0.00D+00  THRDIV  =  1.00D-05  THRRED  =  1.00D-07  THRPSP  =  1.00D+00  THRDC   =  1.00D-10  THRCS   =  1.00D-10
 THRNRM  =  1.00D-08  THREQ   =  0.00D+00  THRDE   =  1.00D+00  THRREF  =  1.00D-05  SPARFAC =  1.00D+00  THRDLP  =  1.00D-07
 THRDIA  =  1.00D-10  THRDLS  =  1.00D-07  THRGPS  =  0.00D+00  THRKEX  =  0.00D+00  THRDIS  =  2.00D-01  THRVAR  =  1.00D-10
 THRLOC  =  1.00D-06  THRGAP  =  1.00D-06  THRLOCT = -1.00D+00  THRGAPT = -1.00D+00  THRORB  =  1.00D-06  THRMLTP =  0.00D+00
 THRCPQCI=  1.00D-10  KEXTA   =  0.00D+00  THRCOARS=  0.00D+00  SYMTOL  =  1.00D-06  GRADTOL =  1.00D-06  THROVL  =  1.00D-08
 THRORTH =  1.00D-08  GRID    =  1.00D-06  GRIDMAX =  1.00D-03  DTMAX   =  0.00D+00  THROCCDE=  1.00D-01  THROCCDE=  1.00D-01



 THRESHOLDS:

 ZERO    =  1.00D-22  ONEINT  =  1.00D-22  TWOINT  =  1.00D-22  PREFAC  =  1.00D-14  LOCALI  =  1.00D-09  EORDER  =  1.00D-04
 ENERGY  =  1.00D-12  ETEST   =  0.00D+00  EDENS   =  0.00D+00  THRDEDEF=  1.00D-06  GRADIENT=  1.00D-02  STEP    =  1.00D-03
 ORBITAL =  1.00D-05  CIVEC   =  1.00D-05  COEFF   =  1.00D-04  PRINTCI =  5.00D-02  PUNCHCI =  9.90D+01  OPTGRAD =  1.00D-08
 OPTENERG=  1.00D-06  OPTSTEP =  1.00D-08  THRGRAD =  1.00D-10  COMPRESS=  1.00D-11  VARMIN  =  1.00D-07  VARMAX  =  1.00D-03
 THRDOUB =  0.00D+00  THRDIV  =  1.00D-05  THRRED  =  1.00D-07  THRPSP  =  1.00D+00  THRDC   =  1.00D-10  THRCS   =  1.00D-10
 THRNRM  =  1.00D-08  THREQ   =  0.00D+00  THRDE   =  1.00D+00  THRREF  =  1.00D-05  SPARFAC =  1.00D+00  THRDLP  =  1.00D-07
 THRDIA  =  1.00D-10  THRDLS  =  1.00D-07  THRGPS  =  0.00D+00  THRKEX  =  0.00D+00  THRDIS  =  2.00D-01  THRVAR  =  1.00D-10
 THRLOC  =  1.00D-06  THRGAP  =  1.00D-06  THRLOCT = -1.00D+00  THRGAPT = -1.00D+00  THRORB  =  1.00D-06  THRMLTP =  0.00D+00
 THRCPQCI=  1.00D-10  KEXTA   =  0.00D+00  THRCOARS=  0.00D+00  SYMTOL  =  1.00D-06  GRADTOL =  1.00D-06  THROVL  =  1.00D-08
 THRORTH =  1.00D-08  GRID    =  1.00D-06  GRIDMAX =  1.00D-03  DTMAX   =  0.00D+00  THROCCDE=  1.00D-01  THROCCDE=  1.00D-01



 Input parameters for SORTINT:

 COMPRESS =    0.000000
 C_FINAL  =    1.000000
 DEBUG    =   -1.000000
 C_SORT1  =    0.000000
 C_SEWARD =    0.000000
 THRESH   =    0.000000
 IO       =  molpro                                                          
 SPRI     =    0.000000
 SETTING GEOMTYP        =    XYZ
 ZUNIT=BOHR
 

 Variable memory set to  995000000 words,  buffer space   230000 words

 SETTING BASIS          =    AV5Z


 Recomputing integrals since basis changed


 Using spherical harmonics

 Library entry N      S aug-cc-pV5Z          selected for orbital group  1
 Library entry N      P aug-cc-pV5Z          selected for orbital group  1
 Library entry N      D aug-cc-pV5Z          selected for orbital group  1
 Library entry N      F aug-cc-pV5Z          selected for orbital group  1
 Library entry N      G aug-cc-pV5Z          selected for orbital group  1
 Library entry N      H aug-cc-pV5Z          selected for orbital group  1
 Library entry H      S aug-cc-pV5Z          selected for orbital group  2
 Library entry H      P aug-cc-pV5Z          selected for orbital group  2
 Library entry H      D aug-cc-pV5Z          selected for orbital group  2
 Library entry H      F aug-cc-pV5Z          selected for orbital group  2
 Library entry H      G aug-cc-pV5Z          selected for orbital group  2
 Library entry O      S aug-cc-pV5Z          selected for orbital group  3
 Library entry O      P aug-cc-pV5Z          selected for orbital group  3
 Library entry O      D aug-cc-pV5Z          selected for orbital group  3
 Library entry O      F aug-cc-pV5Z          selected for orbital group  3
 Library entry O      G aug-cc-pV5Z          selected for orbital group  3
 Library entry O      H aug-cc-pV5Z          selected for orbital group  3


 PROGRAM * SEWARD (Integral evaluation for generally contracted gaussian basis sets)     Author: Roland Lindh, 1990

 Geometry written to block  1 of record 700


 Point group  Cs  



 ATOMIC COORDINATES

 NR  ATOM    CHARGE       X              Y              Z

   1  N       7.00    0.000000000   -0.180035482   -1.148050051
   2  H       1.00    0.000000000    1.679776599   -1.927137329
   3  O       8.00    0.000000000    0.042026673    1.124597789

 Bond lengths in Bohr (Angstrom)

 1-2  2.016402232  1-3  2.283470999
     ( 1.067034109)     ( 1.208360815)

 Bond angles

  2-1-3  107.14842540

 NUCLEAR CHARGE:                   16
 NUMBER OF PRIMITIVE AOS:         506
 NUMBER OF SYMMETRY AOS:          371
 NUMBER OF CONTRACTIONS:          334   ( 204A'  + 130A"  )
 NUMBER OF CORE ORBITALS:           2   (   2A'  +   0A"  )
 NUMBER OF VALENCE ORBITALS:        9   (   7A'  +   2A"  )


 NUCLEAR REPULSION ENERGY   30.30545074


 Eigenvalues of metric

         1 0.116E-04 0.177E-04 0.659E-04 0.101E-03 0.105E-03 0.140E-03 0.205E-03 0.225E-03
         2 0.128E-03 0.384E-03 0.114E-02 0.159E-02 0.206E-02 0.258E-02 0.342E-02 0.402E-02


 Contracted 2-electron integrals neglected if value below      1.0D-22

      756977479. INTEGRALS WRITTEN OUT IN  184855 BLOCKS ON RECORD 1290 OF FILE 1


 NUMBER OF SORTED TWO-ELECTRON INTEGRALS:  789027325.     BUFFER LENGTH:  32768
 NUMBER OF SEGMENTS:  25  SEGMENT LENGTH:   31997130      RECORD LENGTH: 524288

 Memory used in sort:      32.55 MW

 SORT1 READ   756977479. AND WROTE   760993363. INTEGRALS IN   2189 RECORDS. CPU TIME:    16.02 SEC, REAL TIME:    26.88 SEC
 SORT2 READ   760993363. AND WROTE   789027325. INTEGRALS IN     25 RECORDS. CPU TIME:     8.27 SEC, REAL TIME:    12.11 SEC

 FILE SIZES:   FILE 1: 12137.5 MBYTE,  FILE 4:  9181.4 MBYTE,   TOTAL:  21318.9 MBYTE

 OPERATOR DM      FOR CENTER  0  COORDINATES:    0.000000    0.000000    0.000000


 **********************************************************************************************************************************
 DATASETS  * FILE   NREC   LENGTH (MB)   RECORD NAMES
              1      19     6374.22       500      610      700      900      950      970     1000      129      960     1100   
                                          VAR    BASINP    GEOM    SYMINP    ZMAT    AOBASIS   BASIS     P2S    ABASIS      S 
                                         1400     1410     1200     1210     1080     1600     1650     1300     1700   
                                           T        V       H0       H01     AOSYM     SMH    MOLCAS    ERIS     OPER   

 PROGRAMS   *        TOTAL       INT
 CPU TIMES  *       111.81    111.73
 REAL TIME  *       133.41 SEC
 DISK USED  *        21.32 GB      
 **********************************************************************************************************************************


 PROGRAM * RHF-SCF (CLOSED SHELL)       Authors: W. Meyer, H.-J. Werner


 NUMBER OF ELECTRONS:       8+    8-
 CONVERGENCE THRESHOLDS:    1.00E-10 (Density)    1.00E-13 (Energy)
 MAX. NUMBER OF ITERATIONS:      500
 INTERPOLATION TYPE:            DIIS
 INTERPOLATION STEPS:              2 (START)      1 (STEP)
 LEVEL SHIFTS:                  0.00 (CLOSED)  0.00 (OPEN) 



 Orbital guess generated from atomic densities. Full valence occupancy:    9   2

 Molecular orbital dump at record        2100.2

 Initial occupancy:   7   1

 ITERATION    DDIFF          GRAD             ENERGY        2-EL.EN.            DIPOLE MOMENTS         DIIS   ORB.
    1      0.000D+00      0.000D+00      -129.79688496    153.858170    0.00000    0.57654   -1.02966    0    start
    2      0.000D+00      0.647D-02      -129.82408748    155.090970    0.00000    0.61036   -0.19666    1    diag
    3      0.405D-02      0.498D-02      -129.84794637    155.215731    0.00000    0.54754   -0.58906    2    diag
    4      0.210D-02      0.766D-03      -129.84875375    154.929049    0.00000    0.55531   -0.52764    3    diag
    5      0.378D-03      0.252D-03      -129.84888330    155.023751    0.00000    0.56067   -0.53011    4    diag
    6      0.158D-03      0.736D-04      -129.84890429    155.007177    0.00000    0.56091   -0.52582    5    diag
    7      0.613D-04      0.365D-04      -129.84891040    155.010046    0.00000    0.56218   -0.52317    6    diag
    8      0.420D-04      0.129D-04      -129.84891110    155.009315    0.00000    0.56222   -0.52213    7    diag
    9      0.162D-04      0.250D-05      -129.84891113    155.009198    0.00000    0.56219   -0.52190    8    diag
   10      0.329D-05      0.561D-06      -129.84891114    155.009179    0.00000    0.56215   -0.52187    9    orth
   11      0.634D-06      0.113D-06      -129.84891114    155.009174    0.00000    0.56215   -0.52187    9    diag
   12      0.119D-06      0.232D-07      -129.84891114    155.009174    0.00000    0.56214   -0.52187    9    diag
   13      0.265D-07      0.616D-08      -129.84891114    155.009174    0.00000    0.56214   -0.52187    9    diag
   14      0.724D-08      0.120D-08      -129.84891114    155.009174    0.00000    0.56214   -0.52187    9    diag
   15      0.132D-08      0.345D-09      -129.84891114    155.009174    0.00000    0.56214   -0.52187    9    diag
   16      0.389D-09      0.104D-09      -129.84891114    155.009174    0.00000    0.56214   -0.52187    9    diag
   17      0.758D-10      0.286D-10      -129.84891114    155.009174    0.00000    0.56214   -0.52187    9    diag
   18      0.253D-10      0.993D-11      -129.84891114    155.009174    0.00000    0.56214   -0.52187    0    orth

 Final occupancy:   7   1

 !RHF STATE 1.1 Energy               -129.848911135290
 Nuclear energy                        30.30545074
 One-electron energy                 -237.65894885
 Two-electron energy                   77.50458697
 Virial quotient                       -1.00185663
 !RHF STATE 1.1 Dipole moment           0.00000000     0.56214410    -0.52186529
 Dipole moment /Debye                   0.00000000     1.42873421    -1.32636238

 Orbital energies:

         1.1          2.1          3.1          4.1          5.1          6.1          7.1          8.1          9.1
    -20.653013   -15.714444    -1.529339    -0.990160    -0.745467    -0.665796    -0.430447     0.022917     0.065568

         1.2          2.2          3.2
     -0.596220     0.060294     0.091775

 HOMO      7.1    -0.430447 =     -11.7131eV
 LUMO      8.1     0.022917 =       0.6236eV
 LUMO-HOMO         0.453364 =      12.3367eV


 **********************************************************************************************************************************
 DATASETS  * FILE   NREC   LENGTH (MB)   RECORD NAMES
              1      19     6374.22       500      610      700      900      950      970     1000      129      960     1100   
                                          VAR    BASINP    GEOM    SYMINP    ZMAT    AOBASIS   BASIS     P2S    ABASIS      S 
                                         1400     1410     1200     1210     1080     1600     1650     1300     1700   
                                           T        V       H0       H01     AOSYM     SMH    MOLCAS    ERIS     OPER   

              2       4        4.02       700     1000      520     2100   
                                         GEOM     BASIS   MCVARS     RHF  

 PROGRAMS   *        TOTAL        HF       INT
 CPU TIMES  *       170.50     58.68    111.73
 REAL TIME  *       211.26 SEC
 DISK USED  *        21.32 GB      
 **********************************************************************************************************************************


 PROGRAM * CCSD (Closed-shell coupled cluster)     Authors: C. Hampel, H.-J. Werner, 1991, M. Deegan, P.J. Knowles, 1992


 Convergence thresholds:  THRVAR = 1.00D-08  THRDEN = 1.00D-12

 CCSD(T)     terms to be evaluated (factor= 1.000)


 Number of core orbitals:           2 (   2   0 )
 Number of closed-shell orbitals:   6 (   5   1 )
 Number of external orbitals:     326 ( 197 129 )

 Molecular orbitals read from record     2100.2  Type=RHF/CANONICAL (state 1.1)

 Number of N-1 electron functions:               6
 Number of N-2 electron functions:              21
 Number of singly external CSFs:              1114
 Number of doubly external CSFs:            975958
 Total number of CSFs:                      977073

 Length of J-op  integral file:               0.00 MB
 Length of K-op  integral file:               4.07 MB
 Length of 3-ext integral record:             0.00 MB

 Memory could be reduced to 151.33 Mwords without degradation in triples

 Integral transformation finished. Total CPU:  10.16 sec, npass=  1  Memory used:  41.21 MW

 Reference energy:                   -129.84891114

 MP2 singlet pair energy:              -0.31154830
 MP2 triplet pair energy:              -0.17224652
 MP2 correlation energy:               -0.48379482
 MP2 total energy:                   -130.33270595

 SCS-MP2 correlation energy:           -0.48103357   (PS=  1.200000  PT=  0.333333)
 SCS-MP2 total energy:               -130.32994471

 ITER.      SQ.NORM     CORR.ENERGY   TOTAL ENERGY   ENERGY CHANGE        DEN1      VAR(S)    VAR(P)  DIIS     TIME  TIME/IT
   1      1.12110900    -0.48073522  -130.32964636     0.00305959     0.01985639  0.32D-02  0.32D-02  1  1    18.41     9.15
   2      1.13182697    -0.48061039  -130.32952153     0.00012483    -0.01276111  0.11D-03  0.49D-03  2  2    26.75     9.37
   3      1.13805024    -0.48099948  -130.32991061    -0.00038909    -0.00303284  0.49D-04  0.57D-04  3  3    35.26     9.46
   4      1.14086114    -0.48099626  -130.32990740     0.00000321    -0.00097826  0.47D-05  0.10D-04  4  4    43.68     9.48
   5      1.14200225    -0.48102612  -130.32993725    -0.00002985    -0.00025390  0.12D-05  0.16D-05  5  5    52.06     9.50
   6      1.14235924    -0.48101444  -130.32992558     0.00001168    -0.00005063  0.13D-06  0.39D-06  6  6    60.42     9.51
   7      1.14243552    -0.48101384  -130.32992497     0.00000060     0.00000322  0.20D-07  0.89D-07  6  1    68.92     9.51
   8      1.14246113    -0.48101379  -130.32992492     0.00000005    -0.00000312  0.35D-08  0.18D-07  6  2    77.40     9.52
   9      1.14246993    -0.48101319  -130.32992433     0.00000059    -0.00000017  0.21D-08  0.20D-08  6  3    85.73     9.52
  10      1.14246549    -0.48101392  -130.32992506    -0.00000073     0.00000155  0.33D-09  0.32D-09  6  5    94.14     9.53
  11      1.14246744    -0.48101391  -130.32992504     0.00000002    -0.00000035  0.97D-10  0.27D-10  6  4   102.46     9.53
  12      1.14246700    -0.48101397  -130.32992511    -0.00000007     0.00000005  0.18D-10  0.63D-11  6  6   110.92     9.53
  13      1.14246679    -0.48101398  -130.32992511    -0.00000000    -0.00000003  0.31D-11  0.91D-12  6  1   119.39     9.53
  14      1.14246652    -0.48101399  -130.32992512    -0.00000001     0.00000004  0.45D-12  0.17D-12  6  3   127.77     9.53
  15      1.14246644    -0.48101399  -130.32992513    -0.00000000     0.00000001  0.12D-12  0.24D-13  6  2   136.22     9.54
  16      1.14246643    -0.48101399  -130.32992512     0.00000000     0.00000000  0.32D-13  0.95D-14  6  4   144.59     9.54
  17      1.14246643    -0.48101399  -130.32992513    -0.00000000    -0.00000000  0.18D-14  0.12D-14  6  5   153.05     9.54
  18      1.14246643    -0.48101399  -130.32992512     0.00000000    -0.00000000  0.27D-15  0.30D-15  6  6   161.36     9.54
  19      1.14246644    -0.48101399  -130.32992512     0.00000000    -0.00000000  0.53D-16  0.40D-16  6  1   169.78     9.54
  20      1.14246644    -0.48101399  -130.32992512     0.00000000    -0.00000000  0.11D-16  0.61D-17  6  3   178.18     9.54
  21      1.14246644    -0.48101399  -130.32992512    -0.00000000     0.00000000  0.21D-17  0.11D-17  6  2   186.56     9.54
  22      1.14246644    -0.48101399  -130.32992512    -0.00000000     0.00000000  0.40D-18  0.17D-18  6  4   194.95     9.54
  23      1.14246644    -0.48101399  -130.32992512    -0.00000000     0.00000000  0.81D-19  0.45D-19  6  5   203.27     9.54
  24      1.14246644    -0.48101399  -130.32992512    -0.00000000     0.00000000  0.34D-19  0.22D-19  6  6   211.79     9.54
  25      1.14246644    -0.48101399  -130.32992512     0.00000000    -0.00000000  0.20D-19  0.13D-19  6  1   220.12     9.54

 Norm of t1 vector:      0.07665046      S-energy:    -0.00000000      T1 diagnostic:  0.01564621
                                                                       D1 diagnostic:  0.04218244

 Doubles amplitudes (print threshold =  0.500E-01):

         I         J         SYM. A    SYM. B    A         B      T(IJ, AB)

         6         6         2         2         1         1     -0.07955747
         6         6         2         2         1         2      0.05289670
         6         6         2         2         2         1      0.05289670


 Total CPU time for triples:     87.59 sec


 RESULTS
 =======

  Reference energy                   -129.848911135289
  CCSD singlet pair energy             -0.333749708196
  CCSD triplet pair energy             -0.147264280889
  CCSD correlation energy              -0.481013989086

  Triples (T) contribution             -0.023022838851
  Total correlation energy             -0.504036827937

  CCSD total energy                  -130.329925124375
  CCSD[T] energy                     -130.354038021536
  CCSD-T energy                      -130.352563954831
 !CCSD(T) total energy               -130.352947963226

 Timing summary (sec):

 STEP                 CPU(USER)    SYS     CPU(TOT)    WALL
 Transformation         10.21      1.52     11.73     11.74
 CCSD iterations       209.92     28.64    238.56    238.58
 Triples                87.59      1.94     89.53     89.53

 Program statistics:

 Available memory in ccsd:               994999756
 Min. memory needed in ccsd:               3348832
 Max. memory used in ccsd:                 4143652
 Max. memory used in cckext:               8340089 (25 integral passes)



 **********************************************************************************************************************************
 DATASETS  * FILE   NREC   LENGTH (MB)   RECORD NAMES
              1      20     6809.41       500      610      700      900      950      970     1000      129      960     1100   
                                          VAR    BASINP    GEOM    SYMINP    ZMAT    AOBASIS   BASIS     P2S    ABASIS      S 
                                         1400     1410     1200     1210     1080     1600     1650     1300     1700     1380   
                                           T        V       H0       H01     AOSYM     SMH    MOLCAS    ERIS     OPER     JKOP   

              2       4        4.02       700     1000      520     2100   
                                         GEOM     BASIS   MCVARS     RHF  

 PROGRAMS   *        TOTAL   CCSD(T)        HF       INT
 CPU TIMES  *       478.23    307.73     58.68    111.73
 REAL TIME  *       551.15 SEC
 DISK USED  *        21.32 GB      
 **********************************************************************************************************************************

 CCSD(T)/aug-cc-pV5Z energy=   -130.352947963226

        CCSD(T)         HF-SCF  
   -130.35294796   -129.84891114
 **********************************************************************************************************************************
 Molpro calculation terminated
 Variable memory released
