
 Primary working directories    : /tmp/r2666/234661.maple
 Secondary working directories  : /tmp/r2666/234661.maple
 Wavefunction directory         : /ddn/home4/r2666/wfu/
 Main file repository           : /tmp/r2666/234661.maple/

 SHA1      : d5ffa45e93fdbca01ffc919aa182cfdae0147319
 NAME      : 2015.1.35
 ARCHNAME  : linux/x86_64
 FC        : /opt/intel/composer_xe_2015.1.133/bin/intel64/ifort
 BLASLIB   : -Wl,-_start-group /opt/intel/mkl/lib/intel64/libmkl_intel_ilp64.a /opt/intel/mkl/lib/intel64/libmkl_intel_thread.a /opt/intel/mkl/lib/intel64/libmkl_core.a -Wl,-_end-group
 id        : olemiss

 Nodes     nprocs
 cn029        1

 Using customized tuning parameters: mindgm=1; mindgv=20; mindgc=4; mindgr=1; noblas=0; minvec=7
 default implementation of scratch files=df  

 ***,hno CCSD(T)/TZ-F12 QFF
 memory, 995, m;
 gthresh,energy=1.d-12,zero=1.d-22,oneint=1.d-22,twoint=1.d-22;
 gthresh,optgrad=1.d-8,optstep=1.d-8;
 nocompress;
 geomtyp=xyz
 bohr
 geometry={
 3
         33        33
 N        0.0000000000       -0.1558622251       -1.1495296874
 H        0.0000000000        1.6627159214       -1.9290564691
 O        0.0000000000        0.0349140938        1.1279965655
 }
 
 basis=av5z
   {hf,maxit=500;accu,20;}
 {ccsd(t),nocheck,maxit=250;orbital,IGNORE_ERROR;}

 Variables initialized (889), CPU time= 0.00 sec
 Commands  initialized (702), CPU time= 0.01 sec, 572 directives.
 Default parameters read. Elapsed time= 0.16 sec

 Checking input...
 Passed
1


                                         ***  PROGRAM SYSTEM MOLPRO  ***
                                       Copyright, TTI GmbH Stuttgart, 2015
                                    Version 2015.1 linked Jul  9 2018 13:16:40


 **********************************************************************************************************************************
 LABEL *   hno CCSD(T)/TZ-F12 QFF                                                        
  64 bit serial version                                                                  DATE: 08-Feb-20          TIME: 17:24:42  
 **********************************************************************************************************************************

 SHA1:             d5ffa45e93fdbca01ffc919aa182cfdae0147319
 **********************************************************************************************************************************

 THRESHOLDS:

 ZERO    =  1.00D-22  ONEINT  =  1.00D-22  TWOINT  =  1.00D-22  PREFAC  =  1.00D-14  LOCALI  =  1.00D-09  EORDER  =  1.00D-04
 ENERGY  =  1.00D-12  ETEST   =  0.00D+00  EDENS   =  0.00D+00  THRDEDEF=  1.00D-06  GRADIENT=  1.00D-02  STEP    =  1.00D-03
 ORBITAL =  1.00D-05  CIVEC   =  1.00D-05  COEFF   =  1.00D-04  PRINTCI =  5.00D-02  PUNCHCI =  9.90D+01  OPTGRAD =  3.00D-04
 OPTENERG=  1.00D-06  OPTSTEP =  3.00D-04  THRGRAD =  1.00D-10  COMPRESS=  1.00D-11  VARMIN  =  1.00D-07  VARMAX  =  1.00D-03
 THRDOUB =  0.00D+00  THRDIV  =  1.00D-05  THRRED  =  1.00D-07  THRPSP  =  1.00D+00  THRDC   =  1.00D-10  THRCS   =  1.00D-10
 THRNRM  =  1.00D-08  THREQ   =  0.00D+00  THRDE   =  1.00D+00  THRREF  =  1.00D-05  SPARFAC =  1.00D+00  THRDLP  =  1.00D-07
 THRDIA  =  1.00D-10  THRDLS  =  1.00D-07  THRGPS  =  0.00D+00  THRKEX  =  0.00D+00  THRDIS  =  2.00D-01  THRVAR  =  1.00D-10
 THRLOC  =  1.00D-06  THRGAP  =  1.00D-06  THRLOCT = -1.00D+00  THRGAPT = -1.00D+00  THRORB  =  1.00D-06  THRMLTP =  0.00D+00
 THRCPQCI=  1.00D-10  KEXTA   =  0.00D+00  THRCOARS=  0.00D+00  SYMTOL  =  1.00D-06  GRADTOL =  1.00D-06  THROVL  =  1.00D-08
 THRORTH =  1.00D-08  GRID    =  1.00D-06  GRIDMAX =  1.00D-03  DTMAX   =  0.00D+00  THROCCDE=  1.00D-01  THROCCDE=  1.00D-01



 THRESHOLDS:

 ZERO    =  1.00D-22  ONEINT  =  1.00D-22  TWOINT  =  1.00D-22  PREFAC  =  1.00D-14  LOCALI  =  1.00D-09  EORDER  =  1.00D-04
 ENERGY  =  1.00D-12  ETEST   =  0.00D+00  EDENS   =  0.00D+00  THRDEDEF=  1.00D-06  GRADIENT=  1.00D-02  STEP    =  1.00D-03
 ORBITAL =  1.00D-05  CIVEC   =  1.00D-05  COEFF   =  1.00D-04  PRINTCI =  5.00D-02  PUNCHCI =  9.90D+01  OPTGRAD =  1.00D-08
 OPTENERG=  1.00D-06  OPTSTEP =  1.00D-08  THRGRAD =  1.00D-10  COMPRESS=  1.00D-11  VARMIN  =  1.00D-07  VARMAX  =  1.00D-03
 THRDOUB =  0.00D+00  THRDIV  =  1.00D-05  THRRED  =  1.00D-07  THRPSP  =  1.00D+00  THRDC   =  1.00D-10  THRCS   =  1.00D-10
 THRNRM  =  1.00D-08  THREQ   =  0.00D+00  THRDE   =  1.00D+00  THRREF  =  1.00D-05  SPARFAC =  1.00D+00  THRDLP  =  1.00D-07
 THRDIA  =  1.00D-10  THRDLS  =  1.00D-07  THRGPS  =  0.00D+00  THRKEX  =  0.00D+00  THRDIS  =  2.00D-01  THRVAR  =  1.00D-10
 THRLOC  =  1.00D-06  THRGAP  =  1.00D-06  THRLOCT = -1.00D+00  THRGAPT = -1.00D+00  THRORB  =  1.00D-06  THRMLTP =  0.00D+00
 THRCPQCI=  1.00D-10  KEXTA   =  0.00D+00  THRCOARS=  0.00D+00  SYMTOL  =  1.00D-06  GRADTOL =  1.00D-06  THROVL  =  1.00D-08
 THRORTH =  1.00D-08  GRID    =  1.00D-06  GRIDMAX =  1.00D-03  DTMAX   =  0.00D+00  THROCCDE=  1.00D-01  THROCCDE=  1.00D-01



 Input parameters for SORTINT:

 COMPRESS =    0.000000
 C_FINAL  =    1.000000
 DEBUG    =   -1.000000
 C_SORT1  =    0.000000
 C_SEWARD =    0.000000
 THRESH   =    0.000000
 IO       =  molpro                                                          
 SPRI     =    0.000000
 SETTING GEOMTYP        =    XYZ
 ZUNIT=BOHR
 

 Variable memory set to  995000000 words,  buffer space   230000 words

 SETTING BASIS          =    AV5Z


 Recomputing integrals since basis changed


 Using spherical harmonics

 Library entry N      S aug-cc-pV5Z          selected for orbital group  1
 Library entry N      P aug-cc-pV5Z          selected for orbital group  1
 Library entry N      D aug-cc-pV5Z          selected for orbital group  1
 Library entry N      F aug-cc-pV5Z          selected for orbital group  1
 Library entry N      G aug-cc-pV5Z          selected for orbital group  1
 Library entry N      H aug-cc-pV5Z          selected for orbital group  1
 Library entry H      S aug-cc-pV5Z          selected for orbital group  2
 Library entry H      P aug-cc-pV5Z          selected for orbital group  2
 Library entry H      D aug-cc-pV5Z          selected for orbital group  2
 Library entry H      F aug-cc-pV5Z          selected for orbital group  2
 Library entry H      G aug-cc-pV5Z          selected for orbital group  2
 Library entry O      S aug-cc-pV5Z          selected for orbital group  3
 Library entry O      P aug-cc-pV5Z          selected for orbital group  3
 Library entry O      D aug-cc-pV5Z          selected for orbital group  3
 Library entry O      F aug-cc-pV5Z          selected for orbital group  3
 Library entry O      G aug-cc-pV5Z          selected for orbital group  3
 Library entry O      H aug-cc-pV5Z          selected for orbital group  3


 PROGRAM * SEWARD (Integral evaluation for generally contracted gaussian basis sets)     Author: Roland Lindh, 1990

 Geometry written to block  1 of record 700


 Point group  Cs  



 ATOMIC COORDINATES

 NR  ATOM    CHARGE       X              Y              Z

   1  N       7.00    0.000000000   -0.155862225   -1.149529687
   2  H       1.00    0.000000000    1.662715921   -1.929056469
   3  O       8.00    0.000000000    0.034914094    1.127996565

 Bond lengths in Bohr (Angstrom)

 1-2  1.978607712  1-3  2.285502447
     ( 1.047034111)     ( 1.209435811)

 Bond angles

  2-1-3  108.41402801

 NUCLEAR CHARGE:                   16
 NUMBER OF PRIMITIVE AOS:         506
 NUMBER OF SYMMETRY AOS:          371
 NUMBER OF CONTRACTIONS:          334   ( 204A'  + 130A"  )
 NUMBER OF CORE ORBITALS:           2   (   2A'  +   0A"  )
 NUMBER OF VALENCE ORBITALS:        9   (   7A'  +   2A"  )


 NUCLEAR REPULSION ENERGY   30.34996442


 Eigenvalues of metric

         1 0.112E-04 0.171E-04 0.629E-04 0.999E-04 0.105E-03 0.136E-03 0.198E-03 0.224E-03
         2 0.128E-03 0.357E-03 0.112E-02 0.159E-02 0.189E-02 0.253E-02 0.321E-02 0.387E-02


 Contracted 2-electron integrals neglected if value below      1.0D-22

      756970192. INTEGRALS WRITTEN OUT IN  184853 BLOCKS ON RECORD 1290 OF FILE 1


 NUMBER OF SORTED TWO-ELECTRON INTEGRALS:  789027325.     BUFFER LENGTH:  32768
 NUMBER OF SEGMENTS:  25  SEGMENT LENGTH:   31997130      RECORD LENGTH: 524288

 Memory used in sort:      32.55 MW

 SORT1 READ   756970192. AND WROTE   760986090. INTEGRALS IN   2189 RECORDS. CPU TIME:    20.08 SEC, REAL TIME:    41.93 SEC
 SORT2 READ   760986090. AND WROTE   789027325. INTEGRALS IN     25 RECORDS. CPU TIME:    11.20 SEC, REAL TIME:    42.52 SEC

 FILE SIZES:   FILE 1: 12137.4 MBYTE,  FILE 4:  9181.4 MBYTE,   TOTAL:  21318.7 MBYTE

 OPERATOR DM      FOR CENTER  0  COORDINATES:    0.000000    0.000000    0.000000


 **********************************************************************************************************************************
 DATASETS  * FILE   NREC   LENGTH (MB)   RECORD NAMES
              1      19     6374.17       500      610      700      900      950      970     1000      129      960     1100   
                                          VAR    BASINP    GEOM    SYMINP    ZMAT    AOBASIS   BASIS     P2S    ABASIS      S 
                                         1400     1410     1200     1210     1080     1600     1650     1300     1700   
                                           T        V       H0       H01     AOSYM     SMH    MOLCAS    ERIS     OPER   

 PROGRAMS   *        TOTAL       INT
 CPU TIMES  *       124.25    124.14
 REAL TIME  *       186.80 SEC
 DISK USED  *        21.32 GB      
 **********************************************************************************************************************************


 PROGRAM * RHF-SCF (CLOSED SHELL)       Authors: W. Meyer, H.-J. Werner


 NUMBER OF ELECTRONS:       8+    8-
 CONVERGENCE THRESHOLDS:    1.00E-10 (Density)    1.00E-13 (Energy)
 MAX. NUMBER OF ITERATIONS:      500
 INTERPOLATION TYPE:            DIIS
 INTERPOLATION STEPS:              2 (START)      1 (STEP)
 LEVEL SHIFTS:                  0.00 (CLOSED)  0.00 (OPEN) 



 Orbital guess generated from atomic densities. Full valence occupancy:    9   2

 Molecular orbital dump at record        2100.2

 Initial occupancy:   7   1

 ITERATION    DDIFF          GRAD             ENERGY        2-EL.EN.            DIPOLE MOMENTS         DIIS   ORB.
    1      0.000D+00      0.000D+00      -129.79851456    153.947302    0.00000    0.60106   -1.03366    0    start
    2      0.000D+00      0.641D-02      -129.82569590    155.160283    0.00000    0.61164   -0.20988    1    diag
    3      0.401D-02      0.489D-02      -129.84870062    155.292141    0.00000    0.55981   -0.59810    2    diag
    4      0.207D-02      0.771D-03      -129.84951021    155.006735    0.00000    0.56706   -0.53610    3    diag
    5      0.379D-03      0.249D-03      -129.84963601    155.100296    0.00000    0.57226   -0.53855    4    diag
    6      0.156D-03      0.720D-04      -129.84965607    155.084025    0.00000    0.57253   -0.53432    5    diag
    7      0.599D-04      0.359D-04      -129.84966195    155.086775    0.00000    0.57374   -0.53167    6    diag
    8      0.411D-04      0.127D-04      -129.84966263    155.086066    0.00000    0.57378   -0.53063    7    diag
    9      0.160D-04      0.246D-05      -129.84966266    155.085955    0.00000    0.57375   -0.53040    8    diag
   10      0.324D-05      0.553D-06      -129.84966267    155.085937    0.00000    0.57371   -0.53038    9    orth
   11      0.628D-06      0.111D-06      -129.84966267    155.085933    0.00000    0.57371   -0.53037    9    diag
   12      0.116D-06      0.225D-07      -129.84966267    155.085933    0.00000    0.57371   -0.53037    9    diag
   13      0.250D-07      0.592D-08      -129.84966267    155.085933    0.00000    0.57371   -0.53037    9    diag
   14      0.676D-08      0.114D-08      -129.84966267    155.085933    0.00000    0.57371   -0.53037    9    diag
   15      0.123D-08      0.324D-09      -129.84966267    155.085933    0.00000    0.57371   -0.53037    9    diag
   16      0.372D-09      0.970D-10      -129.84966267    155.085933    0.00000    0.57371   -0.53037    9    diag
   17      0.712D-10      0.248D-10      -129.84966267    155.085933    0.00000    0.57371   -0.53037    9    diag
   18      0.317D-10      0.834D-11      -129.84966267    155.085933    0.00000    0.57371   -0.53037    9    diag
   19      0.198D-10      0.201D-11      -129.84966267    155.085933    0.00000    0.57371   -0.53037    9    fixocc
   20      0.681D-11      0.504D-12      -129.84966267    155.085933    0.00000    0.57371   -0.53037    9    orth
   21      0.126D-10      0.372D-12      -129.84966267    155.085933    0.00000    0.57371   -0.53037    0    orth

 Final occupancy:   7   1

 !RHF STATE 1.1 Energy               -129.849662665256
 Nuclear energy                        30.34996442
 One-electron energy                 -237.74259367
 Two-electron energy                   77.54296659
 Virial quotient                       -1.00169218
 !RHF STATE 1.1 Dipole moment           0.00000000     0.57370530    -0.53037258
 Dipole moment /Debye                   0.00000000     1.45811791    -1.34798434

 Orbital energies:

         1.1          2.1          3.1          4.1          5.1          6.1          7.1          8.1          9.1
    -20.653040   -15.711707    -1.528043    -0.996130    -0.747274    -0.665728    -0.431162     0.022823     0.065539

         1.2          2.2          3.2
     -0.595245     0.059849     0.091410

 HOMO      7.1    -0.431162 =     -11.7325eV
 LUMO      8.1     0.022823 =       0.6210eV
 LUMO-HOMO         0.453985 =      12.3536eV


 **********************************************************************************************************************************
 DATASETS  * FILE   NREC   LENGTH (MB)   RECORD NAMES
              1      19     6374.17       500      610      700      900      950      970     1000      129      960     1100   
                                          VAR    BASINP    GEOM    SYMINP    ZMAT    AOBASIS   BASIS     P2S    ABASIS      S 
                                         1400     1410     1200     1210     1080     1600     1650     1300     1700   
                                           T        V       H0       H01     AOSYM     SMH    MOLCAS    ERIS     OPER   

              2       4        4.02       700     1000      520     2100   
                                         GEOM     BASIS   MCVARS     RHF  

 PROGRAMS   *        TOTAL        HF       INT
 CPU TIMES  *       214.48     90.23    124.14
 REAL TIME  *       298.76 SEC
 DISK USED  *        21.32 GB      
 **********************************************************************************************************************************


 PROGRAM * CCSD (Closed-shell coupled cluster)     Authors: C. Hampel, H.-J. Werner, 1991, M. Deegan, P.J. Knowles, 1992


 Convergence thresholds:  THRVAR = 1.00D-08  THRDEN = 1.00D-12

 CCSD(T)     terms to be evaluated (factor= 1.000)


 Number of core orbitals:           2 (   2   0 )
 Number of closed-shell orbitals:   6 (   5   1 )
 Number of external orbitals:     326 ( 197 129 )

 Molecular orbitals read from record     2100.2  Type=RHF/CANONICAL (state 1.1)

 Number of N-1 electron functions:               6
 Number of N-2 electron functions:              21
 Number of singly external CSFs:              1114
 Number of doubly external CSFs:            975958
 Total number of CSFs:                      977073

 Length of J-op  integral file:               0.00 MB
 Length of K-op  integral file:               4.07 MB
 Length of 3-ext integral record:             0.00 MB

 Memory could be reduced to 151.33 Mwords without degradation in triples

 Integral transformation finished. Total CPU:  14.12 sec, npass=  1  Memory used:  41.21 MW

 Reference energy:                   -129.84966267

 MP2 singlet pair energy:              -0.31120913
 MP2 triplet pair energy:              -0.17204423
 MP2 correlation energy:               -0.48325336
 MP2 total energy:                   -130.33291602

 SCS-MP2 correlation energy:           -0.48050070   (PS=  1.200000  PT=  0.333333)
 SCS-MP2 total energy:               -130.33016336

 ITER.      SQ.NORM     CORR.ENERGY   TOTAL ENERGY   ENERGY CHANGE        DEN1      VAR(S)    VAR(P)  DIIS     TIME  TIME/IT
   1      1.12058058    -0.48020421  -130.32986687     0.00304915     0.01973826  0.32D-02  0.32D-02  1  1    26.13    12.93
   2      1.13121854    -0.48007933  -130.32974199     0.00012488    -0.01269032  0.11D-03  0.49D-03  2  2    38.23    13.07
   3      1.13737368    -0.48046014  -130.33012281    -0.00038082    -0.00300032  0.48D-04  0.57D-04  3  3    50.42    13.12
   4      1.14017360    -0.48045891  -130.33012158     0.00000123    -0.00096998  0.45D-05  0.10D-04  4  4    62.56    13.14
   5      1.14130844    -0.48048804  -130.33015070    -0.00002913    -0.00025160  0.11D-05  0.17D-05  5  5    74.76    13.16
   6      1.14166597    -0.48047632  -130.33013899     0.00001172    -0.00005062  0.11D-06  0.41D-06  6  6    86.83    13.17
   7      1.14174140    -0.48047605  -130.33013871     0.00000028     0.00000352  0.16D-07  0.94D-07  6  1    99.02    13.18
   8      1.14176653    -0.48047608  -130.33013875    -0.00000003    -0.00000306  0.35D-08  0.19D-07  6  2   111.19    13.18
   9      1.14177493    -0.48047553  -130.33013819     0.00000055    -0.00000018  0.23D-08  0.20D-08  6  3   123.14    13.19
  10      1.14177025    -0.48047628  -130.33013894    -0.00000075     0.00000161  0.36D-09  0.33D-09  6  5   135.16    13.19
  11      1.14177224    -0.48047626  -130.33013892     0.00000002    -0.00000037  0.10D-09  0.28D-10  6  4   147.33    13.19
  12      1.14177180    -0.48047633  -130.33013899    -0.00000007     0.00000005  0.18D-10  0.64D-11  6  6   159.55    13.19
  13      1.14177159    -0.48047633  -130.33013899    -0.00000000    -0.00000003  0.31D-11  0.93D-12  6  1   171.68    13.20
  14      1.14177133    -0.48047634  -130.33013901    -0.00000001     0.00000004  0.44D-12  0.17D-12  6  3   183.85    13.20
  15      1.14177125    -0.48047634  -130.33013901    -0.00000000     0.00000001  0.12D-12  0.22D-13  6  2   196.01    13.20
  16      1.14177124    -0.48047634  -130.33013901     0.00000000     0.00000000  0.32D-13  0.85D-14  6  4   208.11    13.20
  17      1.14177124    -0.48047634  -130.33013901    -0.00000000    -0.00000000  0.19D-14  0.11D-14  6  5   220.31    13.20
  18      1.14177124    -0.48047634  -130.33013901     0.00000000    -0.00000000  0.28D-15  0.29D-15  6  6   232.46    13.20
  19      1.14177125    -0.48047634  -130.33013901     0.00000000    -0.00000000  0.51D-16  0.41D-16  6  1   244.64    13.20
  20      1.14177125    -0.48047634  -130.33013901     0.00000000    -0.00000000  0.11D-16  0.60D-17  6  3   256.80    13.20
  21      1.14177125    -0.48047634  -130.33013901    -0.00000000     0.00000000  0.21D-17  0.11D-17  6  2   269.01    13.21
  22      1.14177125    -0.48047634  -130.33013901    -0.00000000     0.00000000  0.39D-18  0.17D-18  6  4   281.14    13.21
  23      1.14177125    -0.48047634  -130.33013901    -0.00000000     0.00000000  0.86D-19  0.44D-19  6  5   293.26    13.21
  24      1.14177125    -0.48047634  -130.33013901    -0.00000000     0.00000000  0.36D-19  0.20D-19  6  6   305.39    13.21
  25      1.14177125    -0.48047634  -130.33013901     0.00000000    -0.00000000  0.20D-19  0.12D-19  6  1   317.43    13.21

 Norm of t1 vector:      0.07634557      S-energy:    -0.00000000      T1 diagnostic:  0.01558397
                                                                       D1 diagnostic:  0.04239858

 Doubles amplitudes (print threshold =  0.500E-01):

         I         J         SYM. A    SYM. B    A         B      T(IJ, AB)

         6         6         2         2         1         1     -0.08037533
         6         6         2         2         1         2      0.05306164
         6         6         2         2         2         1      0.05306164


 Total CPU time for triples:    131.58 sec


 RESULTS
 =======

  Reference energy                   -129.849662665256
  CCSD singlet pair energy             -0.333299364665
  CCSD triplet pair energy             -0.147176978754
  CCSD correlation energy              -0.480476343421

  Triples (T) contribution             -0.022933159692
  Total correlation energy             -0.503409503113

  CCSD total energy                  -130.330139008677
  CCSD[T] energy                     -130.354153072806
  CCSD-T energy                      -130.352692870006
 !CCSD(T) total energy               -130.353072168368

 Timing summary (sec):

 STEP                 CPU(USER)    SYS     CPU(TOT)    WALL
 Transformation         14.22      1.55     15.77     15.78
 CCSD iterations       303.21     27.02    330.23    330.27
 Triples               131.58      1.68    133.26    133.28

 Program statistics:

 Available memory in ccsd:               994999756
 Min. memory needed in ccsd:               3348832
 Max. memory used in ccsd:                 4143652
 Max. memory used in cckext:               8340089 (25 integral passes)



 **********************************************************************************************************************************
 DATASETS  * FILE   NREC   LENGTH (MB)   RECORD NAMES
              1      20     6809.36       500      610      700      900      950      970     1000      129      960     1100   
                                          VAR    BASINP    GEOM    SYMINP    ZMAT    AOBASIS   BASIS     P2S    ABASIS      S 
                                         1400     1410     1200     1210     1080     1600     1650     1300     1700     1380   
                                           T        V       H0       H01     AOSYM     SMH    MOLCAS    ERIS     OPER     JKOP   

              2       4        4.02       700     1000      520     2100   
                                         GEOM     BASIS   MCVARS     RHF  

 PROGRAMS   *        TOTAL   CCSD(T)        HF       INT
 CPU TIMES  *       663.51    449.03     90.23    124.14
 REAL TIME  *       778.14 SEC
 DISK USED  *        21.32 GB      
 **********************************************************************************************************************************

 CCSD(T)/aug-cc-pV5Z energy=   -130.353072168368

        CCSD(T)         HF-SCF  
   -130.35307217   -129.84966267
 **********************************************************************************************************************************
 Molpro calculation terminated
 Variable memory released
