
 Primary working directories    : /tmp/r2666/234722.maple
 Secondary working directories  : /tmp/r2666/234722.maple
 Wavefunction directory         : /ddn/home4/r2666/wfu/
 Main file repository           : /tmp/r2666/234722.maple/

 SHA1      : d5ffa45e93fdbca01ffc919aa182cfdae0147319
 NAME      : 2015.1.35
 ARCHNAME  : linux/x86_64
 FC        : /opt/intel/composer_xe_2015.1.133/bin/intel64/ifort
 BLASLIB   : -Wl,-_start-group /opt/intel/mkl/lib/intel64/libmkl_intel_ilp64.a /opt/intel/mkl/lib/intel64/libmkl_intel_thread.a /opt/intel/mkl/lib/intel64/libmkl_core.a -Wl,-_end-group
 id        : olemiss

 Nodes     nprocs
 cn033        1

 Using customized tuning parameters: mindgm=1; mindgv=20; mindgc=4; mindgr=1; noblas=0; minvec=7
 default implementation of scratch files=df  

 ***,hno CCSD(T)/TZ-F12 QFF
 memory, 995, m;
 gthresh,energy=1.d-12,zero=1.d-22,oneint=1.d-22,twoint=1.d-22;
 gthresh,optgrad=1.d-8,optstep=1.d-8;
 nocompress;
 geomtyp=xyz
 bohr
 geometry={
 3
         94        94
 N        0.0000000000       -0.1734622383       -1.1549311349
 H        0.0000000000        1.6712435922       -1.9211468435
 O        0.0000000000        0.0439864361        1.1254883875
 }
 
 basis=av5z
   {hf,maxit=500;accu,20;}
 {ccsd(t),nocheck,maxit=250;orbital,IGNORE_ERROR;}

 Variables initialized (889), CPU time= 0.01 sec
 Commands  initialized (702), CPU time= 0.00 sec, 572 directives.
 Default parameters read. Elapsed time= 0.05 sec

 Checking input...
 Passed
1


                                         ***  PROGRAM SYSTEM MOLPRO  ***
                                       Copyright, TTI GmbH Stuttgart, 2015
                                    Version 2015.1 linked Jul  9 2018 13:16:40


 **********************************************************************************************************************************
 LABEL *   hno CCSD(T)/TZ-F12 QFF                                                        
  64 bit serial version                                                                  DATE: 08-Feb-20          TIME: 17:39:41  
 **********************************************************************************************************************************

 SHA1:             d5ffa45e93fdbca01ffc919aa182cfdae0147319
 **********************************************************************************************************************************

 THRESHOLDS:

 ZERO    =  1.00D-22  ONEINT  =  1.00D-22  TWOINT  =  1.00D-22  PREFAC  =  1.00D-14  LOCALI  =  1.00D-09  EORDER  =  1.00D-04
 ENERGY  =  1.00D-12  ETEST   =  0.00D+00  EDENS   =  0.00D+00  THRDEDEF=  1.00D-06  GRADIENT=  1.00D-02  STEP    =  1.00D-03
 ORBITAL =  1.00D-05  CIVEC   =  1.00D-05  COEFF   =  1.00D-04  PRINTCI =  5.00D-02  PUNCHCI =  9.90D+01  OPTGRAD =  3.00D-04
 OPTENERG=  1.00D-06  OPTSTEP =  3.00D-04  THRGRAD =  1.00D-10  COMPRESS=  1.00D-11  VARMIN  =  1.00D-07  VARMAX  =  1.00D-03
 THRDOUB =  0.00D+00  THRDIV  =  1.00D-05  THRRED  =  1.00D-07  THRPSP  =  1.00D+00  THRDC   =  1.00D-10  THRCS   =  1.00D-10
 THRNRM  =  1.00D-08  THREQ   =  0.00D+00  THRDE   =  1.00D+00  THRREF  =  1.00D-05  SPARFAC =  1.00D+00  THRDLP  =  1.00D-07
 THRDIA  =  1.00D-10  THRDLS  =  1.00D-07  THRGPS  =  0.00D+00  THRKEX  =  0.00D+00  THRDIS  =  2.00D-01  THRVAR  =  1.00D-10
 THRLOC  =  1.00D-06  THRGAP  =  1.00D-06  THRLOCT = -1.00D+00  THRGAPT = -1.00D+00  THRORB  =  1.00D-06  THRMLTP =  0.00D+00
 THRCPQCI=  1.00D-10  KEXTA   =  0.00D+00  THRCOARS=  0.00D+00  SYMTOL  =  1.00D-06  GRADTOL =  1.00D-06  THROVL  =  1.00D-08
 THRORTH =  1.00D-08  GRID    =  1.00D-06  GRIDMAX =  1.00D-03  DTMAX   =  0.00D+00  THROCCDE=  1.00D-01  THROCCDE=  1.00D-01



 THRESHOLDS:

 ZERO    =  1.00D-22  ONEINT  =  1.00D-22  TWOINT  =  1.00D-22  PREFAC  =  1.00D-14  LOCALI  =  1.00D-09  EORDER  =  1.00D-04
 ENERGY  =  1.00D-12  ETEST   =  0.00D+00  EDENS   =  0.00D+00  THRDEDEF=  1.00D-06  GRADIENT=  1.00D-02  STEP    =  1.00D-03
 ORBITAL =  1.00D-05  CIVEC   =  1.00D-05  COEFF   =  1.00D-04  PRINTCI =  5.00D-02  PUNCHCI =  9.90D+01  OPTGRAD =  1.00D-08
 OPTENERG=  1.00D-06  OPTSTEP =  1.00D-08  THRGRAD =  1.00D-10  COMPRESS=  1.00D-11  VARMIN  =  1.00D-07  VARMAX  =  1.00D-03
 THRDOUB =  0.00D+00  THRDIV  =  1.00D-05  THRRED  =  1.00D-07  THRPSP  =  1.00D+00  THRDC   =  1.00D-10  THRCS   =  1.00D-10
 THRNRM  =  1.00D-08  THREQ   =  0.00D+00  THRDE   =  1.00D+00  THRREF  =  1.00D-05  SPARFAC =  1.00D+00  THRDLP  =  1.00D-07
 THRDIA  =  1.00D-10  THRDLS  =  1.00D-07  THRGPS  =  0.00D+00  THRKEX  =  0.00D+00  THRDIS  =  2.00D-01  THRVAR  =  1.00D-10
 THRLOC  =  1.00D-06  THRGAP  =  1.00D-06  THRLOCT = -1.00D+00  THRGAPT = -1.00D+00  THRORB  =  1.00D-06  THRMLTP =  0.00D+00
 THRCPQCI=  1.00D-10  KEXTA   =  0.00D+00  THRCOARS=  0.00D+00  SYMTOL  =  1.00D-06  GRADTOL =  1.00D-06  THROVL  =  1.00D-08
 THRORTH =  1.00D-08  GRID    =  1.00D-06  GRIDMAX =  1.00D-03  DTMAX   =  0.00D+00  THROCCDE=  1.00D-01  THROCCDE=  1.00D-01



 Input parameters for SORTINT:

 COMPRESS =    0.000000
 C_FINAL  =    1.000000
 DEBUG    =   -1.000000
 C_SORT1  =    0.000000
 C_SEWARD =    0.000000
 THRESH   =    0.000000
 IO       =  molpro                                                          
 SPRI     =    0.000000
 SETTING GEOMTYP        =    XYZ
 ZUNIT=BOHR
 

 Variable memory set to  995000000 words,  buffer space   230000 words

 SETTING BASIS          =    AV5Z


 Recomputing integrals since basis changed


 Using spherical harmonics

 Library entry N      S aug-cc-pV5Z          selected for orbital group  1
 Library entry N      P aug-cc-pV5Z          selected for orbital group  1
 Library entry N      D aug-cc-pV5Z          selected for orbital group  1
 Library entry N      F aug-cc-pV5Z          selected for orbital group  1
 Library entry N      G aug-cc-pV5Z          selected for orbital group  1
 Library entry N      H aug-cc-pV5Z          selected for orbital group  1
 Library entry H      S aug-cc-pV5Z          selected for orbital group  2
 Library entry H      P aug-cc-pV5Z          selected for orbital group  2
 Library entry H      D aug-cc-pV5Z          selected for orbital group  2
 Library entry H      F aug-cc-pV5Z          selected for orbital group  2
 Library entry H      G aug-cc-pV5Z          selected for orbital group  2
 Library entry O      S aug-cc-pV5Z          selected for orbital group  3
 Library entry O      P aug-cc-pV5Z          selected for orbital group  3
 Library entry O      D aug-cc-pV5Z          selected for orbital group  3
 Library entry O      F aug-cc-pV5Z          selected for orbital group  3
 Library entry O      G aug-cc-pV5Z          selected for orbital group  3
 Library entry O      H aug-cc-pV5Z          selected for orbital group  3


 PROGRAM * SEWARD (Integral evaluation for generally contracted gaussian basis sets)     Author: Roland Lindh, 1990

 Geometry written to block  1 of record 700


 Point group  Cs  



 ATOMIC COORDINATES

 NR  ATOM    CHARGE       X              Y              Z

   1  N       7.00    0.000000000   -0.173462238   -1.154931135
   2  H       1.00    0.000000000    1.671243592   -1.921146844
   3  O       8.00    0.000000000    0.043986436    1.125488387

 Bond lengths in Bohr (Angstrom)

 1-2  1.997504972  1-3  2.290763437
     ( 1.057034110)     ( 1.212219806)

 Bond angles

  2-1-3  107.10905749

 NUCLEAR CHARGE:                   16
 NUMBER OF PRIMITIVE AOS:         506
 NUMBER OF SYMMETRY AOS:          371
 NUMBER OF CONTRACTIONS:          334   ( 204A'  + 130A"  )
 NUMBER OF CORE ORBITALS:           2   (   2A'  +   0A"  )
 NUMBER OF VALENCE ORBITALS:        9   (   7A'  +   2A"  )


 NUCLEAR REPULSION ENERGY   30.26654155


 Eigenvalues of metric

         1 0.115E-04 0.176E-04 0.648E-04 0.102E-03 0.106E-03 0.139E-03 0.203E-03 0.224E-03
         2 0.129E-03 0.372E-03 0.114E-02 0.161E-02 0.198E-02 0.258E-02 0.333E-02 0.397E-02


 Contracted 2-electron integrals neglected if value below      1.0D-22

      756977633. INTEGRALS WRITTEN OUT IN  184855 BLOCKS ON RECORD 1290 OF FILE 1


 NUMBER OF SORTED TWO-ELECTRON INTEGRALS:  789027325.     BUFFER LENGTH:  32768
 NUMBER OF SEGMENTS:  25  SEGMENT LENGTH:   31997130      RECORD LENGTH: 524288

 Memory used in sort:      32.55 MW

 SORT1 READ   756977633. AND WROTE   760993522. INTEGRALS IN   2189 RECORDS. CPU TIME:    25.48 SEC, REAL TIME:   129.03 SEC
 SORT2 READ   760993522. AND WROTE   789027325. INTEGRALS IN     25 RECORDS. CPU TIME:    12.60 SEC, REAL TIME:    98.88 SEC

 FILE SIZES:   FILE 1: 12137.5 MBYTE,  FILE 4:  9181.4 MBYTE,   TOTAL:  21318.9 MBYTE

 OPERATOR DM      FOR CENTER  0  COORDINATES:    0.000000    0.000000    0.000000


 **********************************************************************************************************************************
 DATASETS  * FILE   NREC   LENGTH (MB)   RECORD NAMES
              1      19     6374.22       500      610      700      900      950      970     1000      129      960     1100   
                                          VAR    BASINP    GEOM    SYMINP    ZMAT    AOBASIS   BASIS     P2S    ABASIS      S 
                                         1400     1410     1200     1210     1080     1600     1650     1300     1700   
                                           T        V       H0       H01     AOSYM     SMH    MOLCAS    ERIS     OPER   

 PROGRAMS   *        TOTAL       INT
 CPU TIMES  *       143.61    143.52
 REAL TIME  *       341.03 SEC
 DISK USED  *        21.32 GB      
 **********************************************************************************************************************************


 PROGRAM * RHF-SCF (CLOSED SHELL)       Authors: W. Meyer, H.-J. Werner


 NUMBER OF ELECTRONS:       8+    8-
 CONVERGENCE THRESHOLDS:    1.00E-10 (Density)    1.00E-13 (Energy)
 MAX. NUMBER OF ITERATIONS:      500
 INTERPOLATION TYPE:            DIIS
 INTERPOLATION STEPS:              2 (START)      1 (STEP)
 LEVEL SHIFTS:                  0.00 (CLOSED)  0.00 (OPEN) 



 Orbital guess generated from atomic densities. Full valence occupancy:    9   2

 Molecular orbital dump at record        2100.2

 Initial occupancy:   7   1

 ITERATION    DDIFF          GRAD             ENERGY        2-EL.EN.            DIPOLE MOMENTS         DIIS   ORB.
    1      0.000D+00      0.000D+00      -129.79668292    153.797091    0.00000    0.58451   -1.04122    0    start
    2      0.000D+00      0.647D-02      -129.82377298    155.009473    0.00000    0.61369   -0.19884    1    diag
    3      0.406D-02      0.500D-02      -129.84784359    155.146322    0.00000    0.55268   -0.59602    2    diag
    4      0.211D-02      0.770D-03      -129.84865766    154.858024    0.00000    0.56046   -0.53393    3    diag
    5      0.379D-03      0.252D-03      -129.84878692    154.952262    0.00000    0.56567   -0.53627    4    diag
    6      0.158D-03      0.733D-04      -129.84880776    154.935775    0.00000    0.56590   -0.53194    5    diag
    7      0.611D-04      0.366D-04      -129.84881390    154.938555    0.00000    0.56712   -0.52923    6    diag
    8      0.420D-04      0.131D-04      -129.84881463    154.937817    0.00000    0.56716   -0.52816    7    diag
    9      0.166D-04      0.253D-05      -129.84881467    154.937701    0.00000    0.56713   -0.52793    8    diag
   10      0.337D-05      0.562D-06      -129.84881467    154.937683    0.00000    0.56709   -0.52790    9    orth
   11      0.635D-06      0.113D-06      -129.84881467    154.937679    0.00000    0.56709   -0.52790    9    diag
   12      0.117D-06      0.232D-07      -129.84881467    154.937679    0.00000    0.56708   -0.52790    9    diag
   13      0.259D-07      0.617D-08      -129.84881467    154.937679    0.00000    0.56708   -0.52790    9    diag
   14      0.710D-08      0.119D-08      -129.84881467    154.937679    0.00000    0.56708   -0.52790    9    diag
   15      0.128D-08      0.337D-09      -129.84881467    154.937679    0.00000    0.56708   -0.52790    9    diag
   16      0.383D-09      0.100D-09      -129.84881467    154.937679    0.00000    0.56708   -0.52790    9    diag
   17      0.712D-10      0.263D-10      -129.84881467    154.937679    0.00000    0.56708   -0.52790    9    diag
   18      0.265D-10      0.898D-11      -129.84881467    154.937679    0.00000    0.56708   -0.52790    9    diag
   19      0.219D-10      0.220D-11      -129.84881467    154.937679    0.00000    0.56708   -0.52790    9    fixocc
   20      0.165D-10      0.635D-12      -129.84881467    154.937679    0.00000    0.56708   -0.52790    9    orth
   21      0.120D-10      0.324D-12      -129.84881467    154.937679    0.00000    0.56708   -0.52790    9    diag
   22      0.490D-11      0.312D-12      -129.84881467    154.937679    0.00000    0.56708   -0.52790    9    diag
   23      0.388D-11      0.282D-12      -129.84881467    154.937679    0.00000    0.56708   -0.52790    9    diag
   24      0.401D-11      0.232D-12      -129.84881467    154.937679    0.00000    0.56708   -0.52790    0    orth

 Final occupancy:   7   1

 !RHF STATE 1.1 Energy               -129.848814666922
 Nuclear energy                        30.26654155
 One-electron energy                 -237.58419553
 Two-electron energy                   77.46883931
 Virial quotient                       -1.00185475
 !RHF STATE 1.1 Dipole moment           0.00000000     0.56708293    -0.52789748
 Dipole moment /Debye                   0.00000000     1.44128662    -1.34169367

 Orbital energies:

         1.1          2.1          3.1          4.1          5.1          6.1          7.1          8.1          9.1
    -20.653159   -15.713762    -1.526318    -0.993454    -0.745387    -0.664676    -0.432262     0.022878     0.065557

         1.2          2.2          3.2
     -0.594241     0.059491     0.091346

 HOMO      7.1    -0.432262 =     -11.7624eV
 LUMO      8.1     0.022878 =       0.6225eV
 LUMO-HOMO         0.455140 =      12.3850eV


 **********************************************************************************************************************************
 DATASETS  * FILE   NREC   LENGTH (MB)   RECORD NAMES
              1      19     6374.22       500      610      700      900      950      970     1000      129      960     1100   
                                          VAR    BASINP    GEOM    SYMINP    ZMAT    AOBASIS   BASIS     P2S    ABASIS      S 
                                         1400     1410     1200     1210     1080     1600     1650     1300     1700   
                                           T        V       H0       H01     AOSYM     SMH    MOLCAS    ERIS     OPER   

              2       4        4.02       700     1000      520     2100   
                                         GEOM     BASIS   MCVARS     RHF  

 PROGRAMS   *        TOTAL        HF       INT
 CPU TIMES  *       239.98     96.37    143.52
 REAL TIME  *       465.10 SEC
 DISK USED  *        21.32 GB      
 **********************************************************************************************************************************


 PROGRAM * CCSD (Closed-shell coupled cluster)     Authors: C. Hampel, H.-J. Werner, 1991, M. Deegan, P.J. Knowles, 1992


 Convergence thresholds:  THRVAR = 1.00D-08  THRDEN = 1.00D-12

 CCSD(T)     terms to be evaluated (factor= 1.000)


 Number of core orbitals:           2 (   2   0 )
 Number of closed-shell orbitals:   6 (   5   1 )
 Number of external orbitals:     326 ( 197 129 )

 Molecular orbitals read from record     2100.2  Type=RHF/CANONICAL (state 1.1)

 Number of N-1 electron functions:               6
 Number of N-2 electron functions:              21
 Number of singly external CSFs:              1114
 Number of doubly external CSFs:            975958
 Total number of CSFs:                      977073

 Length of J-op  integral file:               0.00 MB
 Length of K-op  integral file:               4.07 MB
 Length of 3-ext integral record:             0.00 MB

 Memory could be reduced to 151.33 Mwords without degradation in triples

 Integral transformation finished. Total CPU:  14.01 sec, npass=  1  Memory used:  41.21 MW

 Reference energy:                   -129.84881467

 MP2 singlet pair energy:              -0.31171450
 MP2 triplet pair energy:              -0.17237264
 MP2 correlation energy:               -0.48408714
 MP2 total energy:                   -130.33290180

 SCS-MP2 correlation energy:           -0.48131149   (PS=  1.200000  PT=  0.333333)
 SCS-MP2 total energy:               -130.33012615

 ITER.      SQ.NORM     CORR.ENERGY   TOTAL ENERGY   ENERGY CHANGE        DEN1      VAR(S)    VAR(P)  DIIS     TIME  TIME/IT
   1      1.12117731    -0.48089779  -130.32971246     0.00318934     0.02006560  0.32D-02  0.33D-02  1  1    24.73    11.70
   2      1.13192827    -0.48074604  -130.32956070     0.00015176    -0.01280645  0.11D-03  0.49D-03  2  2    35.72    11.95
   3      1.13816834    -0.48113436  -130.32994902    -0.00038832    -0.00303443  0.49D-04  0.57D-04  3  3    46.61    12.02
   4      1.14100386    -0.48113254  -130.32994721     0.00000181    -0.00098235  0.47D-05  0.10D-04  4  4    57.58    12.04
   5      1.14215586    -0.48116254  -130.32997721    -0.00003000    -0.00025596  0.12D-05  0.16D-05  5  5    68.49    12.06
   6      1.14251542    -0.48115054  -130.32996520     0.00001200    -0.00005121  0.12D-06  0.39D-06  6  6    79.41    12.07
   7      1.14259015    -0.48115013  -130.32996480     0.00000040     0.00000361  0.17D-07  0.90D-07  6  1    90.20    12.08
   8      1.14261532    -0.48115007  -130.32996474     0.00000006    -0.00000311  0.33D-08  0.19D-07  6  2   101.15    12.09
   9      1.14262373    -0.48114949  -130.32996416     0.00000058    -0.00000014  0.21D-08  0.21D-08  6  3   112.04    12.09
  10      1.14261912    -0.48115023  -130.32996490    -0.00000074     0.00000160  0.34D-09  0.34D-09  6  5   123.01    12.10
  11      1.14262114    -0.48115021  -130.32996488     0.00000002    -0.00000038  0.10D-09  0.28D-10  6  4   133.88    12.10
  12      1.14262070    -0.48115028  -130.32996495    -0.00000007     0.00000005  0.18D-10  0.64D-11  6  6   144.84    12.11
  13      1.14262050    -0.48115028  -130.32996495    -0.00000000    -0.00000004  0.30D-11  0.91D-12  6  1   155.75    12.11
  14      1.14262023    -0.48115030  -130.32996496    -0.00000001     0.00000004  0.42D-12  0.17D-12  6  3   166.65    12.11
  15      1.14262016    -0.48115030  -130.32996497    -0.00000000     0.00000001  0.12D-12  0.23D-13  6  2   177.53    12.11
  16      1.14262014    -0.48115030  -130.32996497     0.00000000     0.00000000  0.32D-13  0.88D-14  6  4   188.47    12.11
  17      1.14262014    -0.48115030  -130.32996497    -0.00000000    -0.00000000  0.19D-14  0.11D-14  6  5   199.29    12.11
  18      1.14262015    -0.48115030  -130.32996497     0.00000000    -0.00000000  0.27D-15  0.29D-15  6  6   210.17    12.12
  19      1.14262015    -0.48115030  -130.32996497     0.00000000    -0.00000000  0.50D-16  0.38D-16  6  1   221.05    12.12
  20      1.14262015    -0.48115030  -130.32996497     0.00000000    -0.00000000  0.11D-16  0.58D-17  6  3   232.06    12.12
  21      1.14262015    -0.48115030  -130.32996497    -0.00000000     0.00000000  0.21D-17  0.11D-17  6  2   242.98    12.12
  22      1.14262015    -0.48115030  -130.32996497    -0.00000000     0.00000000  0.40D-18  0.17D-18  6  4   253.92    12.12
  23      1.14262015    -0.48115030  -130.32996497    -0.00000000     0.00000000  0.88D-19  0.50D-19  6  5   264.84    12.12
  24      1.14262015    -0.48115030  -130.32996497    -0.00000000     0.00000000  0.30D-19  0.19D-19  6  6   275.70    12.12
  25      1.14262015    -0.48115030  -130.32996497    -0.00000000     0.00000000  0.15D-19  0.10D-19  6  1   286.50    12.12

 Norm of t1 vector:      0.07686690      S-energy:    -0.00000000      T1 diagnostic:  0.01569039
                                                                       D1 diagnostic:  0.04266898

 Doubles amplitudes (print threshold =  0.500E-01):

         I         J         SYM. A    SYM. B    A         B      T(IJ, AB)

         6         6         2         2         1         1     -0.08243431
         6         6         2         2         1         2      0.05292628
         6         6         2         2         2         1      0.05292628


 Total CPU time for triples:    112.71 sec


 RESULTS
 =======

  Reference energy                   -129.848814666921
  CCSD singlet pair energy             -0.333872626819
  CCSD triplet pair energy             -0.147277672096
  CCSD correlation energy              -0.481150298917

  Triples (T) contribution             -0.023076693793
  Total correlation energy             -0.504226992710

  CCSD total energy                  -130.329964965839
  CCSD[T] energy                     -130.354138401364
  CCSD-T energy                      -130.352657350791
 !CCSD(T) total energy               -130.353041659632

 Timing summary (sec):

 STEP                 CPU(USER)    SYS     CPU(TOT)    WALL
 Transformation         14.08      1.62     15.70     15.70
 CCSD iterations       272.42     30.68    303.10    303.11
 Triples               112.71      1.99    114.70    114.71

 Program statistics:

 Available memory in ccsd:               994999756
 Min. memory needed in ccsd:               3348832
 Max. memory used in ccsd:                 4143652
 Max. memory used in cckext:               8340089 (25 integral passes)



 **********************************************************************************************************************************
 DATASETS  * FILE   NREC   LENGTH (MB)   RECORD NAMES
              1      20     6809.41       500      610      700      900      950      970     1000      129      960     1100   
                                          VAR    BASINP    GEOM    SYMINP    ZMAT    AOBASIS   BASIS     P2S    ABASIS      S 
                                         1400     1410     1200     1210     1080     1600     1650     1300     1700     1380   
                                           T        V       H0       H01     AOSYM     SMH    MOLCAS    ERIS     OPER     JKOP   

              2       4        4.02       700     1000      520     2100   
                                         GEOM     BASIS   MCVARS     RHF  

 PROGRAMS   *        TOTAL   CCSD(T)        HF       INT
 CPU TIMES  *       639.21    399.23     96.37    143.52
 REAL TIME  *       898.70 SEC
 DISK USED  *        21.32 GB      
 **********************************************************************************************************************************

 CCSD(T)/aug-cc-pV5Z energy=   -130.353041659632

        CCSD(T)         HF-SCF  
   -130.35304166   -129.84881467
 **********************************************************************************************************************************
 Molpro calculation terminated
 Variable memory released
