
 Primary working directories    : /tmp/r2666/234751.maple
 Secondary working directories  : /tmp/r2666/234751.maple
 Wavefunction directory         : /ddn/home4/r2666/wfu/
 Main file repository           : /tmp/r2666/234751.maple/

 SHA1      : d5ffa45e93fdbca01ffc919aa182cfdae0147319
 NAME      : 2015.1.35
 ARCHNAME  : linux/x86_64
 FC        : /opt/intel/composer_xe_2015.1.133/bin/intel64/ifort
 BLASLIB   : -Wl,-_start-group /opt/intel/mkl/lib/intel64/libmkl_intel_ilp64.a /opt/intel/mkl/lib/intel64/libmkl_intel_thread.a /opt/intel/mkl/lib/intel64/libmkl_core.a -Wl,-_end-group
 id        : olemiss

 Nodes     nprocs
 cn095        1

 Using customized tuning parameters: mindgm=1; mindgv=20; mindgc=4; mindgr=1; noblas=0; minvec=7
 default implementation of scratch files=df  

 ***,hno CCSD(T)/TZ-F12 QFF
 memory, 995, m;
 gthresh,energy=1.d-12,zero=1.d-22,oneint=1.d-22,twoint=1.d-22;
 gthresh,optgrad=1.d-8,optstep=1.d-8;
 nocompress;
 geomtyp=xyz
 bohr
 geometry={
 3
        123       123
 N        0.0000000000       -0.1693794287       -1.1488679041
 H        0.0000000000        1.6766636941       -1.9362607852
 O        0.0000000000        0.0344835246        1.1345390983
 }
 
 basis=av5z
   {hf,maxit=500;accu,20;}
 {ccsd(t),nocheck,maxit=250;orbital,IGNORE_ERROR;}

 Variables initialized (889), CPU time= 0.01 sec
 Commands  initialized (702), CPU time= 0.01 sec, 572 directives.
 Default parameters read. Elapsed time= 0.04 sec

 Checking input...
 Passed
1


                                         ***  PROGRAM SYSTEM MOLPRO  ***
                                       Copyright, TTI GmbH Stuttgart, 2015
                                    Version 2015.1 linked Jul  9 2018 13:16:40


 **********************************************************************************************************************************
 LABEL *   hno CCSD(T)/TZ-F12 QFF                                                        
  64 bit serial version                                                                  DATE: 08-Feb-20          TIME: 17:43:31  
 **********************************************************************************************************************************

 SHA1:             d5ffa45e93fdbca01ffc919aa182cfdae0147319
 **********************************************************************************************************************************

 THRESHOLDS:

 ZERO    =  1.00D-22  ONEINT  =  1.00D-22  TWOINT  =  1.00D-22  PREFAC  =  1.00D-14  LOCALI  =  1.00D-09  EORDER  =  1.00D-04
 ENERGY  =  1.00D-12  ETEST   =  0.00D+00  EDENS   =  0.00D+00  THRDEDEF=  1.00D-06  GRADIENT=  1.00D-02  STEP    =  1.00D-03
 ORBITAL =  1.00D-05  CIVEC   =  1.00D-05  COEFF   =  1.00D-04  PRINTCI =  5.00D-02  PUNCHCI =  9.90D+01  OPTGRAD =  3.00D-04
 OPTENERG=  1.00D-06  OPTSTEP =  3.00D-04  THRGRAD =  1.00D-10  COMPRESS=  1.00D-11  VARMIN  =  1.00D-07  VARMAX  =  1.00D-03
 THRDOUB =  0.00D+00  THRDIV  =  1.00D-05  THRRED  =  1.00D-07  THRPSP  =  1.00D+00  THRDC   =  1.00D-10  THRCS   =  1.00D-10
 THRNRM  =  1.00D-08  THREQ   =  0.00D+00  THRDE   =  1.00D+00  THRREF  =  1.00D-05  SPARFAC =  1.00D+00  THRDLP  =  1.00D-07
 THRDIA  =  1.00D-10  THRDLS  =  1.00D-07  THRGPS  =  0.00D+00  THRKEX  =  0.00D+00  THRDIS  =  2.00D-01  THRVAR  =  1.00D-10
 THRLOC  =  1.00D-06  THRGAP  =  1.00D-06  THRLOCT = -1.00D+00  THRGAPT = -1.00D+00  THRORB  =  1.00D-06  THRMLTP =  0.00D+00
 THRCPQCI=  1.00D-10  KEXTA   =  0.00D+00  THRCOARS=  0.00D+00  SYMTOL  =  1.00D-06  GRADTOL =  1.00D-06  THROVL  =  1.00D-08
 THRORTH =  1.00D-08  GRID    =  1.00D-06  GRIDMAX =  1.00D-03  DTMAX   =  0.00D+00  THROCCDE=  1.00D-01  THROCCDE=  1.00D-01



 THRESHOLDS:

 ZERO    =  1.00D-22  ONEINT  =  1.00D-22  TWOINT  =  1.00D-22  PREFAC  =  1.00D-14  LOCALI  =  1.00D-09  EORDER  =  1.00D-04
 ENERGY  =  1.00D-12  ETEST   =  0.00D+00  EDENS   =  0.00D+00  THRDEDEF=  1.00D-06  GRADIENT=  1.00D-02  STEP    =  1.00D-03
 ORBITAL =  1.00D-05  CIVEC   =  1.00D-05  COEFF   =  1.00D-04  PRINTCI =  5.00D-02  PUNCHCI =  9.90D+01  OPTGRAD =  1.00D-08
 OPTENERG=  1.00D-06  OPTSTEP =  1.00D-08  THRGRAD =  1.00D-10  COMPRESS=  1.00D-11  VARMIN  =  1.00D-07  VARMAX  =  1.00D-03
 THRDOUB =  0.00D+00  THRDIV  =  1.00D-05  THRRED  =  1.00D-07  THRPSP  =  1.00D+00  THRDC   =  1.00D-10  THRCS   =  1.00D-10
 THRNRM  =  1.00D-08  THREQ   =  0.00D+00  THRDE   =  1.00D+00  THRREF  =  1.00D-05  SPARFAC =  1.00D+00  THRDLP  =  1.00D-07
 THRDIA  =  1.00D-10  THRDLS  =  1.00D-07  THRGPS  =  0.00D+00  THRKEX  =  0.00D+00  THRDIS  =  2.00D-01  THRVAR  =  1.00D-10
 THRLOC  =  1.00D-06  THRGAP  =  1.00D-06  THRLOCT = -1.00D+00  THRGAPT = -1.00D+00  THRORB  =  1.00D-06  THRMLTP =  0.00D+00
 THRCPQCI=  1.00D-10  KEXTA   =  0.00D+00  THRCOARS=  0.00D+00  SYMTOL  =  1.00D-06  GRADTOL =  1.00D-06  THROVL  =  1.00D-08
 THRORTH =  1.00D-08  GRID    =  1.00D-06  GRIDMAX =  1.00D-03  DTMAX   =  0.00D+00  THROCCDE=  1.00D-01  THROCCDE=  1.00D-01



 Input parameters for SORTINT:

 COMPRESS =    0.000000
 C_FINAL  =    1.000000
 DEBUG    =   -1.000000
 C_SORT1  =    0.000000
 C_SEWARD =    0.000000
 THRESH   =    0.000000
 IO       =  molpro                                                          
 SPRI     =    0.000000
 SETTING GEOMTYP        =    XYZ
 ZUNIT=BOHR
 

 Variable memory set to  995000000 words,  buffer space   230000 words

 SETTING BASIS          =    AV5Z


 Recomputing integrals since basis changed


 Using spherical harmonics

 Library entry N      S aug-cc-pV5Z          selected for orbital group  1
 Library entry N      P aug-cc-pV5Z          selected for orbital group  1
 Library entry N      D aug-cc-pV5Z          selected for orbital group  1
 Library entry N      F aug-cc-pV5Z          selected for orbital group  1
 Library entry N      G aug-cc-pV5Z          selected for orbital group  1
 Library entry N      H aug-cc-pV5Z          selected for orbital group  1
 Library entry H      S aug-cc-pV5Z          selected for orbital group  2
 Library entry H      P aug-cc-pV5Z          selected for orbital group  2
 Library entry H      D aug-cc-pV5Z          selected for orbital group  2
 Library entry H      F aug-cc-pV5Z          selected for orbital group  2
 Library entry H      G aug-cc-pV5Z          selected for orbital group  2
 Library entry O      S aug-cc-pV5Z          selected for orbital group  3
 Library entry O      P aug-cc-pV5Z          selected for orbital group  3
 Library entry O      D aug-cc-pV5Z          selected for orbital group  3
 Library entry O      F aug-cc-pV5Z          selected for orbital group  3
 Library entry O      G aug-cc-pV5Z          selected for orbital group  3
 Library entry O      H aug-cc-pV5Z          selected for orbital group  3


 PROGRAM * SEWARD (Integral evaluation for generally contracted gaussian basis sets)     Author: Roland Lindh, 1990

 Geometry written to block  1 of record 700


 Point group  Cs  



 ATOMIC COORDINATES

 NR  ATOM    CHARGE       X              Y              Z

   1  N       7.00    0.000000000   -0.169379429   -1.148867904
   2  H       1.00    0.000000000    1.676663694   -1.936260785
   3  O       8.00    0.000000000    0.034483525    1.134539098

 Bond lengths in Bohr (Angstrom)

 1-2  2.006953602  1-3  2.292489399
     ( 1.062034110)     ( 1.213133146)

 Bond angles

  2-1-3  107.99785509

 NUCLEAR CHARGE:                   16
 NUMBER OF PRIMITIVE AOS:         506
 NUMBER OF SYMMETRY AOS:          371
 NUMBER OF CONTRACTIONS:          334   ( 204A'  + 130A"  )
 NUMBER OF CORE ORBITALS:           2   (   2A'  +   0A"  )
 NUMBER OF VALENCE ORBITALS:        9   (   7A'  +   2A"  )


 NUCLEAR REPULSION ENERGY   30.21278484


 Eigenvalues of metric

         1 0.116E-04 0.177E-04 0.652E-04 0.102E-03 0.107E-03 0.140E-03 0.203E-03 0.225E-03
         2 0.129E-03 0.377E-03 0.115E-02 0.162E-02 0.203E-02 0.259E-02 0.338E-02 0.403E-02


 Contracted 2-electron integrals neglected if value below      1.0D-22

      756977491. INTEGRALS WRITTEN OUT IN  184855 BLOCKS ON RECORD 1290 OF FILE 1


 NUMBER OF SORTED TWO-ELECTRON INTEGRALS:  789027325.     BUFFER LENGTH:  32768
 NUMBER OF SEGMENTS:  25  SEGMENT LENGTH:   31997130      RECORD LENGTH: 524288

 Memory used in sort:      32.55 MW

 SORT1 READ   756977491. AND WROTE   760993371. INTEGRALS IN   2189 RECORDS. CPU TIME:    28.46 SEC, REAL TIME:   104.75 SEC
 SORT2 READ   760993371. AND WROTE   789027325. INTEGRALS IN     25 RECORDS. CPU TIME:     8.19 SEC, REAL TIME:    12.36 SEC

 FILE SIZES:   FILE 1: 12137.5 MBYTE,  FILE 4:  9181.4 MBYTE,   TOTAL:  21318.9 MBYTE

 OPERATOR DM      FOR CENTER  0  COORDINATES:    0.000000    0.000000    0.000000


 **********************************************************************************************************************************
 DATASETS  * FILE   NREC   LENGTH (MB)   RECORD NAMES
              1      19     6374.22       500      610      700      900      950      970     1000      129      960     1100   
                                          VAR    BASINP    GEOM    SYMINP    ZMAT    AOBASIS   BASIS     P2S    ABASIS      S 
                                         1400     1410     1200     1210     1080     1600     1650     1300     1700   
                                           T        V       H0       H01     AOSYM     SMH    MOLCAS    ERIS     OPER   

 PROGRAMS   *        TOTAL       INT
 CPU TIMES  *       179.49    179.39
 REAL TIME  *       415.36 SEC
 DISK USED  *        21.32 GB      
 **********************************************************************************************************************************


 PROGRAM * RHF-SCF (CLOSED SHELL)       Authors: W. Meyer, H.-J. Werner


 NUMBER OF ELECTRONS:       8+    8-
 CONVERGENCE THRESHOLDS:    1.00E-10 (Density)    1.00E-13 (Energy)
 MAX. NUMBER OF ITERATIONS:      500
 INTERPOLATION TYPE:            DIIS
 INTERPOLATION STEPS:              2 (START)      1 (STEP)
 LEVEL SHIFTS:                  0.00 (CLOSED)  0.00 (OPEN) 



 Orbital guess generated from atomic densities. Full valence occupancy:    9   2

 Molecular orbital dump at record        2100.2

 Initial occupancy:   7   1

 ITERATION    DDIFF          GRAD             ENERGY        2-EL.EN.            DIPOLE MOMENTS         DIIS   ORB.
    1      0.000D+00      0.000D+00      -129.79607286    153.692535    0.00000    0.58951   -1.04682    0    start
    2      0.000D+00      0.648D-02      -129.82309961    154.913309    0.00000    0.61317   -0.19995    1    diag
    3      0.408D-02      0.503D-02      -129.84748717    155.049857    0.00000    0.55485   -0.60038    2    diag
    4      0.212D-02      0.773D-03      -129.84830664    154.759668    0.00000    0.56212   -0.53789    3    diag
    5      0.381D-03      0.252D-03      -129.84843696    154.854693    0.00000    0.56749   -0.54033    4    diag
    6      0.159D-03      0.735D-04      -129.84845800    154.838141    0.00000    0.56772   -0.53597    5    diag
    7      0.614D-04      0.367D-04      -129.84846419    154.840935    0.00000    0.56897   -0.53326    6    diag
    8      0.422D-04      0.132D-04      -129.84846493    154.840196    0.00000    0.56901   -0.53219    7    diag
    9      0.167D-04      0.257D-05      -129.84846496    154.840076    0.00000    0.56898   -0.53195    8    diag
   10      0.343D-05      0.574D-06      -129.84846497    154.840057    0.00000    0.56894   -0.53192    9    orth
   11      0.652D-06      0.115D-06      -129.84846497    154.840052    0.00000    0.56893   -0.53192    9    diag
   12      0.121D-06      0.236D-07      -129.84846497    154.840052    0.00000    0.56893   -0.53192    9    diag
   13      0.262D-07      0.628D-08      -129.84846497    154.840052    0.00000    0.56893   -0.53192    9    diag
   14      0.725D-08      0.122D-08      -129.84846497    154.840052    0.00000    0.56893   -0.53192    9    diag
   15      0.131D-08      0.345D-09      -129.84846497    154.840052    0.00000    0.56893   -0.53192    9    diag
   16      0.390D-09      0.102D-09      -129.84846497    154.840052    0.00000    0.56893   -0.53192    9    diag
   17      0.775D-10      0.266D-10      -129.84846497    154.840052    0.00000    0.56893   -0.53192    9    diag
   18      0.226D-10      0.908D-11      -129.84846497    154.840052    0.00000    0.56893   -0.53192    9    diag
   19      0.278D-10      0.222D-11      -129.84846497    154.840052    0.00000    0.56893   -0.53192    9    fixocc
   20      0.126D-10      0.532D-12      -129.84846497    154.840052    0.00000    0.56893   -0.53192    9    orth
   21      0.674D-11      0.451D-12      -129.84846497    154.840052    0.00000    0.56893   -0.53192    9    diag
   22      0.721D-11      0.316D-12      -129.84846497    154.840052    0.00000    0.56893   -0.53192    0    orth

 Final occupancy:   7   1

 !RHF STATE 1.1 Energy               -129.848464965925
 Nuclear energy                        30.21278484
 One-electron energy                 -237.48127587
 Two-electron energy                   77.42002606
 Virial quotient                       -1.00196586
 !RHF STATE 1.1 Dipole moment           0.00000000     0.56893231    -0.53191778
 Dipole moment /Debye                   0.00000000     1.44598698    -1.35191160

 Orbital energies:

         1.1          2.1          3.1          4.1          5.1          6.1          7.1          8.1          9.1
    -20.653573   -15.714437    -1.525069    -0.992986    -0.744507    -0.664592    -0.431675     0.022803     0.065548

         1.2          2.2          3.2
     -0.593772     0.059179     0.091274

 HOMO      7.1    -0.431675 =     -11.7465eV
 LUMO      8.1     0.022803 =       0.6205eV
 LUMO-HOMO         0.454478 =      12.3670eV


 **********************************************************************************************************************************
 DATASETS  * FILE   NREC   LENGTH (MB)   RECORD NAMES
              1      19     6374.22       500      610      700      900      950      970     1000      129      960     1100   
                                          VAR    BASINP    GEOM    SYMINP    ZMAT    AOBASIS   BASIS     P2S    ABASIS      S 
                                         1400     1410     1200     1210     1080     1600     1650     1300     1700   
                                           T        V       H0       H01     AOSYM     SMH    MOLCAS    ERIS     OPER   

              2       4        4.02       700     1000      520     2100   
                                         GEOM     BASIS   MCVARS     RHF  

 PROGRAMS   *        TOTAL        HF       INT
 CPU TIMES  *       253.75     74.26    179.39
 REAL TIME  *       515.29 SEC
 DISK USED  *        21.32 GB      
 **********************************************************************************************************************************


 PROGRAM * CCSD (Closed-shell coupled cluster)     Authors: C. Hampel, H.-J. Werner, 1991, M. Deegan, P.J. Knowles, 1992


 Convergence thresholds:  THRVAR = 1.00D-08  THRDEN = 1.00D-12

 CCSD(T)     terms to be evaluated (factor= 1.000)


 Number of core orbitals:           2 (   2   0 )
 Number of closed-shell orbitals:   6 (   5   1 )
 Number of external orbitals:     326 ( 197 129 )

 Molecular orbitals read from record     2100.2  Type=RHF/CANONICAL (state 1.1)

 Number of N-1 electron functions:               6
 Number of N-2 electron functions:              21
 Number of singly external CSFs:              1114
 Number of doubly external CSFs:            975958
 Total number of CSFs:                      977073

 Length of J-op  integral file:               0.00 MB
 Length of K-op  integral file:               4.07 MB
 Length of 3-ext integral record:             0.00 MB

 Memory could be reduced to 151.33 Mwords without degradation in triples

 Integral transformation finished. Total CPU:  11.10 sec, npass=  1  Memory used:  41.21 MW

 Reference energy:                   -129.84846497

 MP2 singlet pair energy:              -0.31191858
 MP2 triplet pair energy:              -0.17250388
 MP2 correlation energy:               -0.48442246
 MP2 total energy:                   -130.33288743

 SCS-MP2 correlation energy:           -0.48163804   (PS=  1.200000  PT=  0.333333)
 SCS-MP2 total energy:               -130.33010301

 ITER.      SQ.NORM     CORR.ENERGY   TOTAL ENERGY   ENERGY CHANGE        DEN1      VAR(S)    VAR(P)  DIIS     TIME  TIME/IT
   1      1.12146957    -0.48118133  -130.32964630     0.00324113     0.02022294  0.33D-02  0.33D-02  1  1    20.19    10.12
   2      1.13229009    -0.48101352  -130.32947849     0.00016781    -0.01286933  0.11D-03  0.50D-03  2  2    29.36    10.28
   3      1.13859062    -0.48140857  -130.32987354    -0.00039505    -0.00305104  0.50D-04  0.58D-04  3  3    38.68    10.33
   4      1.14145810    -0.48140566  -130.32987062     0.00000291    -0.00099169  0.49D-05  0.10D-04  4  4    47.91    10.36
   5      1.14263698    -0.48143625  -130.32990121    -0.00003059    -0.00026131  0.12D-05  0.17D-05  5  5    57.15    10.37
   6      1.14300529    -0.48142405  -130.32988902     0.00001219    -0.00005224  0.13D-06  0.40D-06  6  6    66.37    10.38
   7      1.14308272    -0.48142355  -130.32988851     0.00000051     0.00000349  0.19D-07  0.92D-07  6  1    75.75    10.39
   8      1.14310870    -0.48142348  -130.32988845     0.00000006    -0.00000321  0.35D-08  0.19D-07  6  2    84.94    10.40
   9      1.14311757    -0.48142288  -130.32988784     0.00000061    -0.00000014  0.22D-08  0.21D-08  6  3    94.14    10.40
  10      1.14311289    -0.48142363  -130.32988860    -0.00000076     0.00000161  0.35D-09  0.35D-09  6  5   103.37    10.41
  11      1.14311496    -0.48142361  -130.32988858     0.00000002    -0.00000038  0.10D-09  0.30D-10  6  4   112.70    10.43
  12      1.14311451    -0.48142368  -130.32988865    -0.00000007     0.00000005  0.19D-10  0.68D-11  6  6   121.90    10.43
  13      1.14311429    -0.48142369  -130.32988865    -0.00000000    -0.00000004  0.33D-11  0.98D-12  6  1   131.00    10.43
  14      1.14311401    -0.48142370  -130.32988866    -0.00000001     0.00000004  0.46D-12  0.18D-12  6  3   140.17    10.42
  15      1.14311393    -0.48142370  -130.32988867    -0.00000000     0.00000001  0.13D-12  0.24D-13  6  2   149.41    10.42
  16      1.14311391    -0.48142370  -130.32988867     0.00000000     0.00000000  0.34D-13  0.96D-14  6  4   159.96    10.52
  17      1.14311391    -0.48142370  -130.32988867    -0.00000000    -0.00000000  0.20D-14  0.12D-14  6  5   170.77    10.63
  18      1.14311392    -0.48142370  -130.32988867     0.00000000    -0.00000000  0.29D-15  0.31D-15  6  6   181.63    10.73
  19      1.14311392    -0.48142370  -130.32988867     0.00000000    -0.00000000  0.54D-16  0.41D-16  6  1   192.35    10.81
  20      1.14311392    -0.48142370  -130.32988867     0.00000000    -0.00000000  0.12D-16  0.64D-17  6  3   203.11    10.88
  21      1.14311392    -0.48142370  -130.32988867    -0.00000000     0.00000000  0.22D-17  0.12D-17  6  2   213.88    10.95
  22      1.14311392    -0.48142370  -130.32988867    -0.00000000     0.00000000  0.46D-18  0.20D-18  6  4   224.66    11.01
  23      1.14311392    -0.48142370  -130.32988867    -0.00000000     0.00000000  0.83D-19  0.48D-19  6  5   235.52    11.06
  24      1.14311392    -0.48142370  -130.32988867     0.00000000     0.00000000  0.34D-19  0.22D-19  6  6   246.34    11.11
  25      1.14311392    -0.48142370  -130.32988867    -0.00000000     0.00000000  0.16D-19  0.10D-19  6  1   257.17    11.16

 Norm of t1 vector:      0.07746658      S-energy:    -0.00000000      T1 diagnostic:  0.01581280
                                                                       D1 diagnostic:  0.04287983

 Doubles amplitudes (print threshold =  0.500E-01):

         I         J         SYM. A    SYM. B    A         B      T(IJ, AB)

         6         6         2         2         1         1     -0.08317871
         6         6         2         2         1         2      0.05287685
         6         6         2         2         2         1      0.05287685


 Total CPU time for triples:    106.38 sec


 RESULTS
 =======

  Reference energy                   -129.848464965926
  CCSD singlet pair energy             -0.334110274811
  CCSD triplet pair energy             -0.147313426718
  CCSD correlation energy              -0.481423701531

  Triples (T) contribution             -0.023150907834
  Total correlation energy             -0.504574609366

  CCSD total energy                  -130.329888667457
  CCSD[T] energy                     -130.354150287921
  CCSD-T energy                      -130.352651320638
 !CCSD(T) total energy               -130.353039575291

 Timing summary (sec):

 STEP                 CPU(USER)    SYS     CPU(TOT)    WALL
 Transformation         11.14      1.52     12.66     12.91
 CCSD iterations       246.04     32.73    278.77    278.93
 Triples               106.38      2.06    108.44    108.52

 Program statistics:

 Available memory in ccsd:               994999756
 Min. memory needed in ccsd:               3348832
 Max. memory used in ccsd:                 4143652
 Max. memory used in cckext:               8340089 (25 integral passes)



 **********************************************************************************************************************************
 DATASETS  * FILE   NREC   LENGTH (MB)   RECORD NAMES
              1      20     6809.41       500      610      700      900      950      970     1000      129      960     1100   
                                          VAR    BASINP    GEOM    SYMINP    ZMAT    AOBASIS   BASIS     P2S    ABASIS      S 
                                         1400     1410     1200     1210     1080     1600     1650     1300     1700     1380   
                                           T        V       H0       H01     AOSYM     SMH    MOLCAS    ERIS     OPER     JKOP   

              2       4        4.02       700     1000      520     2100   
                                         GEOM     BASIS   MCVARS     RHF  

 PROGRAMS   *        TOTAL   CCSD(T)        HF       INT
 CPU TIMES  *       617.34    363.59     74.26    179.39
 REAL TIME  *       916.50 SEC
 DISK USED  *        21.32 GB      
 **********************************************************************************************************************************

 CCSD(T)/aug-cc-pV5Z energy=   -130.353039575291

        CCSD(T)         HF-SCF  
   -130.35303958   -129.84846497
 **********************************************************************************************************************************
 Molpro calculation terminated
 Variable memory released
