
 Primary working directories    : /tmp/r2666/234748.maple
 Secondary working directories  : /tmp/r2666/234748.maple
 Wavefunction directory         : /ddn/home4/r2666/wfu/
 Main file repository           : /tmp/r2666/234748.maple/

 SHA1      : d5ffa45e93fdbca01ffc919aa182cfdae0147319
 NAME      : 2015.1.35
 ARCHNAME  : linux/x86_64
 FC        : /opt/intel/composer_xe_2015.1.133/bin/intel64/ifort
 BLASLIB   : -Wl,-_start-group /opt/intel/mkl/lib/intel64/libmkl_intel_ilp64.a /opt/intel/mkl/lib/intel64/libmkl_intel_thread.a /opt/intel/mkl/lib/intel64/libmkl_core.a -Wl,-_end-group
 id        : olemiss

 Nodes     nprocs
 cn095        1

 Using customized tuning parameters: mindgm=1; mindgv=20; mindgc=4; mindgr=1; noblas=0; minvec=7
 default implementation of scratch files=df  

 ***,hno CCSD(T)/TZ-F12 QFF
 memory, 995, m;
 gthresh,energy=1.d-12,zero=1.d-22,oneint=1.d-22,twoint=1.d-22;
 gthresh,optgrad=1.d-8,optstep=1.d-8;
 nocompress;
 geomtyp=xyz
 bohr
 geometry={
 3
        120       120
 N        0.0000000000       -0.1676569461       -1.1407334487
 H        0.0000000000        1.6753476100       -1.9352125024
 O        0.0000000000        0.0340771261        1.1253563601
 }
 
 basis=av5z
   {hf,maxit=500;accu,20;}
 {ccsd(t),nocheck,maxit=250;orbital,IGNORE_ERROR;}

 Variables initialized (889), CPU time= 0.01 sec
 Commands  initialized (702), CPU time= 0.01 sec, 572 directives.
 Default parameters read. Elapsed time= 0.04 sec

 Checking input...
 Passed
1


                                         ***  PROGRAM SYSTEM MOLPRO  ***
                                       Copyright, TTI GmbH Stuttgart, 2015
                                    Version 2015.1 linked Jul  9 2018 13:16:40


 **********************************************************************************************************************************
 LABEL *   hno CCSD(T)/TZ-F12 QFF                                                        
  64 bit serial version                                                                  DATE: 08-Feb-20          TIME: 17:42:39  
 **********************************************************************************************************************************

 SHA1:             d5ffa45e93fdbca01ffc919aa182cfdae0147319
 **********************************************************************************************************************************

 THRESHOLDS:

 ZERO    =  1.00D-22  ONEINT  =  1.00D-22  TWOINT  =  1.00D-22  PREFAC  =  1.00D-14  LOCALI  =  1.00D-09  EORDER  =  1.00D-04
 ENERGY  =  1.00D-12  ETEST   =  0.00D+00  EDENS   =  0.00D+00  THRDEDEF=  1.00D-06  GRADIENT=  1.00D-02  STEP    =  1.00D-03
 ORBITAL =  1.00D-05  CIVEC   =  1.00D-05  COEFF   =  1.00D-04  PRINTCI =  5.00D-02  PUNCHCI =  9.90D+01  OPTGRAD =  3.00D-04
 OPTENERG=  1.00D-06  OPTSTEP =  3.00D-04  THRGRAD =  1.00D-10  COMPRESS=  1.00D-11  VARMIN  =  1.00D-07  VARMAX  =  1.00D-03
 THRDOUB =  0.00D+00  THRDIV  =  1.00D-05  THRRED  =  1.00D-07  THRPSP  =  1.00D+00  THRDC   =  1.00D-10  THRCS   =  1.00D-10
 THRNRM  =  1.00D-08  THREQ   =  0.00D+00  THRDE   =  1.00D+00  THRREF  =  1.00D-05  SPARFAC =  1.00D+00  THRDLP  =  1.00D-07
 THRDIA  =  1.00D-10  THRDLS  =  1.00D-07  THRGPS  =  0.00D+00  THRKEX  =  0.00D+00  THRDIS  =  2.00D-01  THRVAR  =  1.00D-10
 THRLOC  =  1.00D-06  THRGAP  =  1.00D-06  THRLOCT = -1.00D+00  THRGAPT = -1.00D+00  THRORB  =  1.00D-06  THRMLTP =  0.00D+00
 THRCPQCI=  1.00D-10  KEXTA   =  0.00D+00  THRCOARS=  0.00D+00  SYMTOL  =  1.00D-06  GRADTOL =  1.00D-06  THROVL  =  1.00D-08
 THRORTH =  1.00D-08  GRID    =  1.00D-06  GRIDMAX =  1.00D-03  DTMAX   =  0.00D+00  THROCCDE=  1.00D-01  THROCCDE=  1.00D-01



 THRESHOLDS:

 ZERO    =  1.00D-22  ONEINT  =  1.00D-22  TWOINT  =  1.00D-22  PREFAC  =  1.00D-14  LOCALI  =  1.00D-09  EORDER  =  1.00D-04
 ENERGY  =  1.00D-12  ETEST   =  0.00D+00  EDENS   =  0.00D+00  THRDEDEF=  1.00D-06  GRADIENT=  1.00D-02  STEP    =  1.00D-03
 ORBITAL =  1.00D-05  CIVEC   =  1.00D-05  COEFF   =  1.00D-04  PRINTCI =  5.00D-02  PUNCHCI =  9.90D+01  OPTGRAD =  1.00D-08
 OPTENERG=  1.00D-06  OPTSTEP =  1.00D-08  THRGRAD =  1.00D-10  COMPRESS=  1.00D-11  VARMIN  =  1.00D-07  VARMAX  =  1.00D-03
 THRDOUB =  0.00D+00  THRDIV  =  1.00D-05  THRRED  =  1.00D-07  THRPSP  =  1.00D+00  THRDC   =  1.00D-10  THRCS   =  1.00D-10
 THRNRM  =  1.00D-08  THREQ   =  0.00D+00  THRDE   =  1.00D+00  THRREF  =  1.00D-05  SPARFAC =  1.00D+00  THRDLP  =  1.00D-07
 THRDIA  =  1.00D-10  THRDLS  =  1.00D-07  THRGPS  =  0.00D+00  THRKEX  =  0.00D+00  THRDIS  =  2.00D-01  THRVAR  =  1.00D-10
 THRLOC  =  1.00D-06  THRGAP  =  1.00D-06  THRLOCT = -1.00D+00  THRGAPT = -1.00D+00  THRORB  =  1.00D-06  THRMLTP =  0.00D+00
 THRCPQCI=  1.00D-10  KEXTA   =  0.00D+00  THRCOARS=  0.00D+00  SYMTOL  =  1.00D-06  GRADTOL =  1.00D-06  THROVL  =  1.00D-08
 THRORTH =  1.00D-08  GRID    =  1.00D-06  GRIDMAX =  1.00D-03  DTMAX   =  0.00D+00  THROCCDE=  1.00D-01  THROCCDE=  1.00D-01



 Input parameters for SORTINT:

 COMPRESS =    0.000000
 C_FINAL  =    1.000000
 DEBUG    =   -1.000000
 C_SORT1  =    0.000000
 C_SEWARD =    0.000000
 THRESH   =    0.000000
 IO       =  molpro                                                          
 SPRI     =    0.000000
 SETTING GEOMTYP        =    XYZ
 ZUNIT=BOHR
 

 Variable memory set to  995000000 words,  buffer space   230000 words

 SETTING BASIS          =    AV5Z


 Recomputing integrals since basis changed


 Using spherical harmonics

 Library entry N      S aug-cc-pV5Z          selected for orbital group  1
 Library entry N      P aug-cc-pV5Z          selected for orbital group  1
 Library entry N      D aug-cc-pV5Z          selected for orbital group  1
 Library entry N      F aug-cc-pV5Z          selected for orbital group  1
 Library entry N      G aug-cc-pV5Z          selected for orbital group  1
 Library entry N      H aug-cc-pV5Z          selected for orbital group  1
 Library entry H      S aug-cc-pV5Z          selected for orbital group  2
 Library entry H      P aug-cc-pV5Z          selected for orbital group  2
 Library entry H      D aug-cc-pV5Z          selected for orbital group  2
 Library entry H      F aug-cc-pV5Z          selected for orbital group  2
 Library entry H      G aug-cc-pV5Z          selected for orbital group  2
 Library entry O      S aug-cc-pV5Z          selected for orbital group  3
 Library entry O      P aug-cc-pV5Z          selected for orbital group  3
 Library entry O      D aug-cc-pV5Z          selected for orbital group  3
 Library entry O      F aug-cc-pV5Z          selected for orbital group  3
 Library entry O      G aug-cc-pV5Z          selected for orbital group  3
 Library entry O      H aug-cc-pV5Z          selected for orbital group  3


 PROGRAM * SEWARD (Integral evaluation for generally contracted gaussian basis sets)     Author: Roland Lindh, 1990

 Geometry written to block  1 of record 700


 Point group  Cs  



 ATOMIC COORDINATES

 NR  ATOM    CHARGE       X              Y              Z

   1  N       7.00    0.000000000   -0.167656946   -1.140733449
   2  H       1.00    0.000000000    1.675347610   -1.935212502
   3  O       8.00    0.000000000    0.034077126    1.125356360

 Bond lengths in Bohr (Angstrom)

 1-2  2.006953602  1-3  2.275051572
     ( 1.062034110)     ( 1.203905446)

 Bond angles

  2-1-3  108.23258934

 NUCLEAR CHARGE:                   16
 NUMBER OF PRIMITIVE AOS:         506
 NUMBER OF SYMMETRY AOS:          371
 NUMBER OF CONTRACTIONS:          334   ( 204A'  + 130A"  )
 NUMBER OF CORE ORBITALS:           2   (   2A'  +   0A"  )
 NUMBER OF VALENCE ORBITALS:        9   (   7A'  +   2A"  )


 NUCLEAR REPULSION ENERGY   30.40626788


 Eigenvalues of metric

         1 0.114E-04 0.173E-04 0.647E-04 0.997E-04 0.104E-03 0.136E-03 0.201E-03 0.224E-03
         2 0.126E-03 0.376E-03 0.112E-02 0.155E-02 0.201E-02 0.251E-02 0.336E-02 0.396E-02


 Contracted 2-electron integrals neglected if value below      1.0D-22

      756977420. INTEGRALS WRITTEN OUT IN  184855 BLOCKS ON RECORD 1290 OF FILE 1


 NUMBER OF SORTED TWO-ELECTRON INTEGRALS:  789027325.     BUFFER LENGTH:  32768
 NUMBER OF SEGMENTS:  25  SEGMENT LENGTH:   31997130      RECORD LENGTH: 524288

 Memory used in sort:      32.55 MW

 SORT1 READ   756977420. AND WROTE   760993302. INTEGRALS IN   2189 RECORDS. CPU TIME:    37.41 SEC, REAL TIME:   210.96 SEC
 SORT2 READ   760993302. AND WROTE   789027325. INTEGRALS IN     25 RECORDS. CPU TIME:    13.46 SEC, REAL TIME:    65.16 SEC

 FILE SIZES:   FILE 1: 12137.5 MBYTE,  FILE 4:  9181.4 MBYTE,   TOTAL:  21318.9 MBYTE

 OPERATOR DM      FOR CENTER  0  COORDINATES:    0.000000    0.000000    0.000000


 **********************************************************************************************************************************
 DATASETS  * FILE   NREC   LENGTH (MB)   RECORD NAMES
              1      19     6374.22       500      610      700      900      950      970     1000      129      960     1100   
                                          VAR    BASINP    GEOM    SYMINP    ZMAT    AOBASIS   BASIS     P2S    ABASIS      S 
                                         1400     1410     1200     1210     1080     1600     1650     1300     1700   
                                           T        V       H0       H01     AOSYM     SMH    MOLCAS    ERIS     OPER   

 PROGRAMS   *        TOTAL       INT
 CPU TIMES  *       161.06    160.95
 REAL TIME  *       451.19 SEC
 DISK USED  *        21.32 GB      
 **********************************************************************************************************************************


 PROGRAM * RHF-SCF (CLOSED SHELL)       Authors: W. Meyer, H.-J. Werner


 NUMBER OF ELECTRONS:       8+    8-
 CONVERGENCE THRESHOLDS:    1.00E-10 (Density)    1.00E-13 (Energy)
 MAX. NUMBER OF ITERATIONS:      500
 INTERPOLATION TYPE:            DIIS
 INTERPOLATION STEPS:              2 (START)      1 (STEP)
 LEVEL SHIFTS:                  0.00 (CLOSED)  0.00 (OPEN) 



 Orbital guess generated from atomic densities. Full valence occupancy:    9   2

 Molecular orbital dump at record        2100.2

 Initial occupancy:   7   1

 ITERATION    DDIFF          GRAD             ENERGY        2-EL.EN.            DIPOLE MOMENTS         DIIS   ORB.
    1      0.000D+00      0.000D+00      -129.79879793    154.037267    0.00000    0.58733   -1.01703    0    start
    2      0.000D+00      0.641D-02      -129.82613210    155.278062    0.00000    0.60691   -0.20531    1    diag
    3      0.399D-02      0.487D-02      -129.84891126    155.393232    0.00000    0.55129   -0.58721    2    diag
    4      0.206D-02      0.765D-03      -129.84971035    155.110194    0.00000    0.55866   -0.52625    3    diag
    5      0.376D-03      0.249D-03      -129.84983675    155.204403    0.00000    0.56405   -0.52888    4    diag
    6      0.156D-03      0.725D-04      -129.84985709    155.187996    0.00000    0.56434   -0.52470    5    diag
    7      0.603D-04      0.359D-04      -129.84986294    155.190878    0.00000    0.56561   -0.52213    6    diag
    8      0.411D-04      0.125D-04      -129.84986359    155.190177    0.00000    0.56566   -0.52113    7    diag
    9      0.156D-04      0.242D-05      -129.84986362    155.190064    0.00000    0.56562   -0.52091    8    diag
   10      0.313D-05      0.550D-06      -129.84986362    155.190045    0.00000    0.56559   -0.52088    9    orth
   11      0.624D-06      0.112D-06      -129.84986362    155.190041    0.00000    0.56558   -0.52088    9    diag
   12      0.119D-06      0.226D-07      -129.84986362    155.190041    0.00000    0.56558   -0.52088    9    diag
   13      0.258D-07      0.591D-08      -129.84986362    155.190041    0.00000    0.56558   -0.52088    9    diag
   14      0.697D-08      0.116D-08      -129.84986362    155.190041    0.00000    0.56558   -0.52088    9    diag
   15      0.128D-08      0.335D-09      -129.84986362    155.190041    0.00000    0.56558   -0.52088    9    diag
   16      0.379D-09      0.102D-09      -129.84986362    155.190041    0.00000    0.56558   -0.52088    9    diag
   17      0.789D-10      0.280D-10      -129.84986362    155.190041    0.00000    0.56558   -0.52088    9    diag
   18      0.238D-10      0.966D-11      -129.84986362    155.190041    0.00000    0.56558   -0.52088    9    diag
   19      0.277D-10      0.242D-11      -129.84986362    155.190041    0.00000    0.56558   -0.52088    0    orth

 Final occupancy:   7   1

 !RHF STATE 1.1 Energy               -129.849863621496
 Nuclear energy                        30.40626788
 One-electron energy                 -237.85115179
 Two-electron energy                   77.59502029
 Virial quotient                       -1.00169762
 !RHF STATE 1.1 Dipole moment           0.00000000     0.56557886    -0.52087809
 Dipole moment /Debye                   0.00000000     1.43746391    -1.32385333

 Orbital energies:

         1.1          2.1          3.1          4.1          5.1          6.1          7.1          8.1          9.1
    -20.652774   -15.712823    -1.532519    -0.990977    -0.747334    -0.667295    -0.428694     0.022895     0.065556

         1.2          2.2          3.2
     -0.598139     0.061012     0.092076

 HOMO      7.1    -0.428694 =     -11.6654eV
 LUMO      8.1     0.022895 =       0.6230eV
 LUMO-HOMO         0.451589 =      12.2884eV


 **********************************************************************************************************************************
 DATASETS  * FILE   NREC   LENGTH (MB)   RECORD NAMES
              1      19     6374.22       500      610      700      900      950      970     1000      129      960     1100   
                                          VAR    BASINP    GEOM    SYMINP    ZMAT    AOBASIS   BASIS     P2S    ABASIS      S 
                                         1400     1410     1200     1210     1080     1600     1650     1300     1700   
                                           T        V       H0       H01     AOSYM     SMH    MOLCAS    ERIS     OPER   

              2       4        4.02       700     1000      520     2100   
                                         GEOM     BASIS   MCVARS     RHF  

 PROGRAMS   *        TOTAL        HF       INT
 CPU TIMES  *       226.02     64.96    160.95
 REAL TIME  *       538.17 SEC
 DISK USED  *        21.32 GB      
 **********************************************************************************************************************************


 PROGRAM * CCSD (Closed-shell coupled cluster)     Authors: C. Hampel, H.-J. Werner, 1991, M. Deegan, P.J. Knowles, 1992


 Convergence thresholds:  THRVAR = 1.00D-08  THRDEN = 1.00D-12

 CCSD(T)     terms to be evaluated (factor= 1.000)


 Number of core orbitals:           2 (   2   0 )
 Number of closed-shell orbitals:   6 (   5   1 )
 Number of external orbitals:     326 ( 197 129 )

 Molecular orbitals read from record     2100.2  Type=RHF/CANONICAL (state 1.1)

 Number of N-1 electron functions:               6
 Number of N-2 electron functions:              21
 Number of singly external CSFs:              1114
 Number of doubly external CSFs:            975958
 Total number of CSFs:                      977073

 Length of J-op  integral file:               0.00 MB
 Length of K-op  integral file:               4.07 MB
 Length of 3-ext integral record:             0.00 MB

 Memory could be reduced to 151.33 Mwords without degradation in triples

 Integral transformation finished. Total CPU:  10.97 sec, npass=  1  Memory used:  41.21 MW

 Reference energy:                   -129.84986362

 MP2 singlet pair energy:              -0.31098477
 MP2 triplet pair energy:              -0.17187577
 MP2 correlation energy:               -0.48286054
 MP2 total energy:                   -130.33272416

 SCS-MP2 correlation energy:           -0.48012665   (PS=  1.200000  PT=  0.333333)
 SCS-MP2 total energy:               -130.32999027

 ITER.      SQ.NORM     CORR.ENERGY   TOTAL ENERGY   ENERGY CHANGE        DEN1      VAR(S)    VAR(P)  DIIS     TIME  TIME/IT
   1      1.12049332    -0.47999190  -130.32985552     0.00286864     0.01944702  0.31D-02  0.32D-02  1  1    20.02    10.10
   2      1.13108367    -0.47990441  -130.32976803     0.00008748    -0.01262738  0.10D-03  0.49D-03  2  2    29.29    10.27
   3      1.13721251    -0.48028592  -130.33014955    -0.00038151    -0.00299836  0.48D-04  0.56D-04  3  3    38.50    10.34
   4      1.13997446    -0.48028265  -130.33014627     0.00000327    -0.00096361  0.45D-05  0.99D-05  4  4    47.83    10.38
   5      1.14109193    -0.48031158  -130.33017520    -0.00002892    -0.00024840  0.12D-05  0.16D-05  5  5    57.05    10.40
   6      1.14144484    -0.48030031  -130.33016394     0.00001126    -0.00004971  0.13D-06  0.40D-06  6  6    66.28    10.41
   7      1.14152209    -0.48029974  -130.33016336     0.00000057     0.00000297  0.19D-07  0.91D-07  6  1    75.66    10.44
   8      1.14154770    -0.48029978  -130.33016340    -0.00000004    -0.00000306  0.36D-08  0.19D-07  6  2    84.88    10.45
   9      1.14155656    -0.48029921  -130.33016283     0.00000057    -0.00000020  0.21D-08  0.20D-08  6  3    94.12    10.45
  10      1.14155215    -0.48029993  -130.33016355    -0.00000072     0.00000152  0.34D-09  0.32D-09  6  5   103.35    10.46
  11      1.14155402    -0.48029992  -130.33016354     0.00000001    -0.00000033  0.97D-10  0.27D-10  6  4   112.57    10.46
  12      1.14155357    -0.48029999  -130.33016361    -0.00000007     0.00000005  0.18D-10  0.62D-11  6  6   121.71    10.46
  13      1.14155335    -0.48029999  -130.33016361    -0.00000000    -0.00000003  0.32D-11  0.93D-12  6  1   130.90    10.46
  14      1.14155308    -0.48030000  -130.33016362    -0.00000001     0.00000004  0.48D-12  0.17D-12  6  3   140.01    10.46
  15      1.14155300    -0.48030000  -130.33016363    -0.00000000     0.00000001  0.13D-12  0.24D-13  6  2   149.31    10.46
  16      1.14155299    -0.48030000  -130.33016362     0.00000000     0.00000000  0.33D-13  0.95D-14  6  4   158.53    10.46
  17      1.14155299    -0.48030000  -130.33016363    -0.00000000    -0.00000000  0.18D-14  0.12D-14  6  5   167.77    10.46
  18      1.14155300    -0.48030000  -130.33016362     0.00000000    -0.00000000  0.28D-15  0.31D-15  6  6   177.27    10.47
  19      1.14155300    -0.48030000  -130.33016362     0.00000000    -0.00000000  0.33D-16  0.44D-16  6  2   187.86    10.55
  20      1.14155300    -0.48030000  -130.33016362     0.00000000    -0.00000000  0.88D-17  0.65D-17  6  1   198.53    10.62
  21      1.14155300    -0.48030000  -130.33016362    -0.00000000     0.00000000  0.15D-17  0.91D-18  6  3   209.45    10.69
  22      1.14155300    -0.48030000  -130.33016362    -0.00000000     0.00000000  0.31D-18  0.14D-18  6  4   220.19    10.75
  23      1.14155300    -0.48030000  -130.33016362    -0.00000000     0.00000000  0.91D-19  0.50D-19  6  5   231.09    10.81
  24      1.14155300    -0.48030000  -130.33016362    -0.00000000     0.00000000  0.52D-19  0.29D-19  6  6   241.91    10.87
  25      1.14155300    -0.48030000  -130.33016362    -0.00000000     0.00000000  0.26D-19  0.14D-19  6  2   252.74    10.92

 Norm of t1 vector:      0.07600500      S-energy:    -0.00000000      T1 diagnostic:  0.01551446
                                                                       D1 diagnostic:  0.04168645

 Doubles amplitudes (print threshold =  0.500E-01):

         I         J         SYM. A    SYM. B    A         B      T(IJ, AB)

         6         6         2         2         1         1     -0.07619025
         6         6         2         2         1         2      0.05290906
         6         6         2         2         2         1      0.05290906


 Total CPU time for triples:    100.31 sec


 RESULTS
 =======

  Reference energy                   -129.849863621496
  CCSD singlet pair energy             -0.333136590295
  CCSD triplet pair energy             -0.147163412630
  CCSD correlation energy              -0.480300002926

  Triples (T) contribution             -0.022858059519
  Total correlation energy             -0.503158062445

  CCSD total energy                  -130.330163624422
  CCSD[T] energy                     -130.354092804479
  CCSD-T energy                      -130.352642865215
 !CCSD(T) total energy               -130.353021683941

 Timing summary (sec):

 STEP                 CPU(USER)    SYS     CPU(TOT)    WALL
 Transformation         11.02      1.47     12.49     12.70
 CCSD iterations       241.74     31.18    272.92    272.96
 Triples               100.31      1.62    101.93    101.94

 Program statistics:

 Available memory in ccsd:               994999756
 Min. memory needed in ccsd:               3348832
 Max. memory used in ccsd:                 4143652
 Max. memory used in cckext:               8340089 (25 integral passes)



 **********************************************************************************************************************************
 DATASETS  * FILE   NREC   LENGTH (MB)   RECORD NAMES
              1      20     6809.41       500      610      700      900      950      970     1000      129      960     1100   
                                          VAR    BASINP    GEOM    SYMINP    ZMAT    AOBASIS   BASIS     P2S    ABASIS      S 
                                         1400     1410     1200     1210     1080     1600     1650     1300     1700     1380   
                                           T        V       H0       H01     AOSYM     SMH    MOLCAS    ERIS     OPER     JKOP   

              2       4        4.02       700     1000      520     2100   
                                         GEOM     BASIS   MCVARS     RHF  

 PROGRAMS   *        TOTAL   CCSD(T)        HF       INT
 CPU TIMES  *       579.11    353.09     64.96    160.95
 REAL TIME  *       925.87 SEC
 DISK USED  *        21.32 GB      
 **********************************************************************************************************************************

 CCSD(T)/aug-cc-pV5Z energy=   -130.353021683941

        CCSD(T)         HF-SCF  
   -130.35302168   -129.84986362
 **********************************************************************************************************************************
 Molpro calculation terminated
 Variable memory released
