
 Primary working directories    : /tmp/r2666/234705.maple
 Secondary working directories  : /tmp/r2666/234705.maple
 Wavefunction directory         : /ddn/home4/r2666/wfu/
 Main file repository           : /tmp/r2666/234705.maple/

 SHA1      : d5ffa45e93fdbca01ffc919aa182cfdae0147319
 NAME      : 2015.1.35
 ARCHNAME  : linux/x86_64
 FC        : /opt/intel/composer_xe_2015.1.133/bin/intel64/ifort
 BLASLIB   : -Wl,-_start-group /opt/intel/mkl/lib/intel64/libmkl_intel_ilp64.a /opt/intel/mkl/lib/intel64/libmkl_intel_thread.a /opt/intel/mkl/lib/intel64/libmkl_core.a -Wl,-_end-group
 id        : olemiss

 Nodes     nprocs
 cn089        1

 Using customized tuning parameters: mindgm=1; mindgv=20; mindgc=4; mindgr=1; noblas=0; minvec=7
 default implementation of scratch files=df  

 ***,hno CCSD(T)/TZ-F12 QFF
 memory, 995, m;
 gthresh,energy=1.d-12,zero=1.d-22,oneint=1.d-22,twoint=1.d-22;
 gthresh,optgrad=1.d-8,optstep=1.d-8;
 nocompress;
 geomtyp=xyz
 bohr
 geometry={
 3
         77        77
 N        0.0000000000       -0.1528958786       -1.1411499723
 H        0.0000000000        1.6672799187       -1.9407299159
 O        0.0000000000        0.0273837499        1.1312902972
 }
 
 basis=av5z
   {hf,maxit=500;accu,20;}
 {ccsd(t),nocheck,maxit=250;orbital,IGNORE_ERROR;}

 Variables initialized (889), CPU time= 0.00 sec
 Commands  initialized (702), CPU time= 0.01 sec, 572 directives.
 Default parameters read. Elapsed time= 0.04 sec

 Checking input...
 Passed
1


                                         ***  PROGRAM SYSTEM MOLPRO  ***
                                       Copyright, TTI GmbH Stuttgart, 2015
                                    Version 2015.1 linked Jul  9 2018 13:16:40


 **********************************************************************************************************************************
 LABEL *   hno CCSD(T)/TZ-F12 QFF                                                        
  64 bit serial version                                                                  DATE: 08-Feb-20          TIME: 17:37:15  
 **********************************************************************************************************************************

 SHA1:             d5ffa45e93fdbca01ffc919aa182cfdae0147319
 **********************************************************************************************************************************

 THRESHOLDS:

 ZERO    =  1.00D-22  ONEINT  =  1.00D-22  TWOINT  =  1.00D-22  PREFAC  =  1.00D-14  LOCALI  =  1.00D-09  EORDER  =  1.00D-04
 ENERGY  =  1.00D-12  ETEST   =  0.00D+00  EDENS   =  0.00D+00  THRDEDEF=  1.00D-06  GRADIENT=  1.00D-02  STEP    =  1.00D-03
 ORBITAL =  1.00D-05  CIVEC   =  1.00D-05  COEFF   =  1.00D-04  PRINTCI =  5.00D-02  PUNCHCI =  9.90D+01  OPTGRAD =  3.00D-04
 OPTENERG=  1.00D-06  OPTSTEP =  3.00D-04  THRGRAD =  1.00D-10  COMPRESS=  1.00D-11  VARMIN  =  1.00D-07  VARMAX  =  1.00D-03
 THRDOUB =  0.00D+00  THRDIV  =  1.00D-05  THRRED  =  1.00D-07  THRPSP  =  1.00D+00  THRDC   =  1.00D-10  THRCS   =  1.00D-10
 THRNRM  =  1.00D-08  THREQ   =  0.00D+00  THRDE   =  1.00D+00  THRREF  =  1.00D-05  SPARFAC =  1.00D+00  THRDLP  =  1.00D-07
 THRDIA  =  1.00D-10  THRDLS  =  1.00D-07  THRGPS  =  0.00D+00  THRKEX  =  0.00D+00  THRDIS  =  2.00D-01  THRVAR  =  1.00D-10
 THRLOC  =  1.00D-06  THRGAP  =  1.00D-06  THRLOCT = -1.00D+00  THRGAPT = -1.00D+00  THRORB  =  1.00D-06  THRMLTP =  0.00D+00
 THRCPQCI=  1.00D-10  KEXTA   =  0.00D+00  THRCOARS=  0.00D+00  SYMTOL  =  1.00D-06  GRADTOL =  1.00D-06  THROVL  =  1.00D-08
 THRORTH =  1.00D-08  GRID    =  1.00D-06  GRIDMAX =  1.00D-03  DTMAX   =  0.00D+00  THROCCDE=  1.00D-01  THROCCDE=  1.00D-01



 THRESHOLDS:

 ZERO    =  1.00D-22  ONEINT  =  1.00D-22  TWOINT  =  1.00D-22  PREFAC  =  1.00D-14  LOCALI  =  1.00D-09  EORDER  =  1.00D-04
 ENERGY  =  1.00D-12  ETEST   =  0.00D+00  EDENS   =  0.00D+00  THRDEDEF=  1.00D-06  GRADIENT=  1.00D-02  STEP    =  1.00D-03
 ORBITAL =  1.00D-05  CIVEC   =  1.00D-05  COEFF   =  1.00D-04  PRINTCI =  5.00D-02  PUNCHCI =  9.90D+01  OPTGRAD =  1.00D-08
 OPTENERG=  1.00D-06  OPTSTEP =  1.00D-08  THRGRAD =  1.00D-10  COMPRESS=  1.00D-11  VARMIN  =  1.00D-07  VARMAX  =  1.00D-03
 THRDOUB =  0.00D+00  THRDIV  =  1.00D-05  THRRED  =  1.00D-07  THRPSP  =  1.00D+00  THRDC   =  1.00D-10  THRCS   =  1.00D-10
 THRNRM  =  1.00D-08  THREQ   =  0.00D+00  THRDE   =  1.00D+00  THRREF  =  1.00D-05  SPARFAC =  1.00D+00  THRDLP  =  1.00D-07
 THRDIA  =  1.00D-10  THRDLS  =  1.00D-07  THRGPS  =  0.00D+00  THRKEX  =  0.00D+00  THRDIS  =  2.00D-01  THRVAR  =  1.00D-10
 THRLOC  =  1.00D-06  THRGAP  =  1.00D-06  THRLOCT = -1.00D+00  THRGAPT = -1.00D+00  THRORB  =  1.00D-06  THRMLTP =  0.00D+00
 THRCPQCI=  1.00D-10  KEXTA   =  0.00D+00  THRCOARS=  0.00D+00  SYMTOL  =  1.00D-06  GRADTOL =  1.00D-06  THROVL  =  1.00D-08
 THRORTH =  1.00D-08  GRID    =  1.00D-06  GRIDMAX =  1.00D-03  DTMAX   =  0.00D+00  THROCCDE=  1.00D-01  THROCCDE=  1.00D-01



 Input parameters for SORTINT:

 COMPRESS =    0.000000
 C_FINAL  =    1.000000
 DEBUG    =   -1.000000
 C_SORT1  =    0.000000
 C_SEWARD =    0.000000
 THRESH   =    0.000000
 IO       =  molpro                                                          
 SPRI     =    0.000000
 SETTING GEOMTYP        =    XYZ
 ZUNIT=BOHR
 

 Variable memory set to  995000000 words,  buffer space   230000 words

 SETTING BASIS          =    AV5Z


 Recomputing integrals since basis changed


 Using spherical harmonics

 Library entry N      S aug-cc-pV5Z          selected for orbital group  1
 Library entry N      P aug-cc-pV5Z          selected for orbital group  1
 Library entry N      D aug-cc-pV5Z          selected for orbital group  1
 Library entry N      F aug-cc-pV5Z          selected for orbital group  1
 Library entry N      G aug-cc-pV5Z          selected for orbital group  1
 Library entry N      H aug-cc-pV5Z          selected for orbital group  1
 Library entry H      S aug-cc-pV5Z          selected for orbital group  2
 Library entry H      P aug-cc-pV5Z          selected for orbital group  2
 Library entry H      D aug-cc-pV5Z          selected for orbital group  2
 Library entry H      F aug-cc-pV5Z          selected for orbital group  2
 Library entry H      G aug-cc-pV5Z          selected for orbital group  2
 Library entry O      S aug-cc-pV5Z          selected for orbital group  3
 Library entry O      P aug-cc-pV5Z          selected for orbital group  3
 Library entry O      D aug-cc-pV5Z          selected for orbital group  3
 Library entry O      F aug-cc-pV5Z          selected for orbital group  3
 Library entry O      G aug-cc-pV5Z          selected for orbital group  3
 Library entry O      H aug-cc-pV5Z          selected for orbital group  3


 PROGRAM * SEWARD (Integral evaluation for generally contracted gaussian basis sets)     Author: Roland Lindh, 1990

 Geometry written to block  1 of record 700


 Point group  Cs  



 ATOMIC COORDINATES

 NR  ATOM    CHARGE       X              Y              Z

   1  N       7.00    0.000000000   -0.152895879   -1.141149972
   2  H       1.00    0.000000000    1.667279919   -1.940729916
   3  O       8.00    0.000000000    0.027383750    1.131290297

 Bond lengths in Bohr (Angstrom)

 1-2  1.988056342  1-3  2.279580120
     ( 1.052034110)     ( 1.206301850)

 Bond angles

  2-1-3  109.17932058

 NUCLEAR CHARGE:                   16
 NUMBER OF PRIMITIVE AOS:         506
 NUMBER OF SYMMETRY AOS:          371
 NUMBER OF CONTRACTIONS:          334   ( 204A'  + 130A"  )
 NUMBER OF CORE ORBITALS:           2   (   2A'  +   0A"  )
 NUMBER OF VALENCE ORBITALS:        9   (   7A'  +   2A"  )


 NUCLEAR REPULSION ENERGY   30.38427209


 Eigenvalues of metric

         1 0.112E-04 0.170E-04 0.631E-04 0.995E-04 0.104E-03 0.135E-03 0.197E-03 0.224E-03
         2 0.126E-03 0.363E-03 0.112E-02 0.157E-02 0.193E-02 0.250E-02 0.325E-02 0.391E-02


 Contracted 2-electron integrals neglected if value below      1.0D-22

      756977347. INTEGRALS WRITTEN OUT IN  184855 BLOCKS ON RECORD 1290 OF FILE 1


 NUMBER OF SORTED TWO-ELECTRON INTEGRALS:  789027325.     BUFFER LENGTH:  32768
 NUMBER OF SEGMENTS:  25  SEGMENT LENGTH:   31997130      RECORD LENGTH: 524288

 Memory used in sort:      32.55 MW

 SORT1 READ   756977347. AND WROTE   760993227. INTEGRALS IN   2189 RECORDS. CPU TIME:    30.70 SEC, REAL TIME:   115.05 SEC
 SORT2 READ   760993227. AND WROTE   789027325. INTEGRALS IN     25 RECORDS. CPU TIME:     8.28 SEC, REAL TIME:    12.31 SEC

 FILE SIZES:   FILE 1: 12137.5 MBYTE,  FILE 4:  9181.4 MBYTE,   TOTAL:  21318.9 MBYTE

 OPERATOR DM      FOR CENTER  0  COORDINATES:    0.000000    0.000000    0.000000


 **********************************************************************************************************************************
 DATASETS  * FILE   NREC   LENGTH (MB)   RECORD NAMES
              1      19     6374.22       500      610      700      900      950      970     1000      129      960     1100   
                                          VAR    BASINP    GEOM    SYMINP    ZMAT    AOBASIS   BASIS     P2S    ABASIS      S 
                                         1400     1410     1200     1210     1080     1600     1650     1300     1700   
                                           T        V       H0       H01     AOSYM     SMH    MOLCAS    ERIS     OPER   

 PROGRAMS   *        TOTAL       INT
 CPU TIMES  *       131.83    131.73
 REAL TIME  *       227.55 SEC
 DISK USED  *        21.32 GB      
 **********************************************************************************************************************************


 PROGRAM * RHF-SCF (CLOSED SHELL)       Authors: W. Meyer, H.-J. Werner


 NUMBER OF ELECTRONS:       8+    8-
 CONVERGENCE THRESHOLDS:    1.00E-10 (Density)    1.00E-13 (Energy)
 MAX. NUMBER OF ITERATIONS:      500
 INTERPOLATION TYPE:            DIIS
 INTERPOLATION STEPS:              2 (START)      1 (STEP)
 LEVEL SHIFTS:                  0.00 (CLOSED)  0.00 (OPEN) 



 Orbital guess generated from atomic densities. Full valence occupancy:    9   2

 Molecular orbital dump at record        2100.2

 Initial occupancy:   7   1

 ITERATION    DDIFF          GRAD             ENERGY        2-EL.EN.            DIPOLE MOMENTS         DIIS   ORB.
    1      0.000D+00      0.000D+00      -129.79904075    154.001742    0.00000    0.60320   -1.02591    0    start
    2      0.000D+00      0.640D-02      -129.82629931    155.230250    0.00000    0.60877   -0.21248    1    diag
    3      0.399D-02      0.486D-02      -129.84894564    155.352788    0.00000    0.55963   -0.59587    2    diag
    4      0.206D-02      0.770D-03      -129.84975083    155.068799    0.00000    0.56654   -0.53421    3    diag
    5      0.378D-03      0.248D-03      -129.84987602    155.162706    0.00000    0.57187   -0.53682    4    diag
    6      0.156D-03      0.718D-04      -129.84989599    155.146422    0.00000    0.57217   -0.53264    5    diag
    7      0.598D-04      0.357D-04      -129.84990178    155.149223    0.00000    0.57341   -0.53005    6    diag
    8      0.409D-04      0.125D-04      -129.84990244    155.148527    0.00000    0.57346   -0.52904    7    diag
    9      0.157D-04      0.243D-05      -129.84990247    155.148416    0.00000    0.57342   -0.52881    8    diag
   10      0.317D-05      0.553D-06      -129.84990247    155.148397    0.00000    0.57339   -0.52878    9    orth
   11      0.630D-06      0.111D-06      -129.84990247    155.148393    0.00000    0.57338   -0.52878    9    diag
   12      0.118D-06      0.224D-07      -129.84990247    155.148393    0.00000    0.57338   -0.52878    9    diag
   13      0.251D-07      0.585D-08      -129.84990247    155.148393    0.00000    0.57338   -0.52878    9    diag
   14      0.677D-08      0.114D-08      -129.84990247    155.148393    0.00000    0.57338   -0.52878    9    diag
   15      0.125D-08      0.326D-09      -129.84990247    155.148393    0.00000    0.57338   -0.52878    9    diag
   16      0.370D-09      0.981D-10      -129.84990247    155.148393    0.00000    0.57338   -0.52878    9    diag
   17      0.755D-10      0.256D-10      -129.84990247    155.148393    0.00000    0.57338   -0.52878    9    diag
   18      0.191D-10      0.871D-11      -129.84990247    155.148393    0.00000    0.57338   -0.52878    9    diag
   19      0.146D-10      0.216D-11      -129.84990247    155.148393    0.00000    0.57338   -0.52878    9    fixocc
   20      0.127D-10      0.521D-12      -129.84990247    155.148393    0.00000    0.57338   -0.52878    9    orth
   21      0.805D-11      0.479D-12      -129.84990247    155.148393    0.00000    0.57338   -0.52878    9    diag
   22      0.789D-11      0.324D-12      -129.84990247    155.148393    0.00000    0.57338   -0.52878    9    diag
   23      0.692D-11      0.286D-12      -129.84990247    155.148393    0.00000    0.57338   -0.52878    9    diag
   24      0.391D-11      0.282D-12      -129.84990247    155.148393    0.00000    0.57338   -0.52878    9    diag
   25      0.216D-11      0.216D-12      -129.84990247    155.148393    0.00000    0.57338   -0.52878    9    diag
   26      0.154D-11      0.233D-12      -129.84990247    155.148393    0.00000    0.57338   -0.52878    9    diag
   27      0.204D-11      0.232D-12      -129.84990247    155.148393    0.00000    0.57338   -0.52878    9    diag
   28      0.155D-11      0.291D-12      -129.84990247    155.148393    0.00000    0.57338   -0.52878    9    diag
   29      0.673D-12      0.273D-12      -129.84990247    155.148393    0.00000    0.57338   -0.52878    9    diag
   30      0.340D-12      0.267D-12      -129.84990247    155.148393    0.00000    0.57338   -0.52878    9    orth
   31      0.864D-12      0.237D-12      -129.84990247    155.148393    0.00000    0.57338   -0.52878    9    diag
   32      0.143D-11      0.251D-12      -129.84990247    155.148393    0.00000    0.57338   -0.52878    9    diag
   33      0.110D-11      0.316D-12      -129.84990247    155.148393    0.00000    0.57338   -0.52878    9    diag
   34      0.259D-12      0.194D-12      -129.84990247    155.148393    0.00000    0.57338   -0.52878    9    diag
   35      0.769D-12      0.168D-12      -129.84990247    155.148393    0.00000    0.57338   -0.52878    9    diag
   36      0.776D-12      0.245D-12      -129.84990247    155.148393    0.00000    0.57338   -0.52878    0    orth

 Final occupancy:   7   1

 !RHF STATE 1.1 Energy               -129.849902471023
 Nuclear energy                        30.38427209
 One-electron energy                 -237.80837100
 Two-electron energy                   77.57419644
 Virial quotient                       -1.00168011
 !RHF STATE 1.1 Dipole moment           0.00000000     0.57337863    -0.52877969
 Dipole moment /Debye                   0.00000000     1.45728765    -1.34393588

 Orbital energies:

         1.1          2.1          3.1          4.1          5.1          6.1          7.1          8.1          9.1
    -20.653028   -15.711700    -1.530163    -0.994594    -0.747648    -0.666778    -0.429368     0.022803     0.065536

         1.2          2.2          3.2
     -0.596710     0.060380     0.091702

 HOMO      7.1    -0.429368 =     -11.6837eV
 LUMO      8.1     0.022803 =       0.6205eV
 LUMO-HOMO         0.452171 =      12.3042eV


 **********************************************************************************************************************************
 DATASETS  * FILE   NREC   LENGTH (MB)   RECORD NAMES
              1      19     6374.22       500      610      700      900      950      970     1000      129      960     1100   
                                          VAR    BASINP    GEOM    SYMINP    ZMAT    AOBASIS   BASIS     P2S    ABASIS      S 
                                         1400     1410     1200     1210     1080     1600     1650     1300     1700   
                                           T        V       H0       H01     AOSYM     SMH    MOLCAS    ERIS     OPER   

              2       4        4.02       700     1000      520     2100   
                                         GEOM     BASIS   MCVARS     RHF  

 PROGRAMS   *        TOTAL        HF       INT
 CPU TIMES  *       249.92    118.09    131.73
 REAL TIME  *       383.98 SEC
 DISK USED  *        21.32 GB      
 **********************************************************************************************************************************


 PROGRAM * CCSD (Closed-shell coupled cluster)     Authors: C. Hampel, H.-J. Werner, 1991, M. Deegan, P.J. Knowles, 1992


 Convergence thresholds:  THRVAR = 1.00D-08  THRDEN = 1.00D-12

 CCSD(T)     terms to be evaluated (factor= 1.000)


 Number of core orbitals:           2 (   2   0 )
 Number of closed-shell orbitals:   6 (   5   1 )
 Number of external orbitals:     326 ( 197 129 )

 Molecular orbitals read from record     2100.2  Type=RHF/CANONICAL (state 1.1)

 Number of N-1 electron functions:               6
 Number of N-2 electron functions:              21
 Number of singly external CSFs:              1114
 Number of doubly external CSFs:            975958
 Total number of CSFs:                      977073

 Length of J-op  integral file:               0.00 MB
 Length of K-op  integral file:               4.07 MB
 Length of 3-ext integral record:             0.00 MB

 Memory could be reduced to 151.33 Mwords without degradation in triples

 Integral transformation finished. Total CPU:  10.54 sec, npass=  1  Memory used:  41.21 MW

 Reference energy:                   -129.84990247

 MP2 singlet pair energy:              -0.31100362
 MP2 triplet pair energy:              -0.17190258
 MP2 correlation energy:               -0.48290620
 MP2 total energy:                   -130.33280867

 SCS-MP2 correlation energy:           -0.48016595   (PS=  1.200000  PT=  0.333333)
 SCS-MP2 total energy:               -130.33006842

 ITER.      SQ.NORM     CORR.ENERGY   TOTAL ENERGY   ENERGY CHANGE        DEN1      VAR(S)    VAR(P)  DIIS     TIME  TIME/IT
   1      1.12043549    -0.47996737  -130.32986984     0.00293882     0.01955046  0.32D-02  0.32D-02  1  1    19.33     9.77
   2      1.13103710    -0.47986270  -130.32976517     0.00010467    -0.01264384  0.10D-03  0.49D-03  2  2    28.42     9.88
   3      1.13717207    -0.48024368  -130.33014615    -0.00038098    -0.00299317  0.48D-04  0.56D-04  3  3    37.15     9.93
   4      1.13995404    -0.48024135  -130.33014382     0.00000233    -0.00096615  0.45D-05  0.10D-04  4  4    46.13     9.95
   5      1.14108532    -0.48027031  -130.33017278    -0.00002896    -0.00025066  0.11D-05  0.17D-05  5  5    55.13     9.96
   6      1.14144358    -0.48025883  -130.33016131     0.00001148    -0.00005041  0.12D-06  0.41D-06  6  6    64.06     9.97
   7      1.14152122    -0.48025843  -130.33016091     0.00000040     0.00000319  0.17D-07  0.95D-07  6  1    72.95     9.98
   8      1.14154687    -0.48025851  -130.33016098    -0.00000008    -0.00000307  0.37D-08  0.19D-07  6  2    81.83     9.99
   9      1.14155565    -0.48025795  -130.33016042     0.00000056    -0.00000020  0.23D-08  0.20D-08  6  3    90.72     9.99
  10      1.14155103    -0.48025869  -130.33016116    -0.00000075     0.00000157  0.36D-09  0.33D-09  6  5    99.58    10.00
  11      1.14155297    -0.48025868  -130.33016115     0.00000001    -0.00000035  0.10D-09  0.28D-10  6  4   108.34    10.00
  12      1.14155252    -0.48025875  -130.33016122    -0.00000007     0.00000005  0.19D-10  0.66D-11  6  6   117.23    10.00
  13      1.14155230    -0.48025875  -130.33016122    -0.00000000    -0.00000003  0.33D-11  0.97D-12  6  1   126.10    10.01
  14      1.14155202    -0.48025876  -130.33016123    -0.00000001     0.00000004  0.49D-12  0.18D-12  6  3   134.89    10.01
  15      1.14155194    -0.48025877  -130.33016124    -0.00000000     0.00000001  0.13D-12  0.24D-13  6  2   143.69    10.01
  16      1.14155193    -0.48025876  -130.33016124     0.00000000     0.00000000  0.34D-13  0.92D-14  6  4   152.47    10.01
  17      1.14155193    -0.48025876  -130.33016124    -0.00000000    -0.00000000  0.19D-14  0.12D-14  6  5   161.25    10.01
  18      1.14155194    -0.48025876  -130.33016124     0.00000000    -0.00000000  0.29D-15  0.31D-15  6  6   170.05    10.01
  19      1.14155194    -0.48025876  -130.33016124     0.00000000    -0.00000000  0.35D-16  0.46D-16  6  2   179.07    10.01
  20      1.14155194    -0.48025876  -130.33016124     0.00000000    -0.00000000  0.94D-17  0.67D-17  6  1   188.00    10.02
  21      1.14155194    -0.48025876  -130.33016124    -0.00000000     0.00000000  0.16D-17  0.96D-18  6  3   196.94    10.02
  22      1.14155194    -0.48025876  -130.33016124    -0.00000000     0.00000000  0.30D-18  0.14D-18  6  4   205.79    10.02
  23      1.14155194    -0.48025876  -130.33016124    -0.00000000     0.00000000  0.96D-19  0.49D-19  6  5   214.72    10.02
  24      1.14155194    -0.48025876  -130.33016124    -0.00000000     0.00000000  0.43D-19  0.23D-19  6  6   223.63    10.02
  25      1.14155194    -0.48025876  -130.33016124    -0.00000000     0.00000000  0.24D-19  0.12D-19  6  2   232.55    10.02

 Norm of t1 vector:      0.07623236      S-energy:    -0.00000000      T1 diagnostic:  0.01556086
                                                                       D1 diagnostic:  0.04206648

 Doubles amplitudes (print threshold =  0.500E-01):

         I         J         SYM. A    SYM. B    A         B      T(IJ, AB)

         6         6         2         2         1         1     -0.07803246
         6         6         2         2         1         2      0.05303138
         6         6         2         2         2         1      0.05303138


 Total CPU time for triples:     88.52 sec


 RESULTS
 =======

  Reference energy                   -129.849902471023
  CCSD singlet pair energy             -0.333108645381
  CCSD triplet pair energy             -0.147150118783
  CCSD correlation energy              -0.480258764167

  Triples (T) contribution             -0.022875971436
  Total correlation energy             -0.503134735603

  CCSD total energy                  -130.330161235190
  CCSD[T] energy                     -130.354113277727
  CCSD-T energy                      -130.352658482924
 !CCSD(T) total energy               -130.353037206626

 Timing summary (sec):

 STEP                 CPU(USER)    SYS     CPU(TOT)    WALL
 Transformation         10.59      1.50     12.09     12.09
 CCSD iterations       221.97     28.57    250.54    250.58
 Triples                88.52      1.76     90.28     90.29

 Program statistics:

 Available memory in ccsd:               994999756
 Min. memory needed in ccsd:               3348832
 Max. memory used in ccsd:                 4143652
 Max. memory used in cckext:               8340089 (25 integral passes)



 **********************************************************************************************************************************
 DATASETS  * FILE   NREC   LENGTH (MB)   RECORD NAMES
              1      20     6809.41       500      610      700      900      950      970     1000      129      960     1100   
                                          VAR    BASINP    GEOM    SYMINP    ZMAT    AOBASIS   BASIS     P2S    ABASIS      S 
                                         1400     1410     1200     1210     1080     1600     1650     1300     1700     1380   
                                           T        V       H0       H01     AOSYM     SMH    MOLCAS    ERIS     OPER     JKOP   

              2       4        4.02       700     1000      520     2100   
                                         GEOM     BASIS   MCVARS     RHF  

 PROGRAMS   *        TOTAL   CCSD(T)        HF       INT
 CPU TIMES  *       571.02    321.10    118.09    131.73
 REAL TIME  *       736.97 SEC
 DISK USED  *        21.32 GB      
 **********************************************************************************************************************************

 CCSD(T)/aug-cc-pV5Z energy=   -130.353037206626

        CCSD(T)         HF-SCF  
   -130.35303721   -129.84990247
 **********************************************************************************************************************************
 Molpro calculation terminated
 Variable memory released
