
 Primary working directories    : /tmp/r2666/234698.maple
 Secondary working directories  : /tmp/r2666/234698.maple
 Wavefunction directory         : /ddn/home4/r2666/wfu/
 Main file repository           : /tmp/r2666/234698.maple/

 SHA1      : d5ffa45e93fdbca01ffc919aa182cfdae0147319
 NAME      : 2015.1.35
 ARCHNAME  : linux/x86_64
 FC        : /opt/intel/composer_xe_2015.1.133/bin/intel64/ifort
 BLASLIB   : -Wl,-_start-group /opt/intel/mkl/lib/intel64/libmkl_intel_ilp64.a /opt/intel/mkl/lib/intel64/libmkl_intel_thread.a /opt/intel/mkl/lib/intel64/libmkl_core.a -Wl,-_end-group
 id        : olemiss

 Nodes     nprocs
 cn092        1

 Using customized tuning parameters: mindgm=1; mindgv=20; mindgc=4; mindgr=1; noblas=0; minvec=7
 default implementation of scratch files=df  

 ***,hno CCSD(T)/TZ-F12 QFF
 memory, 995, m;
 gthresh,energy=1.d-12,zero=1.d-22,oneint=1.d-22,twoint=1.d-22;
 gthresh,optgrad=1.d-8,optstep=1.d-8;
 nocompress;
 geomtyp=xyz
 bohr
 geometry={
 3
         70        70
 N        0.0000000000       -0.1511468112       -1.1330719104
 H        0.0000000000        1.6659320368       -1.9396650417
 O        0.0000000000        0.0269825644        1.1221473612
 }
 
 basis=av5z
   {hf,maxit=500;accu,20;}
 {ccsd(t),nocheck,maxit=250;orbital,IGNORE_ERROR;}

 Variables initialized (889), CPU time= 0.01 sec
 Commands  initialized (702), CPU time= 0.01 sec, 572 directives.
 Default parameters read. Elapsed time= 0.05 sec

 Checking input...
 Passed
1


                                         ***  PROGRAM SYSTEM MOLPRO  ***
                                       Copyright, TTI GmbH Stuttgart, 2015
                                    Version 2015.1 linked Jul  9 2018 13:16:40


 **********************************************************************************************************************************
 LABEL *   hno CCSD(T)/TZ-F12 QFF                                                        
  64 bit serial version                                                                  DATE: 08-Feb-20          TIME: 17:36:44  
 **********************************************************************************************************************************

 SHA1:             d5ffa45e93fdbca01ffc919aa182cfdae0147319
 **********************************************************************************************************************************

 THRESHOLDS:

 ZERO    =  1.00D-22  ONEINT  =  1.00D-22  TWOINT  =  1.00D-22  PREFAC  =  1.00D-14  LOCALI  =  1.00D-09  EORDER  =  1.00D-04
 ENERGY  =  1.00D-12  ETEST   =  0.00D+00  EDENS   =  0.00D+00  THRDEDEF=  1.00D-06  GRADIENT=  1.00D-02  STEP    =  1.00D-03
 ORBITAL =  1.00D-05  CIVEC   =  1.00D-05  COEFF   =  1.00D-04  PRINTCI =  5.00D-02  PUNCHCI =  9.90D+01  OPTGRAD =  3.00D-04
 OPTENERG=  1.00D-06  OPTSTEP =  3.00D-04  THRGRAD =  1.00D-10  COMPRESS=  1.00D-11  VARMIN  =  1.00D-07  VARMAX  =  1.00D-03
 THRDOUB =  0.00D+00  THRDIV  =  1.00D-05  THRRED  =  1.00D-07  THRPSP  =  1.00D+00  THRDC   =  1.00D-10  THRCS   =  1.00D-10
 THRNRM  =  1.00D-08  THREQ   =  0.00D+00  THRDE   =  1.00D+00  THRREF  =  1.00D-05  SPARFAC =  1.00D+00  THRDLP  =  1.00D-07
 THRDIA  =  1.00D-10  THRDLS  =  1.00D-07  THRGPS  =  0.00D+00  THRKEX  =  0.00D+00  THRDIS  =  2.00D-01  THRVAR  =  1.00D-10
 THRLOC  =  1.00D-06  THRGAP  =  1.00D-06  THRLOCT = -1.00D+00  THRGAPT = -1.00D+00  THRORB  =  1.00D-06  THRMLTP =  0.00D+00
 THRCPQCI=  1.00D-10  KEXTA   =  0.00D+00  THRCOARS=  0.00D+00  SYMTOL  =  1.00D-06  GRADTOL =  1.00D-06  THROVL  =  1.00D-08
 THRORTH =  1.00D-08  GRID    =  1.00D-06  GRIDMAX =  1.00D-03  DTMAX   =  0.00D+00  THROCCDE=  1.00D-01  THROCCDE=  1.00D-01



 THRESHOLDS:

 ZERO    =  1.00D-22  ONEINT  =  1.00D-22  TWOINT  =  1.00D-22  PREFAC  =  1.00D-14  LOCALI  =  1.00D-09  EORDER  =  1.00D-04
 ENERGY  =  1.00D-12  ETEST   =  0.00D+00  EDENS   =  0.00D+00  THRDEDEF=  1.00D-06  GRADIENT=  1.00D-02  STEP    =  1.00D-03
 ORBITAL =  1.00D-05  CIVEC   =  1.00D-05  COEFF   =  1.00D-04  PRINTCI =  5.00D-02  PUNCHCI =  9.90D+01  OPTGRAD =  1.00D-08
 OPTENERG=  1.00D-06  OPTSTEP =  1.00D-08  THRGRAD =  1.00D-10  COMPRESS=  1.00D-11  VARMIN  =  1.00D-07  VARMAX  =  1.00D-03
 THRDOUB =  0.00D+00  THRDIV  =  1.00D-05  THRRED  =  1.00D-07  THRPSP  =  1.00D+00  THRDC   =  1.00D-10  THRCS   =  1.00D-10
 THRNRM  =  1.00D-08  THREQ   =  0.00D+00  THRDE   =  1.00D+00  THRREF  =  1.00D-05  SPARFAC =  1.00D+00  THRDLP  =  1.00D-07
 THRDIA  =  1.00D-10  THRDLS  =  1.00D-07  THRGPS  =  0.00D+00  THRKEX  =  0.00D+00  THRDIS  =  2.00D-01  THRVAR  =  1.00D-10
 THRLOC  =  1.00D-06  THRGAP  =  1.00D-06  THRLOCT = -1.00D+00  THRGAPT = -1.00D+00  THRORB  =  1.00D-06  THRMLTP =  0.00D+00
 THRCPQCI=  1.00D-10  KEXTA   =  0.00D+00  THRCOARS=  0.00D+00  SYMTOL  =  1.00D-06  GRADTOL =  1.00D-06  THROVL  =  1.00D-08
 THRORTH =  1.00D-08  GRID    =  1.00D-06  GRIDMAX =  1.00D-03  DTMAX   =  0.00D+00  THROCCDE=  1.00D-01  THROCCDE=  1.00D-01



 Input parameters for SORTINT:

 COMPRESS =    0.000000
 C_FINAL  =    1.000000
 DEBUG    =   -1.000000
 C_SORT1  =    0.000000
 C_SEWARD =    0.000000
 THRESH   =    0.000000
 IO       =  molpro                                                          
 SPRI     =    0.000000
 SETTING GEOMTYP        =    XYZ
 ZUNIT=BOHR
 

 Variable memory set to  995000000 words,  buffer space   230000 words

 SETTING BASIS          =    AV5Z


 Recomputing integrals since basis changed


 Using spherical harmonics

 Library entry N      S aug-cc-pV5Z          selected for orbital group  1
 Library entry N      P aug-cc-pV5Z          selected for orbital group  1
 Library entry N      D aug-cc-pV5Z          selected for orbital group  1
 Library entry N      F aug-cc-pV5Z          selected for orbital group  1
 Library entry N      G aug-cc-pV5Z          selected for orbital group  1
 Library entry N      H aug-cc-pV5Z          selected for orbital group  1
 Library entry H      S aug-cc-pV5Z          selected for orbital group  2
 Library entry H      P aug-cc-pV5Z          selected for orbital group  2
 Library entry H      D aug-cc-pV5Z          selected for orbital group  2
 Library entry H      F aug-cc-pV5Z          selected for orbital group  2
 Library entry H      G aug-cc-pV5Z          selected for orbital group  2
 Library entry O      S aug-cc-pV5Z          selected for orbital group  3
 Library entry O      P aug-cc-pV5Z          selected for orbital group  3
 Library entry O      D aug-cc-pV5Z          selected for orbital group  3
 Library entry O      F aug-cc-pV5Z          selected for orbital group  3
 Library entry O      G aug-cc-pV5Z          selected for orbital group  3
 Library entry O      H aug-cc-pV5Z          selected for orbital group  3


 PROGRAM * SEWARD (Integral evaluation for generally contracted gaussian basis sets)     Author: Roland Lindh, 1990

 Geometry written to block  1 of record 700


 Point group  Cs  



 ATOMIC COORDINATES

 NR  ATOM    CHARGE       X              Y              Z

   1  N       7.00    0.000000000   -0.151146811   -1.133071910
   2  H       1.00    0.000000000    1.665932037   -1.939665042
   3  O       8.00    0.000000000    0.026982564    1.122147361

 Bond lengths in Bohr (Angstrom)

 1-2  1.988056342  1-3  2.262243143
     ( 1.052034110)     ( 1.197127517)

 Bond angles

  2-1-3  109.42006613

 NUCLEAR CHARGE:                   16
 NUMBER OF PRIMITIVE AOS:         506
 NUMBER OF SYMMETRY AOS:          371
 NUMBER OF CONTRACTIONS:          334   ( 204A'  + 130A"  )
 NUMBER OF CORE ORBITALS:           2   (   2A'  +   0A"  )
 NUMBER OF VALENCE ORBITALS:        9   (   7A'  +   2A"  )


 NUCLEAR REPULSION ENERGY   30.57878638


 Eigenvalues of metric

         1 0.110E-04 0.166E-04 0.626E-04 0.967E-04 0.102E-03 0.132E-03 0.195E-03 0.224E-03
         2 0.123E-03 0.361E-03 0.109E-02 0.150E-02 0.191E-02 0.242E-02 0.323E-02 0.386E-02


 Contracted 2-electron integrals neglected if value below      1.0D-22

      756977255. INTEGRALS WRITTEN OUT IN  184855 BLOCKS ON RECORD 1290 OF FILE 1


 NUMBER OF SORTED TWO-ELECTRON INTEGRALS:  789027325.     BUFFER LENGTH:  32768
 NUMBER OF SEGMENTS:  25  SEGMENT LENGTH:   31997130      RECORD LENGTH: 524288

 Memory used in sort:      32.55 MW

 SORT1 READ   756977255. AND WROTE   760993137. INTEGRALS IN   2189 RECORDS. CPU TIME:    30.61 SEC, REAL TIME:   117.00 SEC
 SORT2 READ   760993137. AND WROTE   789027325. INTEGRALS IN     25 RECORDS. CPU TIME:     9.51 SEC, REAL TIME:    22.40 SEC

 FILE SIZES:   FILE 1: 12137.5 MBYTE,  FILE 4:  9181.4 MBYTE,   TOTAL:  21318.9 MBYTE

 OPERATOR DM      FOR CENTER  0  COORDINATES:    0.000000    0.000000    0.000000


 **********************************************************************************************************************************
 DATASETS  * FILE   NREC   LENGTH (MB)   RECORD NAMES
              1      19     6374.22       500      610      700      900      950      970     1000      129      960     1100   
                                          VAR    BASINP    GEOM    SYMINP    ZMAT    AOBASIS   BASIS     P2S    ABASIS      S 
                                         1400     1410     1200     1210     1080     1600     1650     1300     1700   
                                           T        V       H0       H01     AOSYM     SMH    MOLCAS    ERIS     OPER   

 PROGRAMS   *        TOTAL       INT
 CPU TIMES  *       131.63    131.53
 REAL TIME  *       237.96 SEC
 DISK USED  *        21.32 GB      
 **********************************************************************************************************************************


 PROGRAM * RHF-SCF (CLOSED SHELL)       Authors: W. Meyer, H.-J. Werner


 NUMBER OF ELECTRONS:       8+    8-
 CONVERGENCE THRESHOLDS:    1.00E-10 (Density)    1.00E-13 (Energy)
 MAX. NUMBER OF ITERATIONS:      500
 INTERPOLATION TYPE:            DIIS
 INTERPOLATION STEPS:              2 (START)      1 (STEP)
 LEVEL SHIFTS:                  0.00 (CLOSED)  0.00 (OPEN) 



 Orbital guess generated from atomic densities. Full valence occupancy:    9   2

 Molecular orbital dump at record        2100.2

 Initial occupancy:   7   1

 ITERATION    DDIFF          GRAD             ENERGY        2-EL.EN.            DIPOLE MOMENTS         DIIS   ORB.
    1      0.000D+00      0.000D+00      -129.80151076    154.349430    0.00000    0.60087   -0.99681    0    start
    2      0.000D+00      0.633D-02      -129.82900312    155.595666    0.00000    0.60285   -0.21701    1    diag
    3      0.391D-02      0.471D-02      -129.85016812    155.697536    0.00000    0.55612   -0.58273    2    diag
    4      0.200D-02      0.761D-03      -129.85095237    155.420818    0.00000    0.56312   -0.52264    3    diag
    5      0.374D-03      0.245D-03      -129.85107371    155.513911    0.00000    0.56848   -0.52544    4    diag
    6      0.153D-03      0.707D-04      -129.85109301    155.497761    0.00000    0.56883   -0.52144    5    diag
    7      0.587D-04      0.349D-04      -129.85109848    155.500647    0.00000    0.57009   -0.51898    6    diag
    8      0.398D-04      0.119D-04      -129.85109906    155.499985    0.00000    0.57015   -0.51804    7    diag
    9      0.146D-04      0.228D-05      -129.85109908    155.499881    0.00000    0.57011   -0.51783    8    diag
   10      0.290D-05      0.530D-06      -129.85109908    155.499863    0.00000    0.57008   -0.51780    9    orth
   11      0.602D-06      0.108D-06      -129.85109908    155.499858    0.00000    0.57007   -0.51780    9    diag
   12      0.116D-06      0.215D-07      -129.85109908    155.499858    0.00000    0.57007   -0.51780    9    diag
   13      0.248D-07      0.553D-08      -129.85109908    155.499858    0.00000    0.57007   -0.51780    9    diag
   14      0.653D-08      0.110D-08      -129.85109908    155.499858    0.00000    0.57007   -0.51780    9    diag
   15      0.122D-08      0.318D-09      -129.85109908    155.499858    0.00000    0.57007   -0.51780    9    diag
   16      0.363D-09      0.986D-10      -129.85109908    155.499858    0.00000    0.57007   -0.51780    9    diag
   17      0.781D-10      0.267D-10      -129.85109908    155.499858    0.00000    0.57007   -0.51780    9    diag
   18      0.227D-10      0.912D-11      -129.85109908    155.499858    0.00000    0.57007   -0.51780    9    diag
   19      0.260D-10      0.233D-11      -129.85109908    155.499858    0.00000    0.57007   -0.51780    9    fixocc
   20      0.168D-10      0.624D-12      -129.85109908    155.499858    0.00000    0.57007   -0.51780    9    orth
   21      0.130D-10      0.470D-12      -129.85109908    155.499858    0.00000    0.57007   -0.51780    9    diag
   22      0.693D-11      0.305D-12      -129.85109908    155.499858    0.00000    0.57007   -0.51780    9    diag
   23      0.392D-11      0.278D-12      -129.85109908    155.499858    0.00000    0.57007   -0.51780    0    orth

 Final occupancy:   7   1

 !RHF STATE 1.1 Energy               -129.851099084478
 Nuclear energy                        30.57878638
 One-electron energy                 -238.17981451
 Two-electron energy                   77.74992904
 Virial quotient                       -1.00140431
 !RHF STATE 1.1 Dipole moment           0.00000000     0.57006884    -0.51779510
 Dipole moment /Debye                   0.00000000     1.44887556    -1.31601766

 Orbital energies:

         1.1          2.1          3.1          4.1          5.1          6.1          7.1          8.1          9.1
    -20.652217   -15.710081    -1.537653    -0.992613    -0.750457    -0.669505    -0.426344     0.022893     0.065543

         1.2          2.2          3.2
     -0.601108     0.062109     0.092583

 HOMO      7.1    -0.426344 =     -11.6014eV
 LUMO      8.1     0.022893 =       0.6230eV
 LUMO-HOMO         0.449237 =      12.2244eV


 **********************************************************************************************************************************
 DATASETS  * FILE   NREC   LENGTH (MB)   RECORD NAMES
              1      19     6374.22       500      610      700      900      950      970     1000      129      960     1100   
                                          VAR    BASINP    GEOM    SYMINP    ZMAT    AOBASIS   BASIS     P2S    ABASIS      S 
                                         1400     1410     1200     1210     1080     1600     1650     1300     1700   
                                           T        V       H0       H01     AOSYM     SMH    MOLCAS    ERIS     OPER   

              2       4        4.02       700     1000      520     2100   
                                         GEOM     BASIS   MCVARS     RHF  

 PROGRAMS   *        TOTAL        HF       INT
 CPU TIMES  *       208.11     76.48    131.53
 REAL TIME  *       339.72 SEC
 DISK USED  *        21.32 GB      
 **********************************************************************************************************************************


 PROGRAM * CCSD (Closed-shell coupled cluster)     Authors: C. Hampel, H.-J. Werner, 1991, M. Deegan, P.J. Knowles, 1992


 Convergence thresholds:  THRVAR = 1.00D-08  THRDEN = 1.00D-12

 CCSD(T)     terms to be evaluated (factor= 1.000)


 Number of core orbitals:           2 (   2   0 )
 Number of closed-shell orbitals:   6 (   5   1 )
 Number of external orbitals:     326 ( 197 129 )

 Molecular orbitals read from record     2100.2  Type=RHF/CANONICAL (state 1.1)

 Number of N-1 electron functions:               6
 Number of N-2 electron functions:              21
 Number of singly external CSFs:              1114
 Number of doubly external CSFs:            975958
 Total number of CSFs:                      977073

 Length of J-op  integral file:               0.00 MB
 Length of K-op  integral file:               4.07 MB
 Length of 3-ext integral record:             0.00 MB

 Memory could be reduced to 151.33 Mwords without degradation in triples

 Integral transformation finished. Total CPU:  10.36 sec, npass=  1  Memory used:  41.21 MW

 Reference energy:                   -129.85109908

 MP2 singlet pair energy:              -0.31008608
 MP2 triplet pair energy:              -0.17129026
 MP2 correlation energy:               -0.48137634
 MP2 total energy:                   -130.33247542

 SCS-MP2 correlation energy:           -0.47868390   (PS=  1.200000  PT=  0.333333)
 SCS-MP2 total energy:               -130.32978298

 ITER.      SQ.NORM     CORR.ENERGY   TOTAL ENERGY   ENERGY CHANGE        DEN1      VAR(S)    VAR(P)  DIIS     TIME  TIME/IT
   1      1.11947189    -0.47879866  -130.32989775     0.00257767     0.01879976  0.30D-02  0.31D-02  1  1    19.15     9.76
   2      1.12984970    -0.47876963  -130.32986871     0.00002904    -0.01240929  0.10D-03  0.47D-03  2  2    28.07     9.87
   3      1.13581753    -0.47913757  -130.33023666    -0.00036794    -0.00294114  0.46D-04  0.54D-04  3  3    36.95     9.91
   4      1.13849785    -0.47913492  -130.33023401     0.00000265    -0.00093888  0.43D-05  0.97D-05  4  4    45.76     9.93
   5      1.13957181    -0.47916237  -130.33026146    -0.00002745    -0.00023856  0.11D-05  0.17D-05  5  5    54.63     9.94
   6      1.13991601    -0.47915178  -130.33025087     0.00001059    -0.00004806  0.12D-06  0.41D-06  6  6    63.44     9.95
   7      1.13999370    -0.47915131  -130.33025040     0.00000047     0.00000267  0.18D-07  0.93D-07  6  1    72.27     9.96
   8      1.14001900    -0.47915149  -130.33025057    -0.00000017    -0.00000293  0.38D-08  0.18D-07  6  2    81.10     9.97
   9      1.14002773    -0.47915096  -130.33025004     0.00000053    -0.00000025  0.22D-08  0.19D-08  6  3    89.88     9.97
  10      1.14002338    -0.47915167  -130.33025075    -0.00000071     0.00000149  0.34D-09  0.30D-09  6  5    98.76     9.98
  11      1.14002511    -0.47915166  -130.33025075     0.00000001    -0.00000029  0.95D-10  0.26D-10  6  4   107.67     9.98
  12      1.14002467    -0.47915172  -130.33025081    -0.00000006     0.00000005  0.18D-10  0.60D-11  6  6   116.49     9.98
  13      1.14002445    -0.47915173  -130.33025081    -0.00000000    -0.00000003  0.32D-11  0.93D-12  6  1   125.35     9.98
  14      1.14002418    -0.47915174  -130.33025082    -0.00000001     0.00000004  0.50D-12  0.17D-12  6  3   134.14     9.98
  15      1.14002410    -0.47915174  -130.33025083    -0.00000000     0.00000001  0.13D-12  0.24D-13  6  2   142.96     9.99
  16      1.14002409    -0.47915174  -130.33025083     0.00000000     0.00000000  0.32D-13  0.92D-14  6  4   151.82     9.99
  17      1.14002409    -0.47915174  -130.33025083    -0.00000000    -0.00000000  0.18D-14  0.12D-14  6  5   160.67     9.99
  18      1.14002410    -0.47915174  -130.33025083     0.00000000    -0.00000000  0.28D-15  0.31D-15  6  6   169.45     9.99
  19      1.14002410    -0.47915174  -130.33025083     0.00000000    -0.00000000  0.37D-16  0.48D-16  6  2   178.25     9.99
  20      1.14002410    -0.47915174  -130.33025083     0.00000000    -0.00000000  0.95D-17  0.67D-17  6  1   187.08     9.99
  21      1.14002410    -0.47915174  -130.33025083    -0.00000000     0.00000000  0.16D-17  0.97D-18  6  3   195.93     9.99
  22      1.14002410    -0.47915174  -130.33025083    -0.00000000     0.00000000  0.36D-18  0.16D-18  6  4   204.78     9.99
  23      1.14002410    -0.47915174  -130.33025083    -0.00000000     0.00000000  0.96D-19  0.52D-19  6  5   213.60    10.00
  24      1.14002410    -0.47915174  -130.33025083    -0.00000000     0.00000000  0.44D-19  0.24D-19  6  6   222.48    10.00
  25      1.14002410    -0.47915174  -130.33025083    -0.00000000     0.00000000  0.25D-19  0.14D-19  6  2   231.38    10.00

 Norm of t1 vector:      0.07481007      S-energy:    -0.00000000      T1 diagnostic:  0.01527054
                                                                       D1 diagnostic:  0.04090321

 Doubles amplitudes (print threshold =  0.500E-01):

         I         J         SYM. A    SYM. B    A         B      T(IJ, AB)

         6         6         2         2         1         1     -0.07096444
         6         6         2         2         1         2      0.05272669
         6         6         2         2         2         1      0.05272669


 Total CPU time for triples:     88.94 sec


 RESULTS
 =======

  Reference energy                   -129.851099084478
  CCSD singlet pair energy             -0.332148586762
  CCSD triplet pair energy             -0.147003155647
  CCSD correlation energy              -0.479151742412

  Triples (T) contribution             -0.022589345301
  Total correlation energy             -0.501741087713

  CCSD total energy                  -130.330250826891
  CCSD[T] energy                     -130.353878231905
  CCSD-T energy                      -130.352470778470
 !CCSD(T) total energy               -130.352840172192

 Timing summary (sec):

 STEP                 CPU(USER)    SYS     CPU(TOT)    WALL
 Transformation         10.41      1.61     12.02     12.03
 CCSD iterations       220.98     29.00    249.98    250.01
 Triples                88.94      1.79     90.73     90.73

 Program statistics:

 Available memory in ccsd:               994999756
 Min. memory needed in ccsd:               3348832
 Max. memory used in ccsd:                 4143652
 Max. memory used in cckext:               8340089 (25 integral passes)



 **********************************************************************************************************************************
 DATASETS  * FILE   NREC   LENGTH (MB)   RECORD NAMES
              1      20     6809.41       500      610      700      900      950      970     1000      129      960     1100   
                                          VAR    BASINP    GEOM    SYMINP    ZMAT    AOBASIS   BASIS     P2S    ABASIS      S 
                                         1400     1410     1200     1210     1080     1600     1650     1300     1700     1380   
                                           T        V       H0       H01     AOSYM     SMH    MOLCAS    ERIS     OPER     JKOP   

              2       4        4.02       700     1000      520     2100   
                                         GEOM     BASIS   MCVARS     RHF  

 PROGRAMS   *        TOTAL   CCSD(T)        HF       INT
 CPU TIMES  *       528.48    320.36     76.48    131.53
 REAL TIME  *       692.65 SEC
 DISK USED  *        21.32 GB      
 **********************************************************************************************************************************

 CCSD(T)/aug-cc-pV5Z energy=   -130.352840172192

        CCSD(T)         HF-SCF  
   -130.35284017   -129.85109908
 **********************************************************************************************************************************
 Molpro calculation terminated
 Variable memory released
