
 Primary working directories    : /tmp/r2666/234709.maple
 Secondary working directories  : /tmp/r2666/234709.maple
 Wavefunction directory         : /ddn/home4/r2666/wfu/
 Main file repository           : /tmp/r2666/234709.maple/

 SHA1      : d5ffa45e93fdbca01ffc919aa182cfdae0147319
 NAME      : 2015.1.35
 ARCHNAME  : linux/x86_64
 FC        : /opt/intel/composer_xe_2015.1.133/bin/intel64/ifort
 BLASLIB   : -Wl,-_start-group /opt/intel/mkl/lib/intel64/libmkl_intel_ilp64.a /opt/intel/mkl/lib/intel64/libmkl_intel_thread.a /opt/intel/mkl/lib/intel64/libmkl_core.a -Wl,-_end-group
 id        : olemiss

 Nodes     nprocs
 cn026        1

 Using customized tuning parameters: mindgm=1; mindgv=20; mindgc=4; mindgr=1; noblas=0; minvec=7
 default implementation of scratch files=df  

 ***,hno CCSD(T)/TZ-F12 QFF
 memory, 995, m;
 gthresh,energy=1.d-12,zero=1.d-22,oneint=1.d-22,twoint=1.d-22;
 gthresh,optgrad=1.d-8,optstep=1.d-8;
 nocompress;
 geomtyp=xyz
 bohr
 geometry={
 3
         81        81
 N        0.0000000000       -0.1645388011       -1.1639097818
 H        0.0000000000        1.6694412937       -1.9312982306
 O        0.0000000000        0.0368652973        1.1446184214
 }
 
 basis=av5z
   {hf,maxit=500;accu,20;}
 {ccsd(t),nocheck,maxit=250;orbital,IGNORE_ERROR;}

 Variables initialized (889), CPU time= 0.00 sec
 Commands  initialized (702), CPU time= 0.00 sec, 572 directives.
 Default parameters read. Elapsed time= 0.06 sec

 Checking input...
 Passed
1


                                         ***  PROGRAM SYSTEM MOLPRO  ***
                                       Copyright, TTI GmbH Stuttgart, 2015
                                    Version 2015.1 linked Jul  9 2018 13:16:40


 **********************************************************************************************************************************
 LABEL *   hno CCSD(T)/TZ-F12 QFF                                                        
  64 bit serial version                                                                  DATE: 08-Feb-20          TIME: 17:37:54  
 **********************************************************************************************************************************

 SHA1:             d5ffa45e93fdbca01ffc919aa182cfdae0147319
 **********************************************************************************************************************************

 THRESHOLDS:

 ZERO    =  1.00D-22  ONEINT  =  1.00D-22  TWOINT  =  1.00D-22  PREFAC  =  1.00D-14  LOCALI  =  1.00D-09  EORDER  =  1.00D-04
 ENERGY  =  1.00D-12  ETEST   =  0.00D+00  EDENS   =  0.00D+00  THRDEDEF=  1.00D-06  GRADIENT=  1.00D-02  STEP    =  1.00D-03
 ORBITAL =  1.00D-05  CIVEC   =  1.00D-05  COEFF   =  1.00D-04  PRINTCI =  5.00D-02  PUNCHCI =  9.90D+01  OPTGRAD =  3.00D-04
 OPTENERG=  1.00D-06  OPTSTEP =  3.00D-04  THRGRAD =  1.00D-10  COMPRESS=  1.00D-11  VARMIN  =  1.00D-07  VARMAX  =  1.00D-03
 THRDOUB =  0.00D+00  THRDIV  =  1.00D-05  THRRED  =  1.00D-07  THRPSP  =  1.00D+00  THRDC   =  1.00D-10  THRCS   =  1.00D-10
 THRNRM  =  1.00D-08  THREQ   =  0.00D+00  THRDE   =  1.00D+00  THRREF  =  1.00D-05  SPARFAC =  1.00D+00  THRDLP  =  1.00D-07
 THRDIA  =  1.00D-10  THRDLS  =  1.00D-07  THRGPS  =  0.00D+00  THRKEX  =  0.00D+00  THRDIS  =  2.00D-01  THRVAR  =  1.00D-10
 THRLOC  =  1.00D-06  THRGAP  =  1.00D-06  THRLOCT = -1.00D+00  THRGAPT = -1.00D+00  THRORB  =  1.00D-06  THRMLTP =  0.00D+00
 THRCPQCI=  1.00D-10  KEXTA   =  0.00D+00  THRCOARS=  0.00D+00  SYMTOL  =  1.00D-06  GRADTOL =  1.00D-06  THROVL  =  1.00D-08
 THRORTH =  1.00D-08  GRID    =  1.00D-06  GRIDMAX =  1.00D-03  DTMAX   =  0.00D+00  THROCCDE=  1.00D-01  THROCCDE=  1.00D-01



 THRESHOLDS:

 ZERO    =  1.00D-22  ONEINT  =  1.00D-22  TWOINT  =  1.00D-22  PREFAC  =  1.00D-14  LOCALI  =  1.00D-09  EORDER  =  1.00D-04
 ENERGY  =  1.00D-12  ETEST   =  0.00D+00  EDENS   =  0.00D+00  THRDEDEF=  1.00D-06  GRADIENT=  1.00D-02  STEP    =  1.00D-03
 ORBITAL =  1.00D-05  CIVEC   =  1.00D-05  COEFF   =  1.00D-04  PRINTCI =  5.00D-02  PUNCHCI =  9.90D+01  OPTGRAD =  1.00D-08
 OPTENERG=  1.00D-06  OPTSTEP =  1.00D-08  THRGRAD =  1.00D-10  COMPRESS=  1.00D-11  VARMIN  =  1.00D-07  VARMAX  =  1.00D-03
 THRDOUB =  0.00D+00  THRDIV  =  1.00D-05  THRRED  =  1.00D-07  THRPSP  =  1.00D+00  THRDC   =  1.00D-10  THRCS   =  1.00D-10
 THRNRM  =  1.00D-08  THREQ   =  0.00D+00  THRDE   =  1.00D+00  THRREF  =  1.00D-05  SPARFAC =  1.00D+00  THRDLP  =  1.00D-07
 THRDIA  =  1.00D-10  THRDLS  =  1.00D-07  THRGPS  =  0.00D+00  THRKEX  =  0.00D+00  THRDIS  =  2.00D-01  THRVAR  =  1.00D-10
 THRLOC  =  1.00D-06  THRGAP  =  1.00D-06  THRLOCT = -1.00D+00  THRGAPT = -1.00D+00  THRORB  =  1.00D-06  THRMLTP =  0.00D+00
 THRCPQCI=  1.00D-10  KEXTA   =  0.00D+00  THRCOARS=  0.00D+00  SYMTOL  =  1.00D-06  GRADTOL =  1.00D-06  THROVL  =  1.00D-08
 THRORTH =  1.00D-08  GRID    =  1.00D-06  GRIDMAX =  1.00D-03  DTMAX   =  0.00D+00  THROCCDE=  1.00D-01  THROCCDE=  1.00D-01



 Input parameters for SORTINT:

 COMPRESS =    0.000000
 C_FINAL  =    1.000000
 DEBUG    =   -1.000000
 C_SORT1  =    0.000000
 C_SEWARD =    0.000000
 THRESH   =    0.000000
 IO       =  molpro                                                          
 SPRI     =    0.000000
 SETTING GEOMTYP        =    XYZ
 ZUNIT=BOHR
 

 Variable memory set to  995000000 words,  buffer space   230000 words

 SETTING BASIS          =    AV5Z


 Recomputing integrals since basis changed


 Using spherical harmonics

 Library entry N      S aug-cc-pV5Z          selected for orbital group  1
 Library entry N      P aug-cc-pV5Z          selected for orbital group  1
 Library entry N      D aug-cc-pV5Z          selected for orbital group  1
 Library entry N      F aug-cc-pV5Z          selected for orbital group  1
 Library entry N      G aug-cc-pV5Z          selected for orbital group  1
 Library entry N      H aug-cc-pV5Z          selected for orbital group  1
 Library entry H      S aug-cc-pV5Z          selected for orbital group  2
 Library entry H      P aug-cc-pV5Z          selected for orbital group  2
 Library entry H      D aug-cc-pV5Z          selected for orbital group  2
 Library entry H      F aug-cc-pV5Z          selected for orbital group  2
 Library entry H      G aug-cc-pV5Z          selected for orbital group  2
 Library entry O      S aug-cc-pV5Z          selected for orbital group  3
 Library entry O      P aug-cc-pV5Z          selected for orbital group  3
 Library entry O      D aug-cc-pV5Z          selected for orbital group  3
 Library entry O      F aug-cc-pV5Z          selected for orbital group  3
 Library entry O      G aug-cc-pV5Z          selected for orbital group  3
 Library entry O      H aug-cc-pV5Z          selected for orbital group  3


 PROGRAM * SEWARD (Integral evaluation for generally contracted gaussian basis sets)     Author: Roland Lindh, 1990

 Geometry written to block  1 of record 700


 Point group  Cs  



 ATOMIC COORDINATES

 NR  ATOM    CHARGE       X              Y              Z

   1  N       7.00    0.000000000   -0.164538801   -1.163909782
   2  H       1.00    0.000000000    1.669441294   -1.931298231
   3  O       8.00    0.000000000    0.036865297    1.144618421

 Bond lengths in Bohr (Angstrom)

 1-2  1.988056342  1-3  2.317297149
     ( 1.052034110)     ( 1.226260842)

 Bond angles

  2-1-3  107.71973492

 NUCLEAR CHARGE:                   16
 NUMBER OF PRIMITIVE AOS:         506
 NUMBER OF SYMMETRY AOS:          371
 NUMBER OF CONTRACTIONS:          334   ( 204A'  + 130A"  )
 NUMBER OF CORE ORBITALS:           2   (   2A'  +   0A"  )
 NUMBER OF VALENCE ORBITALS:        9   (   7A'  +   2A"  )


 NUCLEAR REPULSION ENERGY   29.98442963


 Eigenvalues of metric

         1 0.116E-04 0.181E-04 0.646E-04 0.105E-03 0.111E-03 0.143E-03 0.204E-03 0.225E-03
         2 0.134E-03 0.366E-03 0.119E-02 0.171E-02 0.197E-02 0.269E-02 0.331E-02 0.397E-02


 Contracted 2-electron integrals neglected if value below      1.0D-22

      756970253. INTEGRALS WRITTEN OUT IN  184853 BLOCKS ON RECORD 1290 OF FILE 1


 NUMBER OF SORTED TWO-ELECTRON INTEGRALS:  789027325.     BUFFER LENGTH:  32768
 NUMBER OF SEGMENTS:  25  SEGMENT LENGTH:   31997130      RECORD LENGTH: 524288

 Memory used in sort:      32.55 MW

 SORT1 READ   756970253. AND WROTE   760986147. INTEGRALS IN   2189 RECORDS. CPU TIME:    21.62 SEC, REAL TIME:    56.05 SEC
 SORT2 READ   760986147. AND WROTE   789027325. INTEGRALS IN     25 RECORDS. CPU TIME:    11.58 SEC, REAL TIME:    46.93 SEC

 FILE SIZES:   FILE 1: 12137.4 MBYTE,  FILE 4:  9181.4 MBYTE,   TOTAL:  21318.7 MBYTE

 OPERATOR DM      FOR CENTER  0  COORDINATES:    0.000000    0.000000    0.000000


 **********************************************************************************************************************************
 DATASETS  * FILE   NREC   LENGTH (MB)   RECORD NAMES
              1      19     6374.17       500      610      700      900      950      970     1000      129      960     1100   
                                          VAR    BASINP    GEOM    SYMINP    ZMAT    AOBASIS   BASIS     P2S    ABASIS      S 
                                         1400     1410     1200     1210     1080     1600     1650     1300     1700   
                                           T        V       H0       H01     AOSYM     SMH    MOLCAS    ERIS     OPER   

 PROGRAMS   *        TOTAL       INT
 CPU TIMES  *       133.01    132.91
 REAL TIME  *       211.85 SEC
 DISK USED  *        21.32 GB      
 **********************************************************************************************************************************


 PROGRAM * RHF-SCF (CLOSED SHELL)       Authors: W. Meyer, H.-J. Werner


 NUMBER OF ELECTRONS:       8+    8-
 CONVERGENCE THRESHOLDS:    1.00E-10 (Density)    1.00E-13 (Energy)
 MAX. NUMBER OF ITERATIONS:      500
 INTERPOLATION TYPE:            DIIS
 INTERPOLATION STEPS:              2 (START)      1 (STEP)
 LEVEL SHIFTS:                  0.00 (CLOSED)  0.00 (OPEN) 



 Orbital guess generated from atomic densities. Full valence occupancy:    9   2

 Molecular orbital dump at record        2100.2

 Initial occupancy:   7   1

 ITERATION    DDIFF          GRAD             ENERGY        2-EL.EN.            DIPOLE MOMENTS         DIIS   ORB.
    1      0.000D+00      0.000D+00      -129.79269653    153.292023    0.00000    0.59882   -1.08774    0    start
    2      0.000D+00      0.655D-02      -129.81918751    154.470597    0.00000    0.62207   -0.19461    1    diag
    3      0.417D-02      0.521D-02      -129.84553903    154.641258    0.00000    0.56287   -0.61959    2    diag
    4      0.218D-02      0.785D-03      -129.84638502    154.342526    0.00000    0.57003   -0.55496    3    diag
    5      0.387D-03      0.256D-03      -129.84651884    154.437921    0.00000    0.57524   -0.55710    4    diag
    6      0.161D-03      0.743D-04      -129.84654039    154.421321    0.00000    0.57542   -0.55253    5    diag
    7      0.622D-04      0.376D-04      -129.84654696    154.423942    0.00000    0.57660   -0.54964    6    diag
    8      0.432D-04      0.140D-04      -129.84654784    154.423156    0.00000    0.57663   -0.54845    7    diag
    9      0.183D-04      0.277D-05      -129.84654788    154.423028    0.00000    0.57659   -0.54819    8    diag
   10      0.386D-05      0.599D-06      -129.84654788    154.423009    0.00000    0.57656   -0.54816    9    orth
   11      0.683D-06      0.118D-06      -129.84654788    154.423005    0.00000    0.57655   -0.54816    9    diag
   12      0.121D-06      0.251D-07      -129.84654788    154.423005    0.00000    0.57655   -0.54816    9    diag
   13      0.263D-07      0.694D-08      -129.84654788    154.423005    0.00000    0.57655   -0.54816    9    diag
   14      0.762D-08      0.135D-08      -129.84654788    154.423005    0.00000    0.57655   -0.54816    9    diag
   15      0.138D-08      0.382D-09      -129.84654788    154.423005    0.00000    0.57655   -0.54816    9    diag
   16      0.424D-09      0.112D-09      -129.84654788    154.423005    0.00000    0.57655   -0.54816    9    diag
   17      0.781D-10      0.288D-10      -129.84654788    154.423005    0.00000    0.57655   -0.54816    9    diag
   18      0.373D-10      0.983D-11      -129.84654788    154.423005    0.00000    0.57655   -0.54816    9    diag
   19      0.308D-10      0.247D-11      -129.84654788    154.423005    0.00000    0.57655   -0.54816    9    fixocc
   20      0.196D-10      0.754D-12      -129.84654788    154.423005    0.00000    0.57655   -0.54816    9    orth
   21      0.146D-10      0.409D-12      -129.84654788    154.423005    0.00000    0.57655   -0.54816    9    diag
   22      0.605D-11      0.325D-12      -129.84654788    154.423005    0.00000    0.57655   -0.54816    9    diag
   23      0.390D-11      0.267D-12      -129.84654788    154.423005    0.00000    0.57655   -0.54816    0    orth

 Final occupancy:   7   1

 !RHF STATE 1.1 Energy               -129.846547880345
 Nuclear energy                        29.98442963
 One-electron energy                 -237.04248013
 Two-electron energy                   77.21150262
 Virial quotient                       -1.00221202
 !RHF STATE 1.1 Dipole moment           0.00000000     0.57654948    -0.54815841
 Dipole moment /Debye                   0.00000000     1.46534664    -1.39318846

 Orbital energies:

         1.1          2.1          3.1          4.1          5.1          6.1          7.1          8.1          9.1
    -20.654564   -15.715411    -1.514852    -0.998370    -0.741708    -0.660841    -0.436396     0.022680     0.065522

         1.2          2.2          3.2
     -0.587595     0.056338     0.090192

 HOMO      7.1    -0.436396 =     -11.8750eV
 LUMO      8.1     0.022680 =       0.6172eV
 LUMO-HOMO         0.459077 =      12.4921eV


 **********************************************************************************************************************************
 DATASETS  * FILE   NREC   LENGTH (MB)   RECORD NAMES
              1      19     6374.17       500      610      700      900      950      970     1000      129      960     1100   
                                          VAR    BASINP    GEOM    SYMINP    ZMAT    AOBASIS   BASIS     P2S    ABASIS      S 
                                         1400     1410     1200     1210     1080     1600     1650     1300     1700   
                                           T        V       H0       H01     AOSYM     SMH    MOLCAS    ERIS     OPER   

              2       4        4.02       700     1000      520     2100   
                                         GEOM     BASIS   MCVARS     RHF  

 PROGRAMS   *        TOTAL        HF       INT
 CPU TIMES  *       237.41    104.39    132.91
 REAL TIME  *       336.77 SEC
 DISK USED  *        21.32 GB      
 **********************************************************************************************************************************


 PROGRAM * CCSD (Closed-shell coupled cluster)     Authors: C. Hampel, H.-J. Werner, 1991, M. Deegan, P.J. Knowles, 1992


 Convergence thresholds:  THRVAR = 1.00D-08  THRDEN = 1.00D-12

 CCSD(T)     terms to be evaluated (factor= 1.000)


 Number of core orbitals:           2 (   2   0 )
 Number of closed-shell orbitals:   6 (   5   1 )
 Number of external orbitals:     326 ( 197 129 )

 Molecular orbitals read from record     2100.2  Type=RHF/CANONICAL (state 1.1)

 Number of N-1 electron functions:               6
 Number of N-2 electron functions:              21
 Number of singly external CSFs:              1114
 Number of doubly external CSFs:            975958
 Total number of CSFs:                      977073

 Length of J-op  integral file:               0.00 MB
 Length of K-op  integral file:               4.07 MB
 Length of 3-ext integral record:             0.00 MB

 Memory could be reduced to 151.33 Mwords without degradation in triples

 Integral transformation finished. Total CPU:  14.68 sec, npass=  1  Memory used:  41.21 MW

 Reference energy:                   -129.84654788

 MP2 singlet pair energy:              -0.31304855
 MP2 triplet pair energy:              -0.17328327
 MP2 correlation energy:               -0.48633182
 MP2 total energy:                   -130.33287970

 SCS-MP2 correlation energy:           -0.48347896   (PS=  1.200000  PT=  0.333333)
 SCS-MP2 total energy:               -130.33002684

 ITER.      SQ.NORM     CORR.ENERGY   TOTAL ENERGY   ENERGY CHANGE        DEN1      VAR(S)    VAR(P)  DIIS     TIME  TIME/IT
   1      1.12254540    -0.48257124  -130.32911912     0.00376058     0.02125257  0.34D-02  0.34D-02  1  1    27.44    13.54
   2      1.13364540    -0.48228857  -130.32883645     0.00028267    -0.01317162  0.12D-03  0.51D-03  2  2    40.00    13.51
   3      1.14014689    -0.48269742  -130.32924530    -0.00040885    -0.00310732  0.53D-04  0.61D-04  3  3    52.98    13.63
   4      1.14315431    -0.48269637  -130.32924425     0.00000105    -0.00102563  0.52D-05  0.11D-04  4  4    65.99    13.70
   5      1.14441500    -0.48272901  -130.32927690    -0.00003264    -0.00027805  0.13D-05  0.17D-05  5  5    78.99    13.75
   6      1.14480434    -0.48271548  -130.32926336     0.00001354    -0.00005575  0.13D-06  0.40D-06  6  6    91.98    13.78
   7      1.14488095    -0.48271524  -130.32926312     0.00000024     0.00000441  0.17D-07  0.96D-07  6  1   105.03    13.80
   8      1.14490705    -0.48271504  -130.32926292     0.00000019    -0.00000338  0.32D-08  0.21D-07  6  2   118.03    13.82
   9      1.14491207    -0.48271460  -130.32926248     0.00000044     0.00000147  0.25D-08  0.27D-08  6  4   131.00    13.83
  10      1.14491489    -0.48271494  -130.32926282    -0.00000033    -0.00000091  0.55D-09  0.33D-09  6  3   144.03    13.85
  11      1.14491477    -0.48271503  -130.32926291    -0.00000009    -0.00000014  0.18D-09  0.46D-10  6  5   157.13    13.86
  12      1.14491376    -0.48271518  -130.32926306    -0.00000015     0.00000041  0.23D-10  0.13D-10  6  6   170.17    13.87
  13      1.14491282    -0.48271523  -130.32926311    -0.00000005     0.00000023  0.64D-11  0.29D-11  6  1   183.14    13.88
  14      1.14491204    -0.48271527  -130.32926315    -0.00000004     0.00000019  0.37D-12  0.59D-12  6  4   196.20    13.89
  15      1.14491181    -0.48271527  -130.32926316    -0.00000001     0.00000004  0.86D-13  0.51D-13  6  2   209.23    13.90
  16      1.14491175    -0.48271528  -130.32926316    -0.00000000     0.00000001  0.24D-13  0.88D-14  6  3   222.33    13.91
  17      1.14491172    -0.48271528  -130.32926316    -0.00000000     0.00000001  0.48D-14  0.13D-14  6  5   235.40    13.92
  18      1.14491171    -0.48271528  -130.32926316    -0.00000000     0.00000000  0.10D-14  0.31D-15  6  6   248.55    13.93
  19      1.14491171    -0.48271528  -130.32926316    -0.00000000     0.00000000  0.15D-15  0.60D-16  6  1   261.63    13.94
  20      1.14491171    -0.48271528  -130.32926316     0.00000000    -0.00000000  0.16D-16  0.90D-17  6  4   274.70    13.95
  21      1.14491171    -0.48271528  -130.32926316     0.00000000    -0.00000000  0.13D-17  0.12D-17  6  3   287.84    13.96
  22      1.14491171    -0.48271528  -130.32926316     0.00000000    -0.00000000  0.35D-18  0.23D-18  6  2   300.96    13.97
  23      1.14491171    -0.48271528  -130.32926316     0.00000000    -0.00000000  0.10D-18  0.99D-19  6  5   313.90    13.97
  24      1.14491171    -0.48271528  -130.32926316     0.00000000    -0.00000000  0.39D-19  0.55D-19  6  6   326.77    13.97
  25      1.14491171    -0.48271528  -130.32926316    -0.00000000     0.00000000  0.20D-19  0.34D-19  6  1   339.65    13.96

 Norm of t1 vector:      0.07926410      S-energy:     0.00000000      T1 diagnostic:  0.01617972
                                                                       D1 diagnostic:  0.04461700

 Doubles amplitudes (print threshold =  0.500E-01):

         I         J         SYM. A    SYM. B    A         B      T(IJ, AB)

         6         6         2         2         1         1     -0.09274671
         6         6         2         2         1         2      0.05225201
         6         6         2         2         2         1      0.05225201


 Total CPU time for triples:    138.96 sec


 RESULTS
 =======

  Reference energy                   -129.846547880345
  CCSD singlet pair energy             -0.335234318302
  CCSD triplet pair energy             -0.147480959663
  CCSD correlation energy              -0.482715277964

  Triples (T) contribution             -0.023510626925
  Total correlation energy             -0.506225904889

  CCSD total energy                  -130.329263158309
  CCSD[T] energy                     -130.353934122569
  CCSD-T energy                      -130.352375577123
 !CCSD(T) total energy               -130.352773785234

 Timing summary (sec):

 STEP                 CPU(USER)    SYS     CPU(TOT)    WALL
 Transformation         14.77      1.37     16.14     16.14
 CCSD iterations       324.90     24.18    349.08    349.12
 Triples               138.96      1.75    140.71    140.74

 Program statistics:

 Available memory in ccsd:               994999756
 Min. memory needed in ccsd:               3348832
 Max. memory used in ccsd:                 4143652
 Max. memory used in cckext:               8340089 (25 integral passes)



 **********************************************************************************************************************************
 DATASETS  * FILE   NREC   LENGTH (MB)   RECORD NAMES
              1      20     6809.36       500      610      700      900      950      970     1000      129      960     1100   
                                          VAR    BASINP    GEOM    SYMINP    ZMAT    AOBASIS   BASIS     P2S    ABASIS      S 
                                         1400     1410     1200     1210     1080     1600     1650     1300     1700     1380   
                                           T        V       H0       H01     AOSYM     SMH    MOLCAS    ERIS     OPER     JKOP   

              2       4        4.02       700     1000      520     2100   
                                         GEOM     BASIS   MCVARS     RHF  

 PROGRAMS   *        TOTAL   CCSD(T)        HF       INT
 CPU TIMES  *       716.07    478.66    104.39    132.91
 REAL TIME  *       842.81 SEC
 DISK USED  *        21.32 GB      
 **********************************************************************************************************************************

 CCSD(T)/aug-cc-pV5Z energy=   -130.352773785234

        CCSD(T)         HF-SCF  
   -130.35277379   -129.84654788
 **********************************************************************************************************************************
 Molpro calculation terminated
 Variable memory released
