
 Primary working directories    : /tmp/r2666/234743.maple
 Secondary working directories  : /tmp/r2666/234743.maple
 Wavefunction directory         : /ddn/home4/r2666/wfu/
 Main file repository           : /tmp/r2666/234743.maple/

 SHA1      : d5ffa45e93fdbca01ffc919aa182cfdae0147319
 NAME      : 2015.1.35
 ARCHNAME  : linux/x86_64
 FC        : /opt/intel/composer_xe_2015.1.133/bin/intel64/ifort
 BLASLIB   : -Wl,-_start-group /opt/intel/mkl/lib/intel64/libmkl_intel_ilp64.a /opt/intel/mkl/lib/intel64/libmkl_intel_thread.a /opt/intel/mkl/lib/intel64/libmkl_core.a -Wl,-_end-group
 id        : olemiss

 Nodes     nprocs
 cn075        1

 Using customized tuning parameters: mindgm=1; mindgv=20; mindgc=4; mindgr=1; noblas=0; minvec=7
 default implementation of scratch files=df  

 ***,hno CCSD(T)/TZ-F12 QFF
 memory, 995, m;
 gthresh,energy=1.d-12,zero=1.d-22,oneint=1.d-22,twoint=1.d-22;
 gthresh,optgrad=1.d-8,optstep=1.d-8;
 nocompress;
 geomtyp=xyz
 bohr
 geometry={
 3
        115       115
 N        0.0000000000       -0.1659220968       -1.1326108582
 H        0.0000000000        1.6740190126       -1.9341590317
 O        0.0000000000        0.0336708741        1.1161802988
 }
 
 basis=av5z
   {hf,maxit=500;accu,20;}
 {ccsd(t),nocheck,maxit=250;orbital,IGNORE_ERROR;}

 Variables initialized (889), CPU time= 0.01 sec
 Commands  initialized (702), CPU time= 0.01 sec, 572 directives.
 Default parameters read. Elapsed time= 0.05 sec

 Checking input...
 Passed
1


                                         ***  PROGRAM SYSTEM MOLPRO  ***
                                       Copyright, TTI GmbH Stuttgart, 2015
                                    Version 2015.1 linked Jul  9 2018 13:16:40


 **********************************************************************************************************************************
 LABEL *   hno CCSD(T)/TZ-F12 QFF                                                        
  64 bit serial version                                                                  DATE: 08-Feb-20          TIME: 17:42:17  
 **********************************************************************************************************************************

 SHA1:             d5ffa45e93fdbca01ffc919aa182cfdae0147319
 **********************************************************************************************************************************

 THRESHOLDS:

 ZERO    =  1.00D-22  ONEINT  =  1.00D-22  TWOINT  =  1.00D-22  PREFAC  =  1.00D-14  LOCALI  =  1.00D-09  EORDER  =  1.00D-04
 ENERGY  =  1.00D-12  ETEST   =  0.00D+00  EDENS   =  0.00D+00  THRDEDEF=  1.00D-06  GRADIENT=  1.00D-02  STEP    =  1.00D-03
 ORBITAL =  1.00D-05  CIVEC   =  1.00D-05  COEFF   =  1.00D-04  PRINTCI =  5.00D-02  PUNCHCI =  9.90D+01  OPTGRAD =  3.00D-04
 OPTENERG=  1.00D-06  OPTSTEP =  3.00D-04  THRGRAD =  1.00D-10  COMPRESS=  1.00D-11  VARMIN  =  1.00D-07  VARMAX  =  1.00D-03
 THRDOUB =  0.00D+00  THRDIV  =  1.00D-05  THRRED  =  1.00D-07  THRPSP  =  1.00D+00  THRDC   =  1.00D-10  THRCS   =  1.00D-10
 THRNRM  =  1.00D-08  THREQ   =  0.00D+00  THRDE   =  1.00D+00  THRREF  =  1.00D-05  SPARFAC =  1.00D+00  THRDLP  =  1.00D-07
 THRDIA  =  1.00D-10  THRDLS  =  1.00D-07  THRGPS  =  0.00D+00  THRKEX  =  0.00D+00  THRDIS  =  2.00D-01  THRVAR  =  1.00D-10
 THRLOC  =  1.00D-06  THRGAP  =  1.00D-06  THRLOCT = -1.00D+00  THRGAPT = -1.00D+00  THRORB  =  1.00D-06  THRMLTP =  0.00D+00
 THRCPQCI=  1.00D-10  KEXTA   =  0.00D+00  THRCOARS=  0.00D+00  SYMTOL  =  1.00D-06  GRADTOL =  1.00D-06  THROVL  =  1.00D-08
 THRORTH =  1.00D-08  GRID    =  1.00D-06  GRIDMAX =  1.00D-03  DTMAX   =  0.00D+00  THROCCDE=  1.00D-01  THROCCDE=  1.00D-01



 THRESHOLDS:

 ZERO    =  1.00D-22  ONEINT  =  1.00D-22  TWOINT  =  1.00D-22  PREFAC  =  1.00D-14  LOCALI  =  1.00D-09  EORDER  =  1.00D-04
 ENERGY  =  1.00D-12  ETEST   =  0.00D+00  EDENS   =  0.00D+00  THRDEDEF=  1.00D-06  GRADIENT=  1.00D-02  STEP    =  1.00D-03
 ORBITAL =  1.00D-05  CIVEC   =  1.00D-05  COEFF   =  1.00D-04  PRINTCI =  5.00D-02  PUNCHCI =  9.90D+01  OPTGRAD =  1.00D-08
 OPTENERG=  1.00D-06  OPTSTEP =  1.00D-08  THRGRAD =  1.00D-10  COMPRESS=  1.00D-11  VARMIN  =  1.00D-07  VARMAX  =  1.00D-03
 THRDOUB =  0.00D+00  THRDIV  =  1.00D-05  THRRED  =  1.00D-07  THRPSP  =  1.00D+00  THRDC   =  1.00D-10  THRCS   =  1.00D-10
 THRNRM  =  1.00D-08  THREQ   =  0.00D+00  THRDE   =  1.00D+00  THRREF  =  1.00D-05  SPARFAC =  1.00D+00  THRDLP  =  1.00D-07
 THRDIA  =  1.00D-10  THRDLS  =  1.00D-07  THRGPS  =  0.00D+00  THRKEX  =  0.00D+00  THRDIS  =  2.00D-01  THRVAR  =  1.00D-10
 THRLOC  =  1.00D-06  THRGAP  =  1.00D-06  THRLOCT = -1.00D+00  THRGAPT = -1.00D+00  THRORB  =  1.00D-06  THRMLTP =  0.00D+00
 THRCPQCI=  1.00D-10  KEXTA   =  0.00D+00  THRCOARS=  0.00D+00  SYMTOL  =  1.00D-06  GRADTOL =  1.00D-06  THROVL  =  1.00D-08
 THRORTH =  1.00D-08  GRID    =  1.00D-06  GRIDMAX =  1.00D-03  DTMAX   =  0.00D+00  THROCCDE=  1.00D-01  THROCCDE=  1.00D-01



 Input parameters for SORTINT:

 COMPRESS =    0.000000
 C_FINAL  =    1.000000
 DEBUG    =   -1.000000
 C_SORT1  =    0.000000
 C_SEWARD =    0.000000
 THRESH   =    0.000000
 IO       =  molpro                                                          
 SPRI     =    0.000000
 SETTING GEOMTYP        =    XYZ
 ZUNIT=BOHR
 

 Variable memory set to  995000000 words,  buffer space   230000 words

 SETTING BASIS          =    AV5Z


 Recomputing integrals since basis changed


 Using spherical harmonics

 Library entry N      S aug-cc-pV5Z          selected for orbital group  1
 Library entry N      P aug-cc-pV5Z          selected for orbital group  1
 Library entry N      D aug-cc-pV5Z          selected for orbital group  1
 Library entry N      F aug-cc-pV5Z          selected for orbital group  1
 Library entry N      G aug-cc-pV5Z          selected for orbital group  1
 Library entry N      H aug-cc-pV5Z          selected for orbital group  1
 Library entry H      S aug-cc-pV5Z          selected for orbital group  2
 Library entry H      P aug-cc-pV5Z          selected for orbital group  2
 Library entry H      D aug-cc-pV5Z          selected for orbital group  2
 Library entry H      F aug-cc-pV5Z          selected for orbital group  2
 Library entry H      G aug-cc-pV5Z          selected for orbital group  2
 Library entry O      S aug-cc-pV5Z          selected for orbital group  3
 Library entry O      P aug-cc-pV5Z          selected for orbital group  3
 Library entry O      D aug-cc-pV5Z          selected for orbital group  3
 Library entry O      F aug-cc-pV5Z          selected for orbital group  3
 Library entry O      G aug-cc-pV5Z          selected for orbital group  3
 Library entry O      H aug-cc-pV5Z          selected for orbital group  3


 PROGRAM * SEWARD (Integral evaluation for generally contracted gaussian basis sets)     Author: Roland Lindh, 1990

 Geometry written to block  1 of record 700


 Point group  Cs  



 ATOMIC COORDINATES

 NR  ATOM    CHARGE       X              Y              Z

   1  N       7.00    0.000000000   -0.165922097   -1.132610858
   2  H       1.00    0.000000000    1.674019013   -1.934159032
   3  O       8.00    0.000000000    0.033670874    1.116180299

 Bond lengths in Bohr (Angstrom)

 1-2  2.006953602  1-3  2.257631286
     ( 1.062034110)     ( 1.194687027)

 Bond angles

  2-1-3  108.46773406

 NUCLEAR CHARGE:                   16
 NUMBER OF PRIMITIVE AOS:         506
 NUMBER OF SYMMETRY AOS:          371
 NUMBER OF CONTRACTIONS:          334   ( 204A'  + 130A"  )
 NUMBER OF CORE ORBITALS:           2   (   2A'  +   0A"  )
 NUMBER OF VALENCE ORBITALS:        9   (   7A'  +   2A"  )


 NUCLEAR REPULSION ENERGY   30.60248469


 Eigenvalues of metric

         1 0.112E-04 0.169E-04 0.641E-04 0.967E-04 0.101E-03 0.133E-03 0.198E-03 0.224E-03
         2 0.122E-03 0.375E-03 0.108E-02 0.149E-02 0.199E-02 0.244E-02 0.334E-02 0.386E-02


 Contracted 2-electron integrals neglected if value below      1.0D-22

      756977566. INTEGRALS WRITTEN OUT IN  184855 BLOCKS ON RECORD 1290 OF FILE 1


 NUMBER OF SORTED TWO-ELECTRON INTEGRALS:  789027325.     BUFFER LENGTH:  32768
 NUMBER OF SEGMENTS:  25  SEGMENT LENGTH:   31997130      RECORD LENGTH: 524288

 Memory used in sort:      32.55 MW

 SORT1 READ   756977566. AND WROTE   760993450. INTEGRALS IN   2189 RECORDS. CPU TIME:    12.82 SEC, REAL TIME:    17.47 SEC
 SORT2 READ   760993450. AND WROTE   789027325. INTEGRALS IN     25 RECORDS. CPU TIME:     7.80 SEC, REAL TIME:    11.05 SEC

 FILE SIZES:   FILE 1: 12137.5 MBYTE,  FILE 4:  9181.4 MBYTE,   TOTAL:  21318.9 MBYTE

 OPERATOR DM      FOR CENTER  0  COORDINATES:    0.000000    0.000000    0.000000


 **********************************************************************************************************************************
 DATASETS  * FILE   NREC   LENGTH (MB)   RECORD NAMES
              1      19     6374.22       500      610      700      900      950      970     1000      129      960     1100   
                                          VAR    BASINP    GEOM    SYMINP    ZMAT    AOBASIS   BASIS     P2S    ABASIS      S 
                                         1400     1410     1200     1210     1080     1600     1650     1300     1700   
                                           T        V       H0       H01     AOSYM     SMH    MOLCAS    ERIS     OPER   

 PROGRAMS   *        TOTAL       INT
 CPU TIMES  *       104.65    104.54
 REAL TIME  *       118.98 SEC
 DISK USED  *        21.32 GB      
 **********************************************************************************************************************************


 PROGRAM * RHF-SCF (CLOSED SHELL)       Authors: W. Meyer, H.-J. Werner


 NUMBER OF ELECTRONS:       8+    8-
 CONVERGENCE THRESHOLDS:    1.00E-10 (Density)    1.00E-13 (Energy)
 MAX. NUMBER OF ITERATIONS:      500
 INTERPOLATION TYPE:            DIIS
 INTERPOLATION STEPS:              2 (START)      1 (STEP)
 LEVEL SHIFTS:                  0.00 (CLOSED)  0.00 (OPEN) 



 Orbital guess generated from atomic densities. Full valence occupancy:    9   2

 Molecular orbital dump at record        2100.2

 Initial occupancy:   7   1

 ITERATION    DDIFF          GRAD             ENERGY        2-EL.EN.            DIPOLE MOMENTS         DIIS   ORB.
    1      0.000D+00      0.000D+00      -129.80123956    154.386968    0.00000    0.58488   -0.98743    0    start
    2      0.000D+00      0.635D-02      -129.82880406    155.645773    0.00000    0.60052   -0.20950    1    diag
    3      0.392D-02      0.472D-02      -129.85008772    155.740238    0.00000    0.54752   -0.57374    2    diag
    4      0.201D-02      0.756D-03      -129.85086588    155.464503    0.00000    0.55499   -0.51434    3    diag
    5      0.372D-03      0.245D-03      -129.85098834    155.557901    0.00000    0.56040   -0.51717    4    diag
    6      0.154D-03      0.714D-04      -129.85100797    155.541640    0.00000    0.56074   -0.51318    5    diag
    7      0.592D-04      0.350D-04      -129.85101349    155.544610    0.00000    0.56204   -0.51075    6    diag
    8      0.401D-04      0.119D-04      -129.85101406    155.543943    0.00000    0.56210   -0.50982    7    diag
    9      0.145D-04      0.227D-05      -129.85101409    155.543838    0.00000    0.56207   -0.50961    8    diag
   10      0.286D-05      0.527D-06      -129.85101409    155.543819    0.00000    0.56203   -0.50958    9    orth
   11      0.596D-06      0.109D-06      -129.85101409    155.543815    0.00000    0.56202   -0.50958    9    diag
   12      0.117D-06      0.218D-07      -129.85101409    155.543814    0.00000    0.56202   -0.50958    9    diag
   13      0.256D-07      0.563D-08      -129.85101409    155.543814    0.00000    0.56202   -0.50958    9    diag
   14      0.675D-08      0.113D-08      -129.85101409    155.543814    0.00000    0.56202   -0.50958    9    diag
   15      0.126D-08      0.332D-09      -129.85101409    155.543814    0.00000    0.56202   -0.50958    9    diag
   16      0.377D-09      0.103D-09      -129.85101409    155.543814    0.00000    0.56202   -0.50958    9    diag
   17      0.786D-10      0.289D-10      -129.85101409    155.543814    0.00000    0.56202   -0.50958    9    diag
   18      0.250D-10      0.981D-11      -129.85101409    155.543814    0.00000    0.56202   -0.50958    9    diag
   19      0.258D-10      0.247D-11      -129.85101409    155.543814    0.00000    0.56202   -0.50958    9    fixocc
   20      0.141D-10      0.729D-12      -129.85101409    155.543814    0.00000    0.56202   -0.50958    9    orth
   21      0.162D-10      0.424D-12      -129.85101409    155.543814    0.00000    0.56202   -0.50958    9    diag
   22      0.868D-11      0.389D-12      -129.85101409    155.543814    0.00000    0.56202   -0.50958    9    diag
   23      0.711D-11      0.268D-12      -129.85101409    155.543814    0.00000    0.56202   -0.50958    9    diag
   24      0.214D-11      0.202D-12      -129.85101409    155.543814    0.00000    0.56202   -0.50958    9    diag
   25      0.220D-11      0.260D-12      -129.85101409    155.543814    0.00000    0.56202   -0.50958    0    orth

 Final occupancy:   7   1

 !RHF STATE 1.1 Energy               -129.851014088454
 Nuclear energy                        30.60248469
 One-electron energy                 -238.22540590
 Two-electron energy                   77.77190712
 Virial quotient                       -1.00141708
 !RHF STATE 1.1 Dipole moment           0.00000000     0.56202157    -0.50957620
 Dipole moment /Debye                   0.00000000     1.42842279    -1.29512869

 Orbital energies:

         1.1          2.1          3.1          4.1          5.1          6.1          7.1          8.1          9.1
    -20.651978   -15.711218    -1.540112    -0.988982    -0.750206    -0.670036    -0.425663     0.022989     0.065562

         1.2          2.2          3.2
     -0.602602     0.062714     0.092986

 HOMO      7.1    -0.425663 =     -11.5829eV
 LUMO      8.1     0.022989 =       0.6256eV
 LUMO-HOMO         0.448651 =      12.2084eV


 **********************************************************************************************************************************
 DATASETS  * FILE   NREC   LENGTH (MB)   RECORD NAMES
              1      19     6374.22       500      610      700      900      950      970     1000      129      960     1100   
                                          VAR    BASINP    GEOM    SYMINP    ZMAT    AOBASIS   BASIS     P2S    ABASIS      S 
                                         1400     1410     1200     1210     1080     1600     1650     1300     1700   
                                           T        V       H0       H01     AOSYM     SMH    MOLCAS    ERIS     OPER   

              2       4        4.02       700     1000      520     2100   
                                         GEOM     BASIS   MCVARS     RHF  

 PROGRAMS   *        TOTAL        HF       INT
 CPU TIMES  *       183.64     78.99    104.54
 REAL TIME  *       219.76 SEC
 DISK USED  *        21.32 GB      
 **********************************************************************************************************************************


 PROGRAM * CCSD (Closed-shell coupled cluster)     Authors: C. Hampel, H.-J. Werner, 1991, M. Deegan, P.J. Knowles, 1992


 Convergence thresholds:  THRVAR = 1.00D-08  THRDEN = 1.00D-12

 CCSD(T)     terms to be evaluated (factor= 1.000)


 Number of core orbitals:           2 (   2   0 )
 Number of closed-shell orbitals:   6 (   5   1 )
 Number of external orbitals:     326 ( 197 129 )

 Molecular orbitals read from record     2100.2  Type=RHF/CANONICAL (state 1.1)

 Number of N-1 electron functions:               6
 Number of N-2 electron functions:              21
 Number of singly external CSFs:              1114
 Number of doubly external CSFs:            975958
 Total number of CSFs:                      977073

 Length of J-op  integral file:               0.00 MB
 Length of K-op  integral file:               4.07 MB
 Length of 3-ext integral record:             0.00 MB

 Memory could be reduced to 151.33 Mwords without degradation in triples

 Integral transformation finished. Total CPU:  10.00 sec, npass=  1  Memory used:  41.21 MW

 Reference energy:                   -129.85101409

 MP2 singlet pair energy:              -0.31006595
 MP2 triplet pair energy:              -0.17126209
 MP2 correlation energy:               -0.48132804
 MP2 total energy:                   -130.33234212

 SCS-MP2 correlation energy:           -0.47864221   (PS=  1.200000  PT=  0.333333)
 SCS-MP2 total energy:               -130.32965630

 ITER.      SQ.NORM     CORR.ENERGY   TOTAL ENERGY   ENERGY CHANGE        DEN1      VAR(S)    VAR(P)  DIIS     TIME  TIME/IT
   1      1.11953009    -0.47882124  -130.32983533     0.00250680     0.01869711  0.30D-02  0.31D-02  1  1    17.91     8.76
   2      1.12989824    -0.47880912  -130.32982321     0.00001212    -0.01239361  0.99D-04  0.47D-03  2  2    26.02     8.88
   3      1.13586131    -0.47917765  -130.33019173    -0.00036853    -0.00294645  0.46D-04  0.53D-04  3  3    33.99     8.92
   4      1.13852268    -0.47917405  -130.33018814     0.00000359    -0.00093645  0.43D-05  0.95D-05  4  4    42.12     8.94
   5      1.13958396    -0.47920146  -130.33021555    -0.00002741    -0.00023648  0.11D-05  0.16D-05  5  5    50.15     8.95
   6      1.13992312    -0.47919108  -130.33020517     0.00001039    -0.00004739  0.12D-06  0.40D-06  6  6    58.14     8.96
   7      1.14000045    -0.47919043  -130.33020452     0.00000064     0.00000246  0.19D-07  0.89D-07  6  1    66.13     8.97
   8      1.14002575    -0.47919057  -130.33020466    -0.00000013    -0.00000292  0.38D-08  0.18D-07  6  2    74.10     8.98
   9      1.14003456    -0.47919003  -130.33020412     0.00000054    -0.00000025  0.21D-08  0.18D-08  6  3    82.12     8.98
  10      1.14003040    -0.47919072  -130.33020481    -0.00000069     0.00000144  0.32D-09  0.28D-09  6  5    90.16     8.99
  11      1.14003207    -0.47919071  -130.33020480     0.00000000    -0.00000028  0.89D-10  0.24D-10  6  4    98.25     8.99
  12      1.14003164    -0.47919078  -130.33020486    -0.00000006     0.00000005  0.17D-10  0.57D-11  6  6   106.27     8.99
  13      1.14003142    -0.47919078  -130.33020487    -0.00000000    -0.00000003  0.31D-11  0.89D-12  6  1   114.40     9.00
  14      1.14003116    -0.47919079  -130.33020488    -0.00000001     0.00000004  0.49D-12  0.16D-12  6  3   122.52     9.01
  15      1.14003108    -0.47919079  -130.33020488    -0.00000000     0.00000001  0.12D-12  0.24D-13  6  2   130.57     9.01
  16      1.14003107    -0.47919079  -130.33020488     0.00000000     0.00000000  0.30D-13  0.94D-14  6  4   138.60     9.01
  17      1.14003107    -0.47919079  -130.33020488    -0.00000000    -0.00000000  0.17D-14  0.12D-14  6  5   146.66     9.01
  18      1.14003108    -0.47919079  -130.33020488     0.00000000    -0.00000000  0.27D-15  0.31D-15  6  6   154.71     9.01
  19      1.14003108    -0.47919079  -130.33020488     0.00000000    -0.00000000  0.35D-16  0.46D-16  6  2   162.66     9.01
  20      1.14003108    -0.47919079  -130.33020488     0.00000000    -0.00000000  0.90D-17  0.65D-17  6  1   170.69     9.01
  21      1.14003108    -0.47919079  -130.33020488    -0.00000000     0.00000000  0.16D-17  0.92D-18  6  3   178.75     9.01
  22      1.14003108    -0.47919079  -130.33020488    -0.00000000     0.00000000  0.33D-18  0.15D-18  6  4   186.83     9.01
  23      1.14003108    -0.47919079  -130.33020488    -0.00000000     0.00000000  0.96D-19  0.49D-19  6  5   194.91     9.01
  24      1.14003108    -0.47919079  -130.33020488    -0.00000000     0.00000000  0.41D-19  0.22D-19  6  6   202.87     9.01
  25      1.14003108    -0.47919079  -130.33020488     0.00000000     0.00000000  0.27D-19  0.14D-19  6  2   210.87     9.01

 Norm of t1 vector:      0.07460111      S-energy:    -0.00000000      T1 diagnostic:  0.01522789
                                                                       D1 diagnostic:  0.04052694

 Doubles amplitudes (print threshold =  0.500E-01):

         I         J         SYM. A    SYM. B    A         B      T(IJ, AB)

         6         6         2         2         1         1     -0.06908561
         6         6         2         2         1         2      0.05247756
         6         6         2         2         2         1      0.05247756


 Total CPU time for triples:     83.70 sec


 RESULTS
 =======

  Reference energy                   -129.851014088454
  CCSD singlet pair energy             -0.332175136426
  CCSD triplet pair energy             -0.147015656039
  CCSD correlation energy              -0.479190792468

  Triples (T) contribution             -0.022571830485
  Total correlation energy             -0.501762622953

  CCSD total energy                  -130.330204880923
  CCSD[T] energy                     -130.353810150567
  CCSD-T energy                      -130.352407224635
 !CCSD(T) total energy               -130.352776711408

 Timing summary (sec):

 STEP                 CPU(USER)    SYS     CPU(TOT)    WALL
 Transformation         10.05      1.33     11.38     11.38
 CCSD iterations       200.83     24.52    225.35    225.40
 Triples                83.70      1.80     85.50     85.50

 Program statistics:

 Available memory in ccsd:               994999756
 Min. memory needed in ccsd:               3348832
 Max. memory used in ccsd:                 4143652
 Max. memory used in cckext:               8340089 (25 integral passes)



 **********************************************************************************************************************************
 DATASETS  * FILE   NREC   LENGTH (MB)   RECORD NAMES
              1      20     6809.41       500      610      700      900      950      970     1000      129      960     1100   
                                          VAR    BASINP    GEOM    SYMINP    ZMAT    AOBASIS   BASIS     P2S    ABASIS      S 
                                         1400     1410     1200     1210     1080     1600     1650     1300     1700     1380   
                                           T        V       H0       H01     AOSYM     SMH    MOLCAS    ERIS     OPER     JKOP   

              2       4        4.02       700     1000      520     2100   
                                         GEOM     BASIS   MCVARS     RHF  

 PROGRAMS   *        TOTAL   CCSD(T)        HF       INT
 CPU TIMES  *       478.23    294.59     78.99    104.54
 REAL TIME  *       542.08 SEC
 DISK USED  *        21.32 GB      
 **********************************************************************************************************************************

 CCSD(T)/aug-cc-pV5Z energy=   -130.352776711408

        CCSD(T)         HF-SCF  
   -130.35277671   -129.85101409
 **********************************************************************************************************************************
 Molpro calculation terminated
 Variable memory released
