
 Primary working directories    : /tmp/r2666/234723.maple
 Secondary working directories  : /tmp/r2666/234723.maple
 Wavefunction directory         : /ddn/home4/r2666/wfu/
 Main file repository           : /tmp/r2666/234723.maple/

 SHA1      : d5ffa45e93fdbca01ffc919aa182cfdae0147319
 NAME      : 2015.1.35
 ARCHNAME  : linux/x86_64
 FC        : /opt/intel/composer_xe_2015.1.133/bin/intel64/ifort
 BLASLIB   : -Wl,-_start-group /opt/intel/mkl/lib/intel64/libmkl_intel_ilp64.a /opt/intel/mkl/lib/intel64/libmkl_intel_thread.a /opt/intel/mkl/lib/intel64/libmkl_core.a -Wl,-_end-group
 id        : olemiss

 Nodes     nprocs
 cn034        1

 Using customized tuning parameters: mindgm=1; mindgv=20; mindgc=4; mindgr=1; noblas=0; minvec=7
 default implementation of scratch files=df  

 ***,hno CCSD(T)/TZ-F12 QFF
 memory, 995, m;
 gthresh,energy=1.d-12,zero=1.d-22,oneint=1.d-22,twoint=1.d-22;
 gthresh,optgrad=1.d-8,optstep=1.d-8;
 nocompress;
 geomtyp=xyz
 bohr
 geometry={
 3
         95        95
 N        0.0000000000       -0.1576548748       -1.1287734975
 H        0.0000000000        1.6693049358       -1.9363897205
 O        0.0000000000        0.0301177290        1.1145736270
 }
 
 basis=av5z
   {hf,maxit=500;accu,20;}
 {ccsd(t),nocheck,maxit=250;orbital,IGNORE_ERROR;}

 Variables initialized (889), CPU time= 0.00 sec
 Commands  initialized (702), CPU time= 0.01 sec, 572 directives.
 Default parameters read. Elapsed time= 0.05 sec

 Checking input...
 Passed
1


                                         ***  PROGRAM SYSTEM MOLPRO  ***
                                       Copyright, TTI GmbH Stuttgart, 2015
                                    Version 2015.1 linked Jul  9 2018 13:16:40


 **********************************************************************************************************************************
 LABEL *   hno CCSD(T)/TZ-F12 QFF                                                        
  64 bit serial version                                                                  DATE: 08-Feb-20          TIME: 17:39:45  
 **********************************************************************************************************************************

 SHA1:             d5ffa45e93fdbca01ffc919aa182cfdae0147319
 **********************************************************************************************************************************

 THRESHOLDS:

 ZERO    =  1.00D-22  ONEINT  =  1.00D-22  TWOINT  =  1.00D-22  PREFAC  =  1.00D-14  LOCALI  =  1.00D-09  EORDER  =  1.00D-04
 ENERGY  =  1.00D-12  ETEST   =  0.00D+00  EDENS   =  0.00D+00  THRDEDEF=  1.00D-06  GRADIENT=  1.00D-02  STEP    =  1.00D-03
 ORBITAL =  1.00D-05  CIVEC   =  1.00D-05  COEFF   =  1.00D-04  PRINTCI =  5.00D-02  PUNCHCI =  9.90D+01  OPTGRAD =  3.00D-04
 OPTENERG=  1.00D-06  OPTSTEP =  3.00D-04  THRGRAD =  1.00D-10  COMPRESS=  1.00D-11  VARMIN  =  1.00D-07  VARMAX  =  1.00D-03
 THRDOUB =  0.00D+00  THRDIV  =  1.00D-05  THRRED  =  1.00D-07  THRPSP  =  1.00D+00  THRDC   =  1.00D-10  THRCS   =  1.00D-10
 THRNRM  =  1.00D-08  THREQ   =  0.00D+00  THRDE   =  1.00D+00  THRREF  =  1.00D-05  SPARFAC =  1.00D+00  THRDLP  =  1.00D-07
 THRDIA  =  1.00D-10  THRDLS  =  1.00D-07  THRGPS  =  0.00D+00  THRKEX  =  0.00D+00  THRDIS  =  2.00D-01  THRVAR  =  1.00D-10
 THRLOC  =  1.00D-06  THRGAP  =  1.00D-06  THRLOCT = -1.00D+00  THRGAPT = -1.00D+00  THRORB  =  1.00D-06  THRMLTP =  0.00D+00
 THRCPQCI=  1.00D-10  KEXTA   =  0.00D+00  THRCOARS=  0.00D+00  SYMTOL  =  1.00D-06  GRADTOL =  1.00D-06  THROVL  =  1.00D-08
 THRORTH =  1.00D-08  GRID    =  1.00D-06  GRIDMAX =  1.00D-03  DTMAX   =  0.00D+00  THROCCDE=  1.00D-01  THROCCDE=  1.00D-01



 THRESHOLDS:

 ZERO    =  1.00D-22  ONEINT  =  1.00D-22  TWOINT  =  1.00D-22  PREFAC  =  1.00D-14  LOCALI  =  1.00D-09  EORDER  =  1.00D-04
 ENERGY  =  1.00D-12  ETEST   =  0.00D+00  EDENS   =  0.00D+00  THRDEDEF=  1.00D-06  GRADIENT=  1.00D-02  STEP    =  1.00D-03
 ORBITAL =  1.00D-05  CIVEC   =  1.00D-05  COEFF   =  1.00D-04  PRINTCI =  5.00D-02  PUNCHCI =  9.90D+01  OPTGRAD =  1.00D-08
 OPTENERG=  1.00D-06  OPTSTEP =  1.00D-08  THRGRAD =  1.00D-10  COMPRESS=  1.00D-11  VARMIN  =  1.00D-07  VARMAX  =  1.00D-03
 THRDOUB =  0.00D+00  THRDIV  =  1.00D-05  THRRED  =  1.00D-07  THRPSP  =  1.00D+00  THRDC   =  1.00D-10  THRCS   =  1.00D-10
 THRNRM  =  1.00D-08  THREQ   =  0.00D+00  THRDE   =  1.00D+00  THRREF  =  1.00D-05  SPARFAC =  1.00D+00  THRDLP  =  1.00D-07
 THRDIA  =  1.00D-10  THRDLS  =  1.00D-07  THRGPS  =  0.00D+00  THRKEX  =  0.00D+00  THRDIS  =  2.00D-01  THRVAR  =  1.00D-10
 THRLOC  =  1.00D-06  THRGAP  =  1.00D-06  THRLOCT = -1.00D+00  THRGAPT = -1.00D+00  THRORB  =  1.00D-06  THRMLTP =  0.00D+00
 THRCPQCI=  1.00D-10  KEXTA   =  0.00D+00  THRCOARS=  0.00D+00  SYMTOL  =  1.00D-06  GRADTOL =  1.00D-06  THROVL  =  1.00D-08
 THRORTH =  1.00D-08  GRID    =  1.00D-06  GRIDMAX =  1.00D-03  DTMAX   =  0.00D+00  THROCCDE=  1.00D-01  THROCCDE=  1.00D-01



 Input parameters for SORTINT:

 COMPRESS =    0.000000
 C_FINAL  =    1.000000
 DEBUG    =   -1.000000
 C_SORT1  =    0.000000
 C_SEWARD =    0.000000
 THRESH   =    0.000000
 IO       =  molpro                                                          
 SPRI     =    0.000000
 SETTING GEOMTYP        =    XYZ
 ZUNIT=BOHR
 

 Variable memory set to  995000000 words,  buffer space   230000 words

 SETTING BASIS          =    AV5Z


 Recomputing integrals since basis changed


 Using spherical harmonics

 Library entry N      S aug-cc-pV5Z          selected for orbital group  1
 Library entry N      P aug-cc-pV5Z          selected for orbital group  1
 Library entry N      D aug-cc-pV5Z          selected for orbital group  1
 Library entry N      F aug-cc-pV5Z          selected for orbital group  1
 Library entry N      G aug-cc-pV5Z          selected for orbital group  1
 Library entry N      H aug-cc-pV5Z          selected for orbital group  1
 Library entry H      S aug-cc-pV5Z          selected for orbital group  2
 Library entry H      P aug-cc-pV5Z          selected for orbital group  2
 Library entry H      D aug-cc-pV5Z          selected for orbital group  2
 Library entry H      F aug-cc-pV5Z          selected for orbital group  2
 Library entry H      G aug-cc-pV5Z          selected for orbital group  2
 Library entry O      S aug-cc-pV5Z          selected for orbital group  3
 Library entry O      P aug-cc-pV5Z          selected for orbital group  3
 Library entry O      D aug-cc-pV5Z          selected for orbital group  3
 Library entry O      F aug-cc-pV5Z          selected for orbital group  3
 Library entry O      G aug-cc-pV5Z          selected for orbital group  3
 Library entry O      H aug-cc-pV5Z          selected for orbital group  3


 PROGRAM * SEWARD (Integral evaluation for generally contracted gaussian basis sets)     Author: Roland Lindh, 1990

 Geometry written to block  1 of record 700


 Point group  Cs  



 ATOMIC COORDINATES

 NR  ATOM    CHARGE       X              Y              Z

   1  N       7.00    0.000000000   -0.157654875   -1.128773497
   2  H       1.00    0.000000000    1.669304936   -1.936389721
   3  O       8.00    0.000000000    0.030117729    1.114573627

 Bond lengths in Bohr (Angstrom)

 1-2  1.997504972  1-3  2.251191878
     ( 1.057034110)     ( 1.191279439)

 Bond angles

  2-1-3  109.06343437

 NUCLEAR CHARGE:                   16
 NUMBER OF PRIMITIVE AOS:         506
 NUMBER OF SYMMETRY AOS:          371
 NUMBER OF CONTRACTIONS:          334   ( 204A'  + 130A"  )
 NUMBER OF CORE ORBITALS:           2   (   2A'  +   0A"  )
 NUMBER OF VALENCE ORBITALS:        9   (   7A'  +   2A"  )


 NUCLEAR REPULSION ENERGY   30.68993570


 Eigenvalues of metric

         1 0.110E-04 0.165E-04 0.631E-04 0.952E-04 0.100E-03 0.131E-03 0.195E-03 0.223E-03
         2 0.121E-03 0.367E-03 0.107E-02 0.146E-02 0.194E-02 0.239E-02 0.328E-02 0.381E-02


 Contracted 2-electron integrals neglected if value below      1.0D-22

      756977275. INTEGRALS WRITTEN OUT IN  184855 BLOCKS ON RECORD 1290 OF FILE 1


 NUMBER OF SORTED TWO-ELECTRON INTEGRALS:  789027325.     BUFFER LENGTH:  32768
 NUMBER OF SEGMENTS:  25  SEGMENT LENGTH:   31997130      RECORD LENGTH: 524288

 Memory used in sort:      32.55 MW

 SORT1 READ   756977275. AND WROTE   760993159. INTEGRALS IN   2189 RECORDS. CPU TIME:    26.60 SEC, REAL TIME:   151.68 SEC
 SORT2 READ   760993159. AND WROTE   789027325. INTEGRALS IN     25 RECORDS. CPU TIME:    11.69 SEC, REAL TIME:    59.44 SEC

 FILE SIZES:   FILE 1: 12137.5 MBYTE,  FILE 4:  9181.4 MBYTE,   TOTAL:  21318.9 MBYTE

 OPERATOR DM      FOR CENTER  0  COORDINATES:    0.000000    0.000000    0.000000


 **********************************************************************************************************************************
 DATASETS  * FILE   NREC   LENGTH (MB)   RECORD NAMES
              1      19     6374.22       500      610      700      900      950      970     1000      129      960     1100   
                                          VAR    BASINP    GEOM    SYMINP    ZMAT    AOBASIS   BASIS     P2S    ABASIS      S 
                                         1400     1410     1200     1210     1080     1600     1650     1300     1700   
                                           T        V       H0       H01     AOSYM     SMH    MOLCAS    ERIS     OPER   

 PROGRAMS   *        TOTAL       INT
 CPU TIMES  *       144.82    144.74
 REAL TIME  *       325.26 SEC
 DISK USED  *        21.32 GB      
 **********************************************************************************************************************************


 PROGRAM * RHF-SCF (CLOSED SHELL)       Authors: W. Meyer, H.-J. Werner


 NUMBER OF ELECTRONS:       8+    8-
 CONVERGENCE THRESHOLDS:    1.00E-10 (Density)    1.00E-13 (Energy)
 MAX. NUMBER OF ITERATIONS:      500
 INTERPOLATION TYPE:            DIIS
 INTERPOLATION STEPS:              2 (START)      1 (STEP)
 LEVEL SHIFTS:                  0.00 (CLOSED)  0.00 (OPEN) 



 Orbital guess generated from atomic densities. Full valence occupancy:    9   2

 Molecular orbital dump at record        2100.2

 Initial occupancy:   7   1

 ITERATION    DDIFF          GRAD             ENERGY        2-EL.EN.            DIPOLE MOMENTS         DIIS   ORB.
    1      0.000D+00      0.000D+00      -129.80252933    154.545614    0.00000    0.59162   -0.97749    0    start
    2      0.000D+00      0.630D-02      -129.83014809    155.806262    0.00000    0.59855   -0.21505    1    diag
    3      0.387D-02      0.464D-02      -129.85066408    155.894337    0.00000    0.54993   -0.57146    2    diag
    4      0.198D-02      0.754D-03      -129.85143453    155.621827    0.00000    0.55722   -0.51252    3    diag
    5      0.370D-03      0.243D-03      -129.85155447    155.714665    0.00000    0.56261   -0.51544    4    diag
    6      0.152D-03      0.705D-04      -129.85157359    155.698530    0.00000    0.56298   -0.51153    5    diag
    7      0.584D-04      0.345D-04      -129.85157892    155.701501    0.00000    0.56428   -0.50915    6    diag
    8      0.394D-04      0.116D-04      -129.85157946    155.700853    0.00000    0.56434   -0.50825    7    diag
    9      0.141D-04      0.220D-05      -129.85157949    155.700751    0.00000    0.56431   -0.50805    8    diag
   10      0.275D-05      0.517D-06      -129.85157949    155.700733    0.00000    0.56427   -0.50802    9    orth
   11      0.585D-06      0.107D-06      -129.85157949    155.700729    0.00000    0.56427   -0.50802    9    diag
   12      0.116D-06      0.213D-07      -129.85157949    155.700729    0.00000    0.56426   -0.50802    9    diag
   13      0.251D-07      0.546D-08      -129.85157949    155.700729    0.00000    0.56426   -0.50802    9    diag
   14      0.654D-08      0.110D-08      -129.85157949    155.700728    0.00000    0.56426   -0.50802    9    diag
   15      0.123D-08      0.323D-09      -129.85157949    155.700728    0.00000    0.56426   -0.50802    9    diag
   16      0.365D-09      0.101D-09      -129.85157949    155.700728    0.00000    0.56426   -0.50802    9    diag
   17      0.744D-10      0.280D-10      -129.85157949    155.700728    0.00000    0.56426   -0.50802    9    diag
   18      0.257D-10      0.944D-11      -129.85157949    155.700728    0.00000    0.56426   -0.50802    9    diag
   19      0.186D-10      0.240D-11      -129.85157949    155.700728    0.00000    0.56426   -0.50802    9    fixocc
   20      0.118D-10      0.610D-12      -129.85157949    155.700728    0.00000    0.56426   -0.50802    0    orth

 Final occupancy:   7   1

 !RHF STATE 1.1 Energy               -129.851579486497
 Nuclear energy                        30.68993570
 One-electron energy                 -238.39187941
 Two-electron energy                   77.85036423
 Virial quotient                       -1.00126665
 !RHF STATE 1.1 Dipole moment           0.00000000     0.56426316    -0.50801672
 Dipole moment /Debye                   0.00000000     1.43411996    -1.29116514

 Orbital energies:

         1.1          2.1          3.1          4.1          5.1          6.1          7.1          8.1          9.1
    -20.651691   -15.709842    -1.542731    -0.989786    -0.751774    -0.671163    -0.424469     0.022988     0.065555

         1.2          2.2          3.2
     -0.604120     0.063225     0.093278

 HOMO      7.1    -0.424469 =     -11.5504eV
 LUMO      8.1     0.022988 =       0.6255eV
 LUMO-HOMO         0.447457 =      12.1759eV


 **********************************************************************************************************************************
 DATASETS  * FILE   NREC   LENGTH (MB)   RECORD NAMES
              1      19     6374.22       500      610      700      900      950      970     1000      129      960     1100   
                                          VAR    BASINP    GEOM    SYMINP    ZMAT    AOBASIS   BASIS     P2S    ABASIS      S 
                                         1400     1410     1200     1210     1080     1600     1650     1300     1700   
                                           T        V       H0       H01     AOSYM     SMH    MOLCAS    ERIS     OPER   

              2       4        4.02       700     1000      520     2100   
                                         GEOM     BASIS   MCVARS     RHF  

 PROGRAMS   *        TOTAL        HF       INT
 CPU TIMES  *       224.72     79.89    144.74
 REAL TIME  *       427.05 SEC
 DISK USED  *        21.32 GB      
 **********************************************************************************************************************************


 PROGRAM * CCSD (Closed-shell coupled cluster)     Authors: C. Hampel, H.-J. Werner, 1991, M. Deegan, P.J. Knowles, 1992


 Convergence thresholds:  THRVAR = 1.00D-08  THRDEN = 1.00D-12

 CCSD(T)     terms to be evaluated (factor= 1.000)


 Number of core orbitals:           2 (   2   0 )
 Number of closed-shell orbitals:   6 (   5   1 )
 Number of external orbitals:     326 ( 197 129 )

 Molecular orbitals read from record     2100.2  Type=RHF/CANONICAL (state 1.1)

 Number of N-1 electron functions:               6
 Number of N-2 electron functions:              21
 Number of singly external CSFs:              1114
 Number of doubly external CSFs:            975958
 Total number of CSFs:                      977073

 Length of J-op  integral file:               0.00 MB
 Length of K-op  integral file:               4.07 MB
 Length of 3-ext integral record:             0.00 MB

 Memory could be reduced to 151.33 Mwords without degradation in triples

 Integral transformation finished. Total CPU:  13.66 sec, npass=  1  Memory used:  41.21 MW

 Reference energy:                   -129.85157949

 MP2 singlet pair energy:              -0.30961830
 MP2 triplet pair energy:              -0.17097241
 MP2 correlation energy:               -0.48059071
 MP2 total energy:                   -130.33217020

 SCS-MP2 correlation energy:           -0.47792479   (PS=  1.200000  PT=  0.333333)
 SCS-MP2 total energy:               -130.32950428

 ITER.      SQ.NORM     CORR.ENERGY   TOTAL ENERGY   ENERGY CHANGE        DEN1      VAR(S)    VAR(P)  DIIS     TIME  TIME/IT
   1      1.11901930    -0.47822652  -130.32980600     0.00236419     0.01837992  0.30D-02  0.30D-02  1  1    24.34    11.68
   2      1.12928244    -0.47824209  -130.32982158    -0.00001557    -0.01228633  0.97D-04  0.47D-03  2  2    35.35    11.90
   3      1.13516576    -0.47860392  -130.33018340    -0.00036183    -0.00291779  0.45D-04  0.53D-04  3  3    46.33    11.96
   4      1.13778715    -0.47860064  -130.33018012     0.00000328    -0.00092422  0.41D-05  0.94D-05  4  4    57.24    11.99
   5      1.13882788    -0.47862735  -130.33020684    -0.00002671    -0.00023180  0.11D-05  0.16D-05  5  5    68.28    12.05
   6      1.13916308    -0.47861728  -130.33019677     0.00001007    -0.00004662  0.12D-06  0.41D-06  6  6    79.29    12.06
   7      1.13924067    -0.47861669  -130.33019618     0.00000059     0.00000231  0.19D-07  0.90D-07  6  1    90.33    12.08
   8      1.13926580    -0.47861689  -130.33019638    -0.00000020    -0.00000286  0.39D-08  0.17D-07  6  2   101.26    12.09
   9      1.13927454    -0.47861637  -130.33019586     0.00000052    -0.00000027  0.21D-08  0.17D-08  6  3   112.29    12.10
  10      1.13927040    -0.47861705  -130.33019654    -0.00000068     0.00000142  0.32D-09  0.28D-09  6  5   123.42    12.12
  11      1.13927201    -0.47861705  -130.33019654     0.00000000    -0.00000026  0.88D-10  0.24D-10  6  4   134.31    12.12
  12      1.13927157    -0.47861711  -130.33019660    -0.00000006     0.00000005  0.17D-10  0.56D-11  6  6   145.34    12.13
  13      1.13927135    -0.47861712  -130.33019660    -0.00000001    -0.00000002  0.31D-11  0.89D-12  6  1   156.33    12.14
  14      1.13927109    -0.47861713  -130.33019661    -0.00000001     0.00000004  0.50D-12  0.16D-12  6  3   167.21    12.14
  15      1.13927102    -0.47861713  -130.33019662    -0.00000000     0.00000001  0.12D-12  0.23D-13  6  2   178.63    12.16
  16      1.13927100    -0.47861713  -130.33019662     0.00000000     0.00000000  0.30D-13  0.92D-14  6  4   189.66    12.16
  17      1.13927101    -0.47861713  -130.33019662    -0.00000000    -0.00000000  0.17D-14  0.12D-14  6  5   200.57    12.16
  18      1.13927101    -0.47861713  -130.33019662     0.00000000    -0.00000000  0.28D-15  0.31D-15  6  6   211.57    12.16
  19      1.13927102    -0.47861713  -130.33019662     0.00000000    -0.00000000  0.37D-16  0.47D-16  6  2   222.62    12.16
  20      1.13927102    -0.47861713  -130.33019662     0.00000000    -0.00000000  0.93D-17  0.66D-17  6  1   233.54    12.16
  21      1.13927102    -0.47861713  -130.33019662    -0.00000000     0.00000000  0.16D-17  0.95D-18  6  3   244.49    12.16
  22      1.13927102    -0.47861713  -130.33019662    -0.00000000     0.00000000  0.32D-18  0.15D-18  6  4   255.52    12.16
  23      1.13927102    -0.47861713  -130.33019662    -0.00000000     0.00000000  0.10D-18  0.53D-19  6  5   266.48    12.16
  24      1.13927102    -0.47861713  -130.33019662    -0.00000000     0.00000000  0.40D-19  0.21D-19  6  6   277.43    12.16
  25      1.13927102    -0.47861713  -130.33019662    -0.00000000     0.00000000  0.21D-19  0.10D-19  6  2   288.88    12.17

 Norm of t1 vector:      0.07401281      S-energy:    -0.00000000      T1 diagnostic:  0.01510780
                                                                       D1 diagnostic:  0.04014186

 Doubles amplitudes (print threshold =  0.500E-01):

         I         J         SYM. A    SYM. B    A         B      T(IJ, AB)

         6         6         2         2         1         1     -0.06644322
         6         6         2         2         1         2      0.05223035
         6         6         2         2         2         1      0.05223035


 Total CPU time for triples:    114.32 sec


 RESULTS
 =======

  Reference energy                   -129.851579486496
  CCSD singlet pair energy             -0.331681265600
  CCSD triplet pair energy             -0.146935864509
  CCSD correlation energy              -0.478617130112

  Triples (T) contribution             -0.022438484208
  Total correlation energy             -0.501055614319

  CCSD total energy                  -130.330196616608
  CCSD[T] energy                     -130.353652461944
  CCSD-T energy                      -130.352270316826
 !CCSD(T) total energy               -130.352635100815

 Timing summary (sec):

 STEP                 CPU(USER)    SYS     CPU(TOT)    WALL
 Transformation         13.73      1.66     15.39     15.42
 CCSD iterations       275.16     29.13    304.29    304.29
 Triples               114.32      2.06    116.38    116.39

 Program statistics:

 Available memory in ccsd:               994999756
 Min. memory needed in ccsd:               3348832
 Max. memory used in ccsd:                 4143652
 Max. memory used in cckext:               8340089 (25 integral passes)



 **********************************************************************************************************************************
 DATASETS  * FILE   NREC   LENGTH (MB)   RECORD NAMES
              1      20     6809.41       500      610      700      900      950      970     1000      129      960     1100   
                                          VAR    BASINP    GEOM    SYMINP    ZMAT    AOBASIS   BASIS     P2S    ABASIS      S 
                                         1400     1410     1200     1210     1080     1600     1650     1300     1700     1380   
                                           T        V       H0       H01     AOSYM     SMH    MOLCAS    ERIS     OPER     JKOP   

              2       4        4.02       700     1000      520     2100   
                                         GEOM     BASIS   MCVARS     RHF  

 PROGRAMS   *        TOTAL   CCSD(T)        HF       INT
 CPU TIMES  *       627.95    403.23     79.89    144.74
 REAL TIME  *       863.20 SEC
 DISK USED  *        21.32 GB      
 **********************************************************************************************************************************

 CCSD(T)/aug-cc-pV5Z energy=   -130.352635100815

        CCSD(T)         HF-SCF  
   -130.35263510   -129.85157949
 **********************************************************************************************************************************
 Molpro calculation terminated
 Variable memory released
