
 Primary working directories    : /tmp/r2666/234817.maple
 Secondary working directories  : /tmp/r2666/234817.maple
 Wavefunction directory         : /ddn/home4/r2666/wfu/
 Main file repository           : /tmp/r2666/234817.maple/

 SHA1      : d5ffa45e93fdbca01ffc919aa182cfdae0147319
 NAME      : 2015.1.35
 ARCHNAME  : linux/x86_64
 FC        : /opt/intel/composer_xe_2015.1.133/bin/intel64/ifort
 BLASLIB   : -Wl,-_start-group /opt/intel/mkl/lib/intel64/libmkl_intel_ilp64.a /opt/intel/mkl/lib/intel64/libmkl_intel_thread.a /opt/intel/mkl/lib/intel64/libmkl_core.a -Wl,-_end-group
 id        : olemiss

 Nodes     nprocs
 cn042        1

 Using customized tuning parameters: mindgm=1; mindgv=20; mindgc=4; mindgr=1; noblas=0; minvec=7
 default implementation of scratch files=df  

 ***,hno CCSD(T)/TZ-F12 QFF
 memory, 995, m;
 gthresh,energy=1.d-12,zero=1.d-22,oneint=1.d-22,twoint=1.d-22;
 gthresh,optgrad=1.d-8,optstep=1.d-8;
 nocompress;
 geomtyp=xyz
 bohr
 geometry={
 3
         60        60
 N        0.0000000000       -0.1681329115       -1.1566910082
 H        0.0000000000        1.6671120752       -1.9210494699
 O        0.0000000000        0.0427886263        1.1271508871
 }
 
 basis=avqz
   {hf,maxit=500;accu,20;}
 {ccsd(t),nocheck,maxit=250;orbital,IGNORE_ERROR;}

 Variables initialized (889), CPU time= 0.01 sec
 Commands  initialized (702), CPU time= 0.01 sec, 572 directives.
 Default parameters read. Elapsed time= 0.06 sec

 Checking input...
 Passed
1


                                         ***  PROGRAM SYSTEM MOLPRO  ***
                                       Copyright, TTI GmbH Stuttgart, 2015
                                    Version 2015.1 linked Jul  9 2018 13:16:40


 **********************************************************************************************************************************
 LABEL *   hno CCSD(T)/TZ-F12 QFF                                                        
  64 bit serial version                                                                  DATE: 08-Feb-20          TIME: 17:53:05  
 **********************************************************************************************************************************

 SHA1:             d5ffa45e93fdbca01ffc919aa182cfdae0147319
 **********************************************************************************************************************************

 THRESHOLDS:

 ZERO    =  1.00D-22  ONEINT  =  1.00D-22  TWOINT  =  1.00D-22  PREFAC  =  1.00D-14  LOCALI  =  1.00D-09  EORDER  =  1.00D-04
 ENERGY  =  1.00D-12  ETEST   =  0.00D+00  EDENS   =  0.00D+00  THRDEDEF=  1.00D-06  GRADIENT=  1.00D-02  STEP    =  1.00D-03
 ORBITAL =  1.00D-05  CIVEC   =  1.00D-05  COEFF   =  1.00D-04  PRINTCI =  5.00D-02  PUNCHCI =  9.90D+01  OPTGRAD =  3.00D-04
 OPTENERG=  1.00D-06  OPTSTEP =  3.00D-04  THRGRAD =  1.00D-10  COMPRESS=  1.00D-11  VARMIN  =  1.00D-07  VARMAX  =  1.00D-03
 THRDOUB =  0.00D+00  THRDIV  =  1.00D-05  THRRED  =  1.00D-07  THRPSP  =  1.00D+00  THRDC   =  1.00D-10  THRCS   =  1.00D-10
 THRNRM  =  1.00D-08  THREQ   =  0.00D+00  THRDE   =  1.00D+00  THRREF  =  1.00D-05  SPARFAC =  1.00D+00  THRDLP  =  1.00D-07
 THRDIA  =  1.00D-10  THRDLS  =  1.00D-07  THRGPS  =  0.00D+00  THRKEX  =  0.00D+00  THRDIS  =  2.00D-01  THRVAR  =  1.00D-10
 THRLOC  =  1.00D-06  THRGAP  =  1.00D-06  THRLOCT = -1.00D+00  THRGAPT = -1.00D+00  THRORB  =  1.00D-06  THRMLTP =  0.00D+00
 THRCPQCI=  1.00D-10  KEXTA   =  0.00D+00  THRCOARS=  0.00D+00  SYMTOL  =  1.00D-06  GRADTOL =  1.00D-06  THROVL  =  1.00D-08
 THRORTH =  1.00D-08  GRID    =  1.00D-06  GRIDMAX =  1.00D-03  DTMAX   =  0.00D+00  THROCCDE=  1.00D-01  THROCCDE=  1.00D-01



 THRESHOLDS:

 ZERO    =  1.00D-22  ONEINT  =  1.00D-22  TWOINT  =  1.00D-22  PREFAC  =  1.00D-14  LOCALI  =  1.00D-09  EORDER  =  1.00D-04
 ENERGY  =  1.00D-12  ETEST   =  0.00D+00  EDENS   =  0.00D+00  THRDEDEF=  1.00D-06  GRADIENT=  1.00D-02  STEP    =  1.00D-03
 ORBITAL =  1.00D-05  CIVEC   =  1.00D-05  COEFF   =  1.00D-04  PRINTCI =  5.00D-02  PUNCHCI =  9.90D+01  OPTGRAD =  1.00D-08
 OPTENERG=  1.00D-06  OPTSTEP =  1.00D-08  THRGRAD =  1.00D-10  COMPRESS=  1.00D-11  VARMIN  =  1.00D-07  VARMAX  =  1.00D-03
 THRDOUB =  0.00D+00  THRDIV  =  1.00D-05  THRRED  =  1.00D-07  THRPSP  =  1.00D+00  THRDC   =  1.00D-10  THRCS   =  1.00D-10
 THRNRM  =  1.00D-08  THREQ   =  0.00D+00  THRDE   =  1.00D+00  THRREF  =  1.00D-05  SPARFAC =  1.00D+00  THRDLP  =  1.00D-07
 THRDIA  =  1.00D-10  THRDLS  =  1.00D-07  THRGPS  =  0.00D+00  THRKEX  =  0.00D+00  THRDIS  =  2.00D-01  THRVAR  =  1.00D-10
 THRLOC  =  1.00D-06  THRGAP  =  1.00D-06  THRLOCT = -1.00D+00  THRGAPT = -1.00D+00  THRORB  =  1.00D-06  THRMLTP =  0.00D+00
 THRCPQCI=  1.00D-10  KEXTA   =  0.00D+00  THRCOARS=  0.00D+00  SYMTOL  =  1.00D-06  GRADTOL =  1.00D-06  THROVL  =  1.00D-08
 THRORTH =  1.00D-08  GRID    =  1.00D-06  GRIDMAX =  1.00D-03  DTMAX   =  0.00D+00  THROCCDE=  1.00D-01  THROCCDE=  1.00D-01



 Input parameters for SORTINT:

 COMPRESS =    0.000000
 C_FINAL  =    1.000000
 DEBUG    =   -1.000000
 C_SORT1  =    0.000000
 C_SEWARD =    0.000000
 THRESH   =    0.000000
 IO       =  molpro                                                          
 SPRI     =    0.000000
 SETTING GEOMTYP        =    XYZ
 ZUNIT=BOHR
 

 Variable memory set to  995000000 words,  buffer space   230000 words

 SETTING BASIS          =    AVQZ


 Recomputing integrals since basis changed


 Using spherical harmonics

 Library entry N      S aug-cc-pVQZ          selected for orbital group  1
 Library entry N      P aug-cc-pVQZ          selected for orbital group  1
 Library entry N      D aug-cc-pVQZ          selected for orbital group  1
 Library entry N      F aug-cc-pVQZ          selected for orbital group  1
 Library entry N      G aug-cc-pVQZ          selected for orbital group  1
 Library entry H      S aug-cc-pVQZ          selected for orbital group  2
 Library entry H      P aug-cc-pVQZ          selected for orbital group  2
 Library entry H      D aug-cc-pVQZ          selected for orbital group  2
 Library entry H      F aug-cc-pVQZ          selected for orbital group  2
 Library entry O      S aug-cc-pVQZ          selected for orbital group  3
 Library entry O      P aug-cc-pVQZ          selected for orbital group  3
 Library entry O      D aug-cc-pVQZ          selected for orbital group  3
 Library entry O      F aug-cc-pVQZ          selected for orbital group  3
 Library entry O      G aug-cc-pVQZ          selected for orbital group  3


 PROGRAM * SEWARD (Integral evaluation for generally contracted gaussian basis sets)     Author: Roland Lindh, 1990

 Geometry written to block  1 of record 700


 Point group  Cs  



 ATOMIC COORDINATES

 NR  ATOM    CHARGE       X              Y              Z

   1  N       7.00    0.000000000   -0.168132912   -1.156691008
   2  H       1.00    0.000000000    1.667112075   -1.921049470
   3  O       8.00    0.000000000    0.042788626    1.127150887

 Bond lengths in Bohr (Angstrom)

 1-2  1.988056342  1-3  2.293560921
     ( 1.052034110)     ( 1.213700171)

 Bond angles

  2-1-3  107.33465019

 NUCLEAR CHARGE:                   16
 NUMBER OF PRIMITIVE AOS:         293
 NUMBER OF SYMMETRY AOS:          234
 NUMBER OF CONTRACTIONS:          206   ( 130A'  +  76A"  )
 NUMBER OF CORE ORBITALS:           2   (   2A'  +   0A"  )
 NUMBER OF VALENCE ORBITALS:        9   (   7A'  +   2A"  )


 NUCLEAR REPULSION ENERGY   30.25337968

 Eigenvalues of metric

         1 0.599E-04 0.147E-03 0.320E-03 0.437E-03 0.600E-03 0.687E-03 0.101E-02 0.109E-02
         2 0.838E-03 0.163E-02 0.503E-02 0.896E-02 0.102E-01 0.124E-01 0.127E-01 0.189E-01


 Contracted 2-electron integrals neglected if value below      1.0D-22

      109945078. INTEGRALS WRITTEN OUT IN   26849 BLOCKS ON RECORD 1290 OF FILE 1


 NUMBER OF SORTED TWO-ELECTRON INTEGRALS:  115283741.     BUFFER LENGTH:  32768
 NUMBER OF SEGMENTS:   8  SEGMENT LENGTH:   15998004      RECORD LENGTH: 524288

 Memory used in sort:      16.56 MW

 SORT1 READ   109945078. AND WROTE   110865245. INTEGRALS IN    322 RECORDS. CPU TIME:     4.01 SEC, REAL TIME:     4.96 SEC
 SORT2 READ   110865245. AND WROTE   115283741. INTEGRALS IN      8 RECORDS. CPU TIME:     1.60 SEC, REAL TIME:     2.33 SEC

 FILE SIZES:   FILE 1:  1780.6 MBYTE,  FILE 4:  1350.6 MBYTE,   TOTAL:   3131.2 MBYTE

 OPERATOR DM      FOR CENTER  0  COORDINATES:    0.000000    0.000000    0.000000


 **********************************************************************************************************************************
 DATASETS  * FILE   NREC   LENGTH (MB)   RECORD NAMES
              1      19      944.14       500      610      700      900      950      970     1000      129      960     1100   
                                          VAR    BASINP    GEOM    SYMINP    ZMAT    AOBASIS   BASIS     P2S    ABASIS      S 
                                         1400     1410     1200     1210     1080     1600     1650     1300     1700   
                                           T        V       H0       H01     AOSYM     SMH    MOLCAS    ERIS     OPER   

 PROGRAMS   *        TOTAL       INT
 CPU TIMES  *        19.09     18.97
 REAL TIME  *        22.73 SEC
 DISK USED  *         3.13 GB      
 **********************************************************************************************************************************


 PROGRAM * RHF-SCF (CLOSED SHELL)       Authors: W. Meyer, H.-J. Werner


 NUMBER OF ELECTRONS:       8+    8-
 CONVERGENCE THRESHOLDS:    1.00E-10 (Density)    1.00E-13 (Energy)
 MAX. NUMBER OF ITERATIONS:      500
 INTERPOLATION TYPE:            DIIS
 INTERPOLATION STEPS:              2 (START)      1 (STEP)
 LEVEL SHIFTS:                  0.00 (CLOSED)  0.00 (OPEN) 



 Orbital guess generated from atomic densities. Full valence occupancy:    9   2

 Molecular orbital dump at record        2100.2

 Initial occupancy:   7   1

 ITERATION    DDIFF          GRAD             ENERGY        2-EL.EN.            DIPOLE MOMENTS         DIIS   ORB.
    1      0.000D+00      0.000D+00      -129.79487238    153.758252    0.00000    0.58943   -1.04315    0    start
    2      0.000D+00      0.817D-02      -129.82197343    154.975048    0.00000    0.61459   -0.20138    1    diag
    3      0.663D-02      0.632D-02      -129.84593001    155.112050    0.00000    0.55584   -0.59901    2    diag
    4      0.339D-02      0.976D-03      -129.84674508    154.822583    0.00000    0.56353   -0.53692    3    diag
    5      0.610D-03      0.319D-03      -129.84687424    154.916481    0.00000    0.56877   -0.53932    4    diag
    6      0.255D-03      0.925D-04      -129.84689493    154.900205    0.00000    0.56902   -0.53502    5    diag
    7      0.977D-04      0.463D-04      -129.84690105    154.902916    0.00000    0.57023   -0.53231    6    diag
    8      0.677D-04      0.164D-04      -129.84690177    154.902192    0.00000    0.57026   -0.53123    7    diag
    9      0.269D-04      0.317D-05      -129.84690181    154.902071    0.00000    0.57023   -0.53100    8    diag
   10      0.540D-05      0.708D-06      -129.84690181    154.902054    0.00000    0.57019   -0.53097    9    orth
   11      0.102D-05      0.141D-06      -129.84690181    154.902050    0.00000    0.57019   -0.53097    9    diag
   12      0.184D-06      0.291D-07      -129.84690181    154.902050    0.00000    0.57019   -0.53097    9    diag
   13      0.401D-07      0.761D-08      -129.84690181    154.902050    0.00000    0.57019   -0.53097    9    diag
   14      0.111D-07      0.148D-08      -129.84690181    154.902050    0.00000    0.57019   -0.53097    9    diag
   15      0.200D-08      0.421D-09      -129.84690181    154.902050    0.00000    0.57019   -0.53097    9    diag
   16      0.600D-09      0.124D-09      -129.84690181    154.902050    0.00000    0.57019   -0.53097    9    diag
   17      0.110D-09      0.320D-10      -129.84690181    154.902050    0.00000    0.57019   -0.53097    9    diag
   18      0.305D-10      0.107D-10      -129.84690181    154.902050    0.00000    0.57019   -0.53097    9    diag
   19      0.151D-10      0.247D-11      -129.84690181    154.902050    0.00000    0.57019   -0.53097    9    fixocc
   20      0.553D-11      0.439D-12      -129.84690181    154.902050    0.00000    0.57019   -0.53097    9    orth
   21      0.374D-11      0.215D-12      -129.84690181    154.902050    0.00000    0.57019   -0.53097    9    diag
   22      0.253D-11      0.135D-12      -129.84690181    154.902050    0.00000    0.57019   -0.53097    0    orth

 Final occupancy:   7   1

 !RHF STATE 1.1 Energy               -129.846901807359
 Nuclear energy                        30.25337968
 One-electron energy                 -237.55130649
 Two-electron energy                   77.45102500
 Virial quotient                       -1.00189088
 !RHF STATE 1.1 Dipole moment           0.00000000     0.57018524    -0.53096871
 Dipole moment /Debye                   0.00000000     1.44917140    -1.34949944

 Orbital energies:

         1.1          2.1          3.1          4.1          5.1          6.1          7.1          8.1          9.1
    -20.654010   -15.713784    -1.525364    -0.995334    -0.745509    -0.664306    -0.432846     0.026353     0.079482

         1.2          2.2          3.2
     -0.593476     0.061960     0.110237

 HOMO      7.1    -0.432846 =     -11.7783eV
 LUMO      8.1     0.026353 =       0.7171eV
 LUMO-HOMO         0.459200 =      12.4955eV


 **********************************************************************************************************************************
 DATASETS  * FILE   NREC   LENGTH (MB)   RECORD NAMES
              1      19      944.14       500      610      700      900      950      970     1000      129      960     1100   
                                          VAR    BASINP    GEOM    SYMINP    ZMAT    AOBASIS   BASIS     P2S    ABASIS      S 
                                         1400     1410     1200     1210     1080     1600     1650     1300     1700   
                                           T        V       H0       H01     AOSYM     SMH    MOLCAS    ERIS     OPER   

              2       4        3.27       700     1000      520     2100   
                                         GEOM     BASIS   MCVARS     RHF  

 PROGRAMS   *        TOTAL        HF       INT
 CPU TIMES  *        34.94     15.85     18.97
 REAL TIME  *        42.56 SEC
 DISK USED  *         3.13 GB      
 **********************************************************************************************************************************


 PROGRAM * CCSD (Closed-shell coupled cluster)     Authors: C. Hampel, H.-J. Werner, 1991, M. Deegan, P.J. Knowles, 1992


 Convergence thresholds:  THRVAR = 1.00D-08  THRDEN = 1.00D-12

 CCSD(T)     terms to be evaluated (factor= 1.000)


 Number of core orbitals:           2 (   2   0 )
 Number of closed-shell orbitals:   6 (   5   1 )
 Number of external orbitals:     198 ( 123  75 )

 Molecular orbitals read from record     2100.2  Type=RHF/CANONICAL (state 1.1)

 Number of N-1 electron functions:               6
 Number of N-2 electron functions:              21
 Number of singly external CSFs:               690
 Number of doubly external CSFs:            362646
 Total number of CSFs:                      363337

 Length of J-op  integral file:               0.00 MB
 Length of K-op  integral file:               1.60 MB
 Length of 3-ext integral record:             0.00 MB

 Memory could be reduced to 34.67 Mwords without degradation in triples

 Integral transformation finished. Total CPU:   1.97 sec, npass=  1  Memory used:   9.53 MW

 Reference energy:                   -129.84690181

 MP2 singlet pair energy:              -0.30220656
 MP2 triplet pair energy:              -0.17083054
 MP2 correlation energy:               -0.47303710
 MP2 total energy:                   -130.31993890

 SCS-MP2 correlation energy:           -0.46894243   (PS=  1.200000  PT=  0.333333)
 SCS-MP2 total energy:               -130.31584423

 ITER.      SQ.NORM     CORR.ENERGY   TOTAL ENERGY   ENERGY CHANGE        DEN1      VAR(S)    VAR(P)  DIIS     TIME  TIME/IT
   1      1.12162649    -0.47283838  -130.31974019     0.00019872     0.01684885  0.32D-02  0.32D-02  1  1     3.77     1.95
   2      1.13246107    -0.47275052  -130.31965233     0.00008786    -0.01264199  0.11D-03  0.50D-03  2  2     5.56     1.99
   3      1.13887168    -0.47313549  -130.32003730    -0.00038497    -0.00308216  0.50D-04  0.55D-04  3  3     7.45     2.01
   4      1.14168553    -0.47314306  -130.32004487    -0.00000757    -0.00095243  0.45D-05  0.98D-05  4  4     9.31     2.02
   5      1.14280806    -0.47317352  -130.32007533    -0.00003046    -0.00024487  0.11D-05  0.16D-05  5  5    11.13     2.02
   6      1.14316760    -0.47315807  -130.32005988     0.00001545    -0.00005204  0.11D-06  0.39D-06  6  6    12.99     2.03
   7      1.14323919    -0.47315861  -130.32006042    -0.00000054     0.00000287  0.16D-07  0.89D-07  6  1    14.83     2.03
   8      1.14326170    -0.47315886  -130.32006066    -0.00000025    -0.00000114  0.33D-08  0.18D-07  6  2    16.69     2.03
   9      1.14326657    -0.47315846  -130.32006027     0.00000040     0.00000099  0.25D-08  0.21D-08  6  4    18.47     2.03
  10      1.14326906    -0.47315883  -130.32006064    -0.00000037    -0.00000076  0.47D-09  0.25D-09  6  3    20.36     2.03
  11      1.14326882    -0.47315889  -130.32006070    -0.00000006    -0.00000013  0.15D-09  0.35D-10  6  5    22.20     2.03
  12      1.14326786    -0.47315904  -130.32006085    -0.00000014     0.00000036  0.19D-10  0.11D-10  6  6    24.07     2.03
  13      1.14326701    -0.47315908  -130.32006089    -0.00000004     0.00000022  0.58D-11  0.24D-11  6  1    25.95     2.04
  14      1.14326633    -0.47315911  -130.32006092    -0.00000003     0.00000016  0.36D-12  0.50D-12  6  4    27.81     2.04
  15      1.14326612    -0.47315912  -130.32006093    -0.00000001     0.00000003  0.82D-13  0.38D-13  6  2    29.65     2.04
  16      1.14326607    -0.47315912  -130.32006093    -0.00000000     0.00000001  0.22D-13  0.71D-14  6  3    31.48     2.04
  17      1.14326604    -0.47315912  -130.32006093    -0.00000000     0.00000001  0.40D-14  0.10D-14  6  5    33.32     2.04
  18      1.14326604    -0.47315912  -130.32006093    -0.00000000     0.00000000  0.85D-15  0.25D-15  6  6    35.16     2.04
  19      1.14326604    -0.47315912  -130.32006093    -0.00000000     0.00000000  0.10D-15  0.51D-16  6  1    37.02     2.04
  20      1.14326604    -0.47315912  -130.32006093     0.00000000    -0.00000000  0.96D-17  0.74D-17  6  4    38.86     2.04
  21      1.14326604    -0.47315912  -130.32006093     0.00000000    -0.00000000  0.49D-18  0.59D-18  6  3    40.72     2.04
  22      1.14326604    -0.47315912  -130.32006093     0.00000000    -0.00000000  0.12D-18  0.11D-18  6  2    42.61     2.04
  23      1.14326604    -0.47315912  -130.32006093     0.00000000     0.00000000  0.37D-19  0.41D-19  6  5    44.46     2.04
  24      1.14326604    -0.47315912  -130.32006093    -0.00000000     0.00000000  0.30D-20  0.92D-20  6  1    46.30     2.04

 Norm of t1 vector:      0.07750817      S-energy:    -0.00000000      T1 diagnostic:  0.01582129
                                                                       D1 diagnostic:  0.04285233

 Doubles amplitudes (print threshold =  0.500E-01):

         I         J         SYM. A    SYM. B    A         B      T(IJ, AB)

         6         6         2         2         1         1     -0.10169024


 Total CPU time for triples:     20.32 sec


 RESULTS
 =======

  Reference energy                   -129.846901807359
  CCSD singlet pair energy             -0.327193818029
  CCSD triplet pair energy             -0.145965303450
  CCSD correlation energy              -0.473159121481

  Triples (T) contribution             -0.022536167186
  Total correlation energy             -0.495695288667

  CCSD total energy                  -130.320060928840
  CCSD[T] energy                     -130.343691845959
  CCSD-T energy                      -130.342206655285
 !CCSD(T) total energy               -130.342597096026

 Timing summary (sec):

 STEP                 CPU(USER)    SYS     CPU(TOT)    WALL
 Transformation          1.99      0.40      2.39      2.39
 CCSD iterations        44.32      4.64     48.96     48.97
 Triples                20.32      0.51     20.83     20.83

 Program statistics:

 Available memory in ccsd:               994999756
 Min. memory needed in ccsd:               1265322
 Max. memory used in ccsd:                 1555950
 Max. memory used in cckext:               2415326 (24 integral passes)



 **********************************************************************************************************************************
 DATASETS  * FILE   NREC   LENGTH (MB)   RECORD NAMES
              1      20     1044.69       500      610      700      900      950      970     1000      129      960     1100   
                                          VAR    BASINP    GEOM    SYMINP    ZMAT    AOBASIS   BASIS     P2S    ABASIS      S 
                                         1400     1410     1200     1210     1080     1600     1650     1300     1700     1380   
                                           T        V       H0       H01     AOSYM     SMH    MOLCAS    ERIS     OPER     JKOP   

              2       4        3.27       700     1000      520     2100   
                                         GEOM     BASIS   MCVARS     RHF  

 PROGRAMS   *        TOTAL   CCSD(T)        HF       INT
 CPU TIMES  *       101.60     66.65     15.85     18.97
 REAL TIME  *       114.79 SEC
 DISK USED  *         3.13 GB      
 **********************************************************************************************************************************

 CCSD(T)/aug-cc-pVQZ energy=   -130.342597096026

        CCSD(T)         HF-SCF  
   -130.34259710   -129.84690181
 **********************************************************************************************************************************
 Molpro calculation terminated
 Variable memory released
