
 Primary working directories    : /tmp/r2666/234759.maple
 Secondary working directories  : /tmp/r2666/234759.maple
 Wavefunction directory         : /ddn/home4/r2666/wfu/
 Main file repository           : /tmp/r2666/234759.maple/

 SHA1      : d5ffa45e93fdbca01ffc919aa182cfdae0147319
 NAME      : 2015.1.35
 ARCHNAME  : linux/x86_64
 FC        : /opt/intel/composer_xe_2015.1.133/bin/intel64/ifort
 BLASLIB   : -Wl,-_start-group /opt/intel/mkl/lib/intel64/libmkl_intel_ilp64.a /opt/intel/mkl/lib/intel64/libmkl_intel_thread.a /opt/intel/mkl/lib/intel64/libmkl_core.a -Wl,-_end-group
 id        : olemiss

 Nodes     nprocs
 cn096        1

 Using customized tuning parameters: mindgm=1; mindgv=20; mindgc=4; mindgr=1; noblas=0; minvec=7
 default implementation of scratch files=df  

 ***,hno CCSD(T)/TZ-F12 QFF
 memory, 995, m;
 gthresh,energy=1.d-12,zero=1.d-22,oneint=1.d-22,twoint=1.d-22;
 gthresh,optgrad=1.d-8,optstep=1.d-8;
 nocompress;
 geomtyp=xyz
 bohr
 geometry={
 3
          2         2
 N        0.0000000000       -0.1399668740       -1.1550721128
 H        0.0000000000        1.6503121234       -1.9286497023
 O        0.0000000000        0.0314225406        1.1331322242
 }
 
 basis=avqz
   {hf,maxit=500;accu,20;}
 {ccsd(t),nocheck,maxit=250;orbital,IGNORE_ERROR;}

 Variables initialized (889), CPU time= 0.01 sec
 Commands  initialized (702), CPU time= 0.01 sec, 572 directives.
 Default parameters read. Elapsed time= 0.05 sec

 Checking input...
 Passed
1


                                         ***  PROGRAM SYSTEM MOLPRO  ***
                                       Copyright, TTI GmbH Stuttgart, 2015
                                    Version 2015.1 linked Jul  9 2018 13:16:40


 **********************************************************************************************************************************
 LABEL *   hno CCSD(T)/TZ-F12 QFF                                                        
  64 bit serial version                                                                  DATE: 08-Feb-20          TIME: 17:46:11  
 **********************************************************************************************************************************

 SHA1:             d5ffa45e93fdbca01ffc919aa182cfdae0147319
 **********************************************************************************************************************************

 THRESHOLDS:

 ZERO    =  1.00D-22  ONEINT  =  1.00D-22  TWOINT  =  1.00D-22  PREFAC  =  1.00D-14  LOCALI  =  1.00D-09  EORDER  =  1.00D-04
 ENERGY  =  1.00D-12  ETEST   =  0.00D+00  EDENS   =  0.00D+00  THRDEDEF=  1.00D-06  GRADIENT=  1.00D-02  STEP    =  1.00D-03
 ORBITAL =  1.00D-05  CIVEC   =  1.00D-05  COEFF   =  1.00D-04  PRINTCI =  5.00D-02  PUNCHCI =  9.90D+01  OPTGRAD =  3.00D-04
 OPTENERG=  1.00D-06  OPTSTEP =  3.00D-04  THRGRAD =  1.00D-10  COMPRESS=  1.00D-11  VARMIN  =  1.00D-07  VARMAX  =  1.00D-03
 THRDOUB =  0.00D+00  THRDIV  =  1.00D-05  THRRED  =  1.00D-07  THRPSP  =  1.00D+00  THRDC   =  1.00D-10  THRCS   =  1.00D-10
 THRNRM  =  1.00D-08  THREQ   =  0.00D+00  THRDE   =  1.00D+00  THRREF  =  1.00D-05  SPARFAC =  1.00D+00  THRDLP  =  1.00D-07
 THRDIA  =  1.00D-10  THRDLS  =  1.00D-07  THRGPS  =  0.00D+00  THRKEX  =  0.00D+00  THRDIS  =  2.00D-01  THRVAR  =  1.00D-10
 THRLOC  =  1.00D-06  THRGAP  =  1.00D-06  THRLOCT = -1.00D+00  THRGAPT = -1.00D+00  THRORB  =  1.00D-06  THRMLTP =  0.00D+00
 THRCPQCI=  1.00D-10  KEXTA   =  0.00D+00  THRCOARS=  0.00D+00  SYMTOL  =  1.00D-06  GRADTOL =  1.00D-06  THROVL  =  1.00D-08
 THRORTH =  1.00D-08  GRID    =  1.00D-06  GRIDMAX =  1.00D-03  DTMAX   =  0.00D+00  THROCCDE=  1.00D-01  THROCCDE=  1.00D-01



 THRESHOLDS:

 ZERO    =  1.00D-22  ONEINT  =  1.00D-22  TWOINT  =  1.00D-22  PREFAC  =  1.00D-14  LOCALI  =  1.00D-09  EORDER  =  1.00D-04
 ENERGY  =  1.00D-12  ETEST   =  0.00D+00  EDENS   =  0.00D+00  THRDEDEF=  1.00D-06  GRADIENT=  1.00D-02  STEP    =  1.00D-03
 ORBITAL =  1.00D-05  CIVEC   =  1.00D-05  COEFF   =  1.00D-04  PRINTCI =  5.00D-02  PUNCHCI =  9.90D+01  OPTGRAD =  1.00D-08
 OPTENERG=  1.00D-06  OPTSTEP =  1.00D-08  THRGRAD =  1.00D-10  COMPRESS=  1.00D-11  VARMIN  =  1.00D-07  VARMAX  =  1.00D-03
 THRDOUB =  0.00D+00  THRDIV  =  1.00D-05  THRRED  =  1.00D-07  THRPSP  =  1.00D+00  THRDC   =  1.00D-10  THRCS   =  1.00D-10
 THRNRM  =  1.00D-08  THREQ   =  0.00D+00  THRDE   =  1.00D+00  THRREF  =  1.00D-05  SPARFAC =  1.00D+00  THRDLP  =  1.00D-07
 THRDIA  =  1.00D-10  THRDLS  =  1.00D-07  THRGPS  =  0.00D+00  THRKEX  =  0.00D+00  THRDIS  =  2.00D-01  THRVAR  =  1.00D-10
 THRLOC  =  1.00D-06  THRGAP  =  1.00D-06  THRLOCT = -1.00D+00  THRGAPT = -1.00D+00  THRORB  =  1.00D-06  THRMLTP =  0.00D+00
 THRCPQCI=  1.00D-10  KEXTA   =  0.00D+00  THRCOARS=  0.00D+00  SYMTOL  =  1.00D-06  GRADTOL =  1.00D-06  THROVL  =  1.00D-08
 THRORTH =  1.00D-08  GRID    =  1.00D-06  GRIDMAX =  1.00D-03  DTMAX   =  0.00D+00  THROCCDE=  1.00D-01  THROCCDE=  1.00D-01



 Input parameters for SORTINT:

 COMPRESS =    0.000000
 C_FINAL  =    1.000000
 DEBUG    =   -1.000000
 C_SORT1  =    0.000000
 C_SEWARD =    0.000000
 THRESH   =    0.000000
 IO       =  molpro                                                          
 SPRI     =    0.000000
 SETTING GEOMTYP        =    XYZ
 ZUNIT=BOHR
 

 Variable memory set to  995000000 words,  buffer space   230000 words

 SETTING BASIS          =    AVQZ


 Recomputing integrals since basis changed


 Using spherical harmonics

 Library entry N      S aug-cc-pVQZ          selected for orbital group  1
 Library entry N      P aug-cc-pVQZ          selected for orbital group  1
 Library entry N      D aug-cc-pVQZ          selected for orbital group  1
 Library entry N      F aug-cc-pVQZ          selected for orbital group  1
 Library entry N      G aug-cc-pVQZ          selected for orbital group  1
 Library entry H      S aug-cc-pVQZ          selected for orbital group  2
 Library entry H      P aug-cc-pVQZ          selected for orbital group  2
 Library entry H      D aug-cc-pVQZ          selected for orbital group  2
 Library entry H      F aug-cc-pVQZ          selected for orbital group  2
 Library entry O      S aug-cc-pVQZ          selected for orbital group  3
 Library entry O      P aug-cc-pVQZ          selected for orbital group  3
 Library entry O      D aug-cc-pVQZ          selected for orbital group  3
 Library entry O      F aug-cc-pVQZ          selected for orbital group  3
 Library entry O      G aug-cc-pVQZ          selected for orbital group  3


 PROGRAM * SEWARD (Integral evaluation for generally contracted gaussian basis sets)     Author: Roland Lindh, 1990

 Geometry written to block  1 of record 700


 Point group  Cs  



 ATOMIC COORDINATES

 NR  ATOM    CHARGE       X              Y              Z

   1  N       7.00    0.000000000   -0.139966874   -1.155072113
   2  H       1.00    0.000000000    1.650312123   -1.928649702
   3  O       8.00    0.000000000    0.031422541    1.133132224

 Bond lengths in Bohr (Angstrom)

 1-2  1.950261822  1-3  2.294614002
     ( 1.032034112)     ( 1.214257438)

 Bond angles

  2-1-3  109.08559156

 NUCLEAR CHARGE:                   16
 NUMBER OF PRIMITIVE AOS:         293
 NUMBER OF SYMMETRY AOS:          234
 NUMBER OF CONTRACTIONS:          206   ( 130A'  +  76A"  )
 NUMBER OF CORE ORBITALS:           2   (   2A'  +   0A"  )
 NUMBER OF VALENCE ORBITALS:        9   (   7A'  +   2A"  )


 NUCLEAR REPULSION ENERGY   30.30409013

 Eigenvalues of metric

         1 0.579E-04 0.142E-03 0.317E-03 0.435E-03 0.588E-03 0.655E-03 0.980E-03 0.108E-02
         2 0.830E-03 0.152E-02 0.487E-02 0.892E-02 0.984E-02 0.123E-01 0.125E-01 0.181E-01


 Contracted 2-electron integrals neglected if value below      1.0D-22

      109945058. INTEGRALS WRITTEN OUT IN   26849 BLOCKS ON RECORD 1290 OF FILE 1


 NUMBER OF SORTED TWO-ELECTRON INTEGRALS:  115283741.     BUFFER LENGTH:  32768
 NUMBER OF SEGMENTS:   8  SEGMENT LENGTH:   15998004      RECORD LENGTH: 524288

 Memory used in sort:      16.56 MW

 SORT1 READ   109945058. AND WROTE   110865225. INTEGRALS IN    322 RECORDS. CPU TIME:     5.88 SEC, REAL TIME:    42.03 SEC
 SORT2 READ   110865225. AND WROTE   115283741. INTEGRALS IN      8 RECORDS. CPU TIME:     2.59 SEC, REAL TIME:    30.12 SEC

 FILE SIZES:   FILE 1:  1780.6 MBYTE,  FILE 4:  1350.6 MBYTE,   TOTAL:   3131.2 MBYTE

 OPERATOR DM      FOR CENTER  0  COORDINATES:    0.000000    0.000000    0.000000


 **********************************************************************************************************************************
 DATASETS  * FILE   NREC   LENGTH (MB)   RECORD NAMES
              1      19      944.14       500      610      700      900      950      970     1000      129      960     1100   
                                          VAR    BASINP    GEOM    SYMINP    ZMAT    AOBASIS   BASIS     P2S    ABASIS      S 
                                         1400     1410     1200     1210     1080     1600     1650     1300     1700   
                                           T        V       H0       H01     AOSYM     SMH    MOLCAS    ERIS     OPER   

 PROGRAMS   *        TOTAL       INT
 CPU TIMES  *        27.82     27.71
 REAL TIME  *       131.41 SEC
 DISK USED  *         3.13 GB      
 **********************************************************************************************************************************


 PROGRAM * RHF-SCF (CLOSED SHELL)       Authors: W. Meyer, H.-J. Werner


 NUMBER OF ELECTRONS:       8+    8-
 CONVERGENCE THRESHOLDS:    1.00E-10 (Density)    1.00E-13 (Energy)
 MAX. NUMBER OF ITERATIONS:      500
 INTERPOLATION TYPE:            DIIS
 INTERPOLATION STEPS:              2 (START)      1 (STEP)
 LEVEL SHIFTS:                  0.00 (CLOSED)  0.00 (OPEN) 



 Orbital guess generated from atomic densities. Full valence occupancy:    9   2

 Molecular orbital dump at record        2100.2

 Initial occupancy:   7   1

 ITERATION    DDIFF          GRAD             ENERGY        2-EL.EN.            DIPOLE MOMENTS         DIIS   ORB.
    1      0.000D+00      0.000D+00      -129.79629635    153.852526    0.00000    0.61696   -1.04491    0    start
    2      0.000D+00      0.809D-02      -129.82337868    155.055409    0.00000    0.61480   -0.21650    1    diag
    3      0.654D-02      0.619D-02      -129.84630442    155.196436    0.00000    0.56921   -0.60836    2    diag
    4      0.334D-02      0.984D-03      -129.84712259    154.908436    0.00000    0.57613   -0.54560    3    diag
    5      0.613D-03      0.316D-03      -129.84724758    155.001309    0.00000    0.58127   -0.54805    4    diag
    6      0.252D-03      0.901D-04      -129.84726722    154.985348    0.00000    0.58155   -0.54382    5    diag
    7      0.951D-04      0.453D-04      -129.84727306    154.987945    0.00000    0.58271   -0.54113    6    diag
    8      0.661D-04      0.161D-04      -129.84727376    154.987249    0.00000    0.58274   -0.54007    7    diag
    9      0.264D-04      0.311D-05      -129.84727379    154.987135    0.00000    0.58270   -0.53984    8    diag
   10      0.530D-05      0.701D-06      -129.84727379    154.987118    0.00000    0.58267   -0.53981    9    orth
   11      0.101D-05      0.138D-06      -129.84727379    154.987115    0.00000    0.58267   -0.53981    9    diag
   12      0.180D-06      0.282D-07      -129.84727379    154.987115    0.00000    0.58266   -0.53981    9    diag
   13      0.379D-07      0.736D-08      -129.84727379    154.987115    0.00000    0.58266   -0.53981    9    diag
   14      0.105D-07      0.144D-08      -129.84727379    154.987115    0.00000    0.58266   -0.53981    9    diag
   15      0.190D-08      0.409D-09      -129.84727379    154.987115    0.00000    0.58266   -0.53981    9    diag
   16      0.574D-09      0.121D-09      -129.84727379    154.987115    0.00000    0.58266   -0.53981    9    diag
   17      0.104D-09      0.297D-10      -129.84727379    154.987115    0.00000    0.58266   -0.53981    9    diag
   18      0.274D-10      0.956D-11      -129.84727379    154.987115    0.00000    0.58266   -0.53981    9    diag
   19      0.125D-10      0.220D-11      -129.84727379    154.987115    0.00000    0.58266   -0.53981    9    fixocc
   20      0.457D-11      0.361D-12      -129.84727379    154.987115    0.00000    0.58266   -0.53981    0    orth

 Final occupancy:   7   1

 !RHF STATE 1.1 Energy               -129.847273793907
 Nuclear energy                        30.30409013
 One-electron energy                 -237.64492155
 Two-electron energy                   77.49355763
 Virial quotient                       -1.00171075
 !RHF STATE 1.1 Dipole moment           0.00000000     0.58266412    -0.53980765
 Dipole moment /Debye                   0.00000000     1.48088747    -1.37196432

 Orbital energies:

         1.1          2.1          3.1          4.1          5.1          6.1          7.1          8.1          9.1
    -20.654178   -15.710871    -1.524314    -1.001797    -0.747494    -0.664510    -0.433000     0.026225     0.079442

         1.2          2.2          3.2
     -0.592737     0.061500     0.109696

 HOMO      7.1    -0.433000 =     -11.7825eV
 LUMO      8.1     0.026225 =       0.7136eV
 LUMO-HOMO         0.459225 =      12.4961eV


 **********************************************************************************************************************************
 DATASETS  * FILE   NREC   LENGTH (MB)   RECORD NAMES
              1      19      944.14       500      610      700      900      950      970     1000      129      960     1100   
                                          VAR    BASINP    GEOM    SYMINP    ZMAT    AOBASIS   BASIS     P2S    ABASIS      S 
                                         1400     1410     1200     1210     1080     1600     1650     1300     1700   
                                           T        V       H0       H01     AOSYM     SMH    MOLCAS    ERIS     OPER   

              2       4        3.27       700     1000      520     2100   
                                         GEOM     BASIS   MCVARS     RHF  

 PROGRAMS   *        TOTAL        HF       INT
 CPU TIMES  *        39.67     11.85     27.71
 REAL TIME  *       146.17 SEC
 DISK USED  *         3.13 GB      
 **********************************************************************************************************************************


 PROGRAM * CCSD (Closed-shell coupled cluster)     Authors: C. Hampel, H.-J. Werner, 1991, M. Deegan, P.J. Knowles, 1992


 Convergence thresholds:  THRVAR = 1.00D-08  THRDEN = 1.00D-12

 CCSD(T)     terms to be evaluated (factor= 1.000)


 Number of core orbitals:           2 (   2   0 )
 Number of closed-shell orbitals:   6 (   5   1 )
 Number of external orbitals:     198 ( 123  75 )

 Molecular orbitals read from record     2100.2  Type=RHF/CANONICAL (state 1.1)

 Number of N-1 electron functions:               6
 Number of N-2 electron functions:              21
 Number of singly external CSFs:               690
 Number of doubly external CSFs:            362646
 Total number of CSFs:                      363337

 Length of J-op  integral file:               0.00 MB
 Length of K-op  integral file:               1.60 MB
 Length of 3-ext integral record:             0.00 MB

 Memory could be reduced to 34.67 Mwords without degradation in triples

 Integral transformation finished. Total CPU:   2.13 sec, npass=  1  Memory used:   9.53 MW

 Reference energy:                   -129.84727379

 MP2 singlet pair energy:              -0.30182520
 MP2 triplet pair energy:              -0.17060069
 MP2 correlation energy:               -0.47242590
 MP2 total energy:                   -130.31969969

 SCS-MP2 correlation energy:           -0.46834178   (PS=  1.200000  PT=  0.333333)
 SCS-MP2 total energy:               -130.31561558

 ITER.      SQ.NORM     CORR.ENERGY   TOTAL ENERGY   ENERGY CHANGE        DEN1      VAR(S)    VAR(P)  DIIS     TIME  TIME/IT
   1      1.12108117    -0.47225868  -130.31953248     0.00016721     0.01670435  0.32D-02  0.32D-02  1  1     3.59     1.70
   2      1.13183810    -0.47217399  -130.31944779     0.00008469    -0.01256755  0.11D-03  0.49D-03  2  2     5.13     1.96
   3      1.13818652    -0.47255207  -130.31982586    -0.00037808    -0.00304937  0.49D-04  0.55D-04  3  3     6.59     1.93
   4      1.14099693    -0.47256156  -130.31983535    -0.00000949    -0.00094616  0.43D-05  0.99D-05  4  4     8.10     1.91
   5      1.14211832    -0.47259125  -130.31986505    -0.00002969    -0.00024345  0.11D-05  0.17D-05  5  5     9.56     1.88
   6      1.14248086    -0.47257583  -130.31984963     0.00001542    -0.00005225  0.98D-07  0.42D-06  6  6    11.06     1.92
   7      1.14255299    -0.47257673  -130.31985053    -0.00000090     0.00000306  0.14D-07  0.95D-07  6  1    12.58     1.91
   8      1.14257540    -0.47257709  -130.31985088    -0.00000036    -0.00000101  0.35D-08  0.19D-07  6  2    14.09     1.90
   9      1.14258004    -0.47257673  -130.31985053     0.00000036     0.00000097  0.27D-08  0.22D-08  6  4    15.63     1.90
  10      1.14258253    -0.47257711  -130.31985090    -0.00000038    -0.00000076  0.51D-09  0.26D-09  6  3    17.18     1.89
  11      1.14258228    -0.47257717  -130.31985097    -0.00000006    -0.00000014  0.16D-09  0.37D-10  6  5    18.67     1.92
  12      1.14258132    -0.47257732  -130.31985111    -0.00000015     0.00000037  0.19D-10  0.11D-10  6  6    20.15     1.91
  13      1.14258046    -0.47257736  -130.31985116    -0.00000004     0.00000022  0.58D-11  0.25D-11  6  1    21.46     1.89
  14      1.14257977    -0.47257740  -130.31985119    -0.00000003     0.00000016  0.36D-12  0.54D-12  6  4    22.64     1.86
  15      1.14257955    -0.47257740  -130.31985120    -0.00000001     0.00000004  0.72D-13  0.43D-13  6  2    23.83     1.83
  16      1.14257949    -0.47257740  -130.31985120    -0.00000000     0.00000001  0.19D-13  0.76D-14  6  3    25.09     1.81
  17      1.14257947    -0.47257741  -130.31985120    -0.00000000     0.00000001  0.36D-14  0.94D-15  6  5    26.30     1.79
  18      1.14257946    -0.47257741  -130.31985120    -0.00000000     0.00000000  0.80D-15  0.22D-15  6  6    27.49     1.77
  19      1.14257946    -0.47257741  -130.31985120    -0.00000000     0.00000000  0.11D-15  0.46D-16  6  1    28.71     1.75
  20      1.14257946    -0.47257741  -130.31985120     0.00000000    -0.00000000  0.10D-16  0.71D-17  6  4    29.93     1.74
  21      1.14257946    -0.47257741  -130.31985120     0.00000000    -0.00000000  0.44D-18  0.66D-18  6  3    31.13     1.73
  22      1.14257946    -0.47257741  -130.31985120     0.00000000    -0.00000000  0.11D-18  0.13D-18  6  2    32.30     1.72
  23      1.14257946    -0.47257741  -130.31985120     0.00000000     0.00000000  0.29D-19  0.51D-19  6  5    33.54     1.70
  24      1.14257946    -0.47257741  -130.31985120    -0.00000000     0.00000000  0.24D-20  0.11D-19  6  1    34.72     1.70

 Norm of t1 vector:      0.07728317      S-energy:    -0.00000000      T1 diagnostic:  0.01577536
                                                                       D1 diagnostic:  0.04304671

 Doubles amplitudes (print threshold =  0.500E-01):

         I         J         SYM. A    SYM. B    A         B      T(IJ, AB)

         6         6         2         2         1         1     -0.10210980


 Total CPU time for triples:     14.70 sec


 RESULTS
 =======

  Reference energy                   -129.847273793907
  CCSD singlet pair energy             -0.326706044185
  CCSD triplet pair energy             -0.145871361716
  CCSD correlation energy              -0.472577405901

  Triples (T) contribution             -0.022442272962
  Total correlation energy             -0.495019678863

  CCSD total energy                  -130.319851199808
  CCSD[T] energy                     -130.343379793933
  CCSD-T energy                      -130.341907629009
 !CCSD(T) total energy               -130.342293472770

 Timing summary (sec):

 STEP                 CPU(USER)    SYS     CPU(TOT)    WALL
 Transformation          2.15      0.31      2.46      6.44
 CCSD iterations        32.57      4.81     37.38     40.73
 Triples                14.70      0.34     15.04     15.04

 Program statistics:

 Available memory in ccsd:               994999756
 Min. memory needed in ccsd:               1265322
 Max. memory used in ccsd:                 1555950
 Max. memory used in cckext:               2415326 (24 integral passes)



 **********************************************************************************************************************************
 DATASETS  * FILE   NREC   LENGTH (MB)   RECORD NAMES
              1      20     1044.69       500      610      700      900      950      970     1000      129      960     1100   
                                          VAR    BASINP    GEOM    SYMINP    ZMAT    AOBASIS   BASIS     P2S    ABASIS      S 
                                         1400     1410     1200     1210     1080     1600     1650     1300     1700     1380   
                                           T        V       H0       H01     AOSYM     SMH    MOLCAS    ERIS     OPER     JKOP   

              2       4        3.27       700     1000      520     2100   
                                         GEOM     BASIS   MCVARS     RHF  

 PROGRAMS   *        TOTAL   CCSD(T)        HF       INT
 CPU TIMES  *        89.12     49.45     11.85     27.71
 REAL TIME  *       208.61 SEC
 DISK USED  *         3.13 GB      
 **********************************************************************************************************************************

 CCSD(T)/aug-cc-pVQZ energy=   -130.342293472770

        CCSD(T)         HF-SCF  
   -130.34229347   -129.84727379
 **********************************************************************************************************************************
 Molpro calculation terminated
 Variable memory released
