
 Primary working directories    : /tmp/r2666/234847.maple
 Secondary working directories  : /tmp/r2666/234847.maple
 Wavefunction directory         : /ddn/home4/r2666/wfu/
 Main file repository           : /tmp/r2666/234847.maple/

 SHA1      : d5ffa45e93fdbca01ffc919aa182cfdae0147319
 NAME      : 2015.1.35
 ARCHNAME  : linux/x86_64
 FC        : /opt/intel/composer_xe_2015.1.133/bin/intel64/ifort
 BLASLIB   : -Wl,-_start-group /opt/intel/mkl/lib/intel64/libmkl_intel_ilp64.a /opt/intel/mkl/lib/intel64/libmkl_intel_thread.a /opt/intel/mkl/lib/intel64/libmkl_core.a -Wl,-_end-group
 id        : olemiss

 Nodes     nprocs
 cn034        1

 Using customized tuning parameters: mindgm=1; mindgv=20; mindgc=4; mindgr=1; noblas=0; minvec=7
 default implementation of scratch files=df  

 ***,hno CCSD(T)/TZ-F12 QFF
 memory, 995, m;
 gthresh,energy=1.d-12,zero=1.d-22,oneint=1.d-22,twoint=1.d-22;
 gthresh,optgrad=1.d-8,optstep=1.d-8;
 nocompress;
 geomtyp=xyz
 bohr
 geometry={
 3
         90        90
 N        0.0000000000       -0.1618367992       -1.1320753088
 H        0.0000000000        1.6691142545       -1.9306016718
 O        0.0000000000        0.0344903347        1.1120873895
 }
 
 basis=avqz
   {hf,maxit=500;accu,20;}
 {ccsd(t),nocheck,maxit=250;orbital,IGNORE_ERROR;}

 Variables initialized (889), CPU time= 0.00 sec
 Commands  initialized (702), CPU time= 0.01 sec, 572 directives.
 Default parameters read. Elapsed time= 0.05 sec

 Checking input...
 Passed
1


                                         ***  PROGRAM SYSTEM MOLPRO  ***
                                       Copyright, TTI GmbH Stuttgart, 2015
                                    Version 2015.1 linked Jul  9 2018 13:16:40


 **********************************************************************************************************************************
 LABEL *   hno CCSD(T)/TZ-F12 QFF                                                        
  64 bit serial version                                                                  DATE: 08-Feb-20          TIME: 17:54:11  
 **********************************************************************************************************************************

 SHA1:             d5ffa45e93fdbca01ffc919aa182cfdae0147319
 **********************************************************************************************************************************

 THRESHOLDS:

 ZERO    =  1.00D-22  ONEINT  =  1.00D-22  TWOINT  =  1.00D-22  PREFAC  =  1.00D-14  LOCALI  =  1.00D-09  EORDER  =  1.00D-04
 ENERGY  =  1.00D-12  ETEST   =  0.00D+00  EDENS   =  0.00D+00  THRDEDEF=  1.00D-06  GRADIENT=  1.00D-02  STEP    =  1.00D-03
 ORBITAL =  1.00D-05  CIVEC   =  1.00D-05  COEFF   =  1.00D-04  PRINTCI =  5.00D-02  PUNCHCI =  9.90D+01  OPTGRAD =  3.00D-04
 OPTENERG=  1.00D-06  OPTSTEP =  3.00D-04  THRGRAD =  1.00D-10  COMPRESS=  1.00D-11  VARMIN  =  1.00D-07  VARMAX  =  1.00D-03
 THRDOUB =  0.00D+00  THRDIV  =  1.00D-05  THRRED  =  1.00D-07  THRPSP  =  1.00D+00  THRDC   =  1.00D-10  THRCS   =  1.00D-10
 THRNRM  =  1.00D-08  THREQ   =  0.00D+00  THRDE   =  1.00D+00  THRREF  =  1.00D-05  SPARFAC =  1.00D+00  THRDLP  =  1.00D-07
 THRDIA  =  1.00D-10  THRDLS  =  1.00D-07  THRGPS  =  0.00D+00  THRKEX  =  0.00D+00  THRDIS  =  2.00D-01  THRVAR  =  1.00D-10
 THRLOC  =  1.00D-06  THRGAP  =  1.00D-06  THRLOCT = -1.00D+00  THRGAPT = -1.00D+00  THRORB  =  1.00D-06  THRMLTP =  0.00D+00
 THRCPQCI=  1.00D-10  KEXTA   =  0.00D+00  THRCOARS=  0.00D+00  SYMTOL  =  1.00D-06  GRADTOL =  1.00D-06  THROVL  =  1.00D-08
 THRORTH =  1.00D-08  GRID    =  1.00D-06  GRIDMAX =  1.00D-03  DTMAX   =  0.00D+00  THROCCDE=  1.00D-01  THROCCDE=  1.00D-01



 THRESHOLDS:

 ZERO    =  1.00D-22  ONEINT  =  1.00D-22  TWOINT  =  1.00D-22  PREFAC  =  1.00D-14  LOCALI  =  1.00D-09  EORDER  =  1.00D-04
 ENERGY  =  1.00D-12  ETEST   =  0.00D+00  EDENS   =  0.00D+00  THRDEDEF=  1.00D-06  GRADIENT=  1.00D-02  STEP    =  1.00D-03
 ORBITAL =  1.00D-05  CIVEC   =  1.00D-05  COEFF   =  1.00D-04  PRINTCI =  5.00D-02  PUNCHCI =  9.90D+01  OPTGRAD =  1.00D-08
 OPTENERG=  1.00D-06  OPTSTEP =  1.00D-08  THRGRAD =  1.00D-10  COMPRESS=  1.00D-11  VARMIN  =  1.00D-07  VARMAX  =  1.00D-03
 THRDOUB =  0.00D+00  THRDIV  =  1.00D-05  THRRED  =  1.00D-07  THRPSP  =  1.00D+00  THRDC   =  1.00D-10  THRCS   =  1.00D-10
 THRNRM  =  1.00D-08  THREQ   =  0.00D+00  THRDE   =  1.00D+00  THRREF  =  1.00D-05  SPARFAC =  1.00D+00  THRDLP  =  1.00D-07
 THRDIA  =  1.00D-10  THRDLS  =  1.00D-07  THRGPS  =  0.00D+00  THRKEX  =  0.00D+00  THRDIS  =  2.00D-01  THRVAR  =  1.00D-10
 THRLOC  =  1.00D-06  THRGAP  =  1.00D-06  THRLOCT = -1.00D+00  THRGAPT = -1.00D+00  THRORB  =  1.00D-06  THRMLTP =  0.00D+00
 THRCPQCI=  1.00D-10  KEXTA   =  0.00D+00  THRCOARS=  0.00D+00  SYMTOL  =  1.00D-06  GRADTOL =  1.00D-06  THROVL  =  1.00D-08
 THRORTH =  1.00D-08  GRID    =  1.00D-06  GRIDMAX =  1.00D-03  DTMAX   =  0.00D+00  THROCCDE=  1.00D-01  THROCCDE=  1.00D-01



 Input parameters for SORTINT:

 COMPRESS =    0.000000
 C_FINAL  =    1.000000
 DEBUG    =   -1.000000
 C_SORT1  =    0.000000
 C_SEWARD =    0.000000
 THRESH   =    0.000000
 IO       =  molpro                                                          
 SPRI     =    0.000000
 SETTING GEOMTYP        =    XYZ
 ZUNIT=BOHR
 

 Variable memory set to  995000000 words,  buffer space   230000 words

 SETTING BASIS          =    AVQZ


 Recomputing integrals since basis changed


 Using spherical harmonics

 Library entry N      S aug-cc-pVQZ          selected for orbital group  1
 Library entry N      P aug-cc-pVQZ          selected for orbital group  1
 Library entry N      D aug-cc-pVQZ          selected for orbital group  1
 Library entry N      F aug-cc-pVQZ          selected for orbital group  1
 Library entry N      G aug-cc-pVQZ          selected for orbital group  1
 Library entry H      S aug-cc-pVQZ          selected for orbital group  2
 Library entry H      P aug-cc-pVQZ          selected for orbital group  2
 Library entry H      D aug-cc-pVQZ          selected for orbital group  2
 Library entry H      F aug-cc-pVQZ          selected for orbital group  2
 Library entry O      S aug-cc-pVQZ          selected for orbital group  3
 Library entry O      P aug-cc-pVQZ          selected for orbital group  3
 Library entry O      D aug-cc-pVQZ          selected for orbital group  3
 Library entry O      F aug-cc-pVQZ          selected for orbital group  3
 Library entry O      G aug-cc-pVQZ          selected for orbital group  3


 PROGRAM * SEWARD (Integral evaluation for generally contracted gaussian basis sets)     Author: Roland Lindh, 1990

 Geometry written to block  1 of record 700


 Point group  Cs  



 ATOMIC COORDINATES

 NR  ATOM    CHARGE       X              Y              Z

   1  N       7.00    0.000000000   -0.161836799   -1.132075309
   2  H       1.00    0.000000000    1.669114254   -1.930601672
   3  O       8.00    0.000000000    0.034490335    1.112087390

 Bond lengths in Bohr (Angstrom)

 1-2  1.997504972  1-3  2.252734019
     ( 1.057034110)     ( 1.192095505)

 Bond angles

  2-1-3  108.56358938

 NUCLEAR CHARGE:                   16
 NUMBER OF PRIMITIVE AOS:         293
 NUMBER OF SYMMETRY AOS:          234
 NUMBER OF CONTRACTIONS:          206   ( 130A'  +  76A"  )
 NUMBER OF CORE ORBITALS:           2   (   2A'  +   0A"  )
 NUMBER OF VALENCE ORBITALS:        9   (   7A'  +   2A"  )


 NUCLEAR REPULSION ENERGY   30.67922547

 Eigenvalues of metric

         1 0.585E-04 0.143E-03 0.313E-03 0.432E-03 0.562E-03 0.678E-03 0.994E-03 0.106E-02
         2 0.784E-03 0.165E-02 0.478E-02 0.886E-02 0.101E-01 0.118E-01 0.123E-01 0.184E-01


 Contracted 2-electron integrals neglected if value below      1.0D-22

      109945084. INTEGRALS WRITTEN OUT IN   26849 BLOCKS ON RECORD 1290 OF FILE 1


 NUMBER OF SORTED TWO-ELECTRON INTEGRALS:  115283741.     BUFFER LENGTH:  32768
 NUMBER OF SEGMENTS:   8  SEGMENT LENGTH:   15998004      RECORD LENGTH: 524288

 Memory used in sort:      16.56 MW

 SORT1 READ   109945084. AND WROTE   110865251. INTEGRALS IN    322 RECORDS. CPU TIME:     3.21 SEC, REAL TIME:     4.12 SEC
 SORT2 READ   110865251. AND WROTE   115283741. INTEGRALS IN      8 RECORDS. CPU TIME:     1.57 SEC, REAL TIME:     2.13 SEC

 FILE SIZES:   FILE 1:  1780.6 MBYTE,  FILE 4:  1350.6 MBYTE,   TOTAL:   3131.2 MBYTE

 OPERATOR DM      FOR CENTER  0  COORDINATES:    0.000000    0.000000    0.000000


 **********************************************************************************************************************************
 DATASETS  * FILE   NREC   LENGTH (MB)   RECORD NAMES
              1      19      944.14       500      610      700      900      950      970     1000      129      960     1100   
                                          VAR    BASINP    GEOM    SYMINP    ZMAT    AOBASIS   BASIS     P2S    ABASIS      S 
                                         1400     1410     1200     1210     1080     1600     1650     1300     1700   
                                           T        V       H0       H01     AOSYM     SMH    MOLCAS    ERIS     OPER   

 PROGRAMS   *        TOTAL       INT
 CPU TIMES  *        16.02     15.94
 REAL TIME  *        19.19 SEC
 DISK USED  *         3.13 GB      
 **********************************************************************************************************************************


 PROGRAM * RHF-SCF (CLOSED SHELL)       Authors: W. Meyer, H.-J. Werner


 NUMBER OF ELECTRONS:       8+    8-
 CONVERGENCE THRESHOLDS:    1.00E-10 (Density)    1.00E-13 (Energy)
 MAX. NUMBER OF ITERATIONS:      500
 INTERPOLATION TYPE:            DIIS
 INTERPOLATION STEPS:              2 (START)      1 (STEP)
 LEVEL SHIFTS:                  0.00 (CLOSED)  0.00 (OPEN) 



 Orbital guess generated from atomic densities. Full valence occupancy:    9   2

 Molecular orbital dump at record        2100.2

 Initial occupancy:   7   1

 ITERATION    DDIFF          GRAD             ENERGY        2-EL.EN.            DIPOLE MOMENTS         DIIS   ORB.
    1      0.000D+00      0.000D+00      -129.80043337    154.510665    0.00000    0.58688   -0.97634    0    start
    2      0.000D+00      0.799D-02      -129.82810102    155.780301    0.00000    0.59928   -0.21302    1    diag
    3      0.634D-02      0.589D-02      -129.84868167    155.866089    0.00000    0.54845   -0.57016    2    diag
    4      0.320D-02      0.952D-03      -129.84945099    155.592575    0.00000    0.55601   -0.51150    3    diag
    5      0.593D-03      0.309D-03      -129.84957175    155.685230    0.00000    0.56143   -0.51445    4    diag
    6      0.246D-03      0.895D-04      -129.84959096    155.669228    0.00000    0.56181   -0.51056    5    diag
    7      0.940D-04      0.438D-04      -129.84959633    155.672164    0.00000    0.56310   -0.50818    6    diag
    8      0.640D-04      0.146D-04      -129.84959686    155.671523    0.00000    0.56316   -0.50728    7    diag
    9      0.229D-04      0.276D-05      -129.84959688    155.671417    0.00000    0.56312   -0.50708    8    diag
   10      0.441D-05      0.650D-06      -129.84959689    155.671399    0.00000    0.56309   -0.50705    9    orth
   11      0.938D-06      0.134D-06      -129.84959689    155.671395    0.00000    0.56308   -0.50705    9    diag
   12      0.182D-06      0.268D-07      -129.84959689    155.671395    0.00000    0.56308   -0.50705    9    diag
   13      0.395D-07      0.677D-08      -129.84959689    155.671394    0.00000    0.56308   -0.50705    9    diag
   14      0.104D-07      0.138D-08      -129.84959689    155.671394    0.00000    0.56308   -0.50705    9    diag
   15      0.197D-08      0.408D-09      -129.84959689    155.671394    0.00000    0.56308   -0.50705    9    diag
   16      0.584D-09      0.128D-09      -129.84959689    155.671394    0.00000    0.56308   -0.50705    9    diag
   17      0.119D-09      0.355D-10      -129.84959689    155.671394    0.00000    0.56308   -0.50705    9    diag
   18      0.348D-10      0.118D-10      -129.84959689    155.671394    0.00000    0.56308   -0.50705    0    orth

 Final occupancy:   7   1

 !RHF STATE 1.1 Energy               -129.849596885377
 Nuclear energy                        30.67922547
 One-electron energy                 -238.36451956
 Two-electron energy                   77.83569721
 Virial quotient                       -1.00132342
 !RHF STATE 1.1 Dipole moment           0.00000000     0.56308141    -0.50704656
 Dipole moment /Debye                   0.00000000     1.43111645    -1.28869939

 Orbital energies:

         1.1          2.1          3.1          4.1          5.1          6.1          7.1          8.1          9.1
    -20.652377   -15.710550    -1.542582    -0.989817    -0.751581    -0.670806    -0.425043     0.026537     0.079506

         1.2          2.2          3.2
     -0.603807     0.067162     0.111356

 HOMO      7.1    -0.425043 =     -11.5660eV
 LUMO      8.1     0.026537 =       0.7221eV
 LUMO-HOMO         0.451580 =      12.2881eV


 **********************************************************************************************************************************
 DATASETS  * FILE   NREC   LENGTH (MB)   RECORD NAMES
              1      19      944.14       500      610      700      900      950      970     1000      129      960     1100   
                                          VAR    BASINP    GEOM    SYMINP    ZMAT    AOBASIS   BASIS     P2S    ABASIS      S 
                                         1400     1410     1200     1210     1080     1600     1650     1300     1700   
                                           T        V       H0       H01     AOSYM     SMH    MOLCAS    ERIS     OPER   

              2       4        3.27       700     1000      520     2100   
                                         GEOM     BASIS   MCVARS     RHF  

 PROGRAMS   *        TOTAL        HF       INT
 CPU TIMES  *        26.32     10.30     15.94
 REAL TIME  *        32.87 SEC
 DISK USED  *         3.13 GB      
 **********************************************************************************************************************************


 PROGRAM * CCSD (Closed-shell coupled cluster)     Authors: C. Hampel, H.-J. Werner, 1991, M. Deegan, P.J. Knowles, 1992


 Convergence thresholds:  THRVAR = 1.00D-08  THRDEN = 1.00D-12

 CCSD(T)     terms to be evaluated (factor= 1.000)


 Number of core orbitals:           2 (   2   0 )
 Number of closed-shell orbitals:   6 (   5   1 )
 Number of external orbitals:     198 ( 123  75 )

 Molecular orbitals read from record     2100.2  Type=RHF/CANONICAL (state 1.1)

 Number of N-1 electron functions:               6
 Number of N-2 electron functions:              21
 Number of singly external CSFs:               690
 Number of doubly external CSFs:            362646
 Total number of CSFs:                      363337

 Length of J-op  integral file:               0.00 MB
 Length of K-op  integral file:               1.60 MB
 Length of 3-ext integral record:             0.00 MB

 Memory could be reduced to 34.67 Mwords without degradation in triples

 Integral transformation finished. Total CPU:   1.92 sec, npass=  1  Memory used:   9.53 MW

 Reference energy:                   -129.84959689

 MP2 singlet pair energy:              -0.30012649
 MP2 triplet pair energy:              -0.16943975
 MP2 correlation energy:               -0.46956625
 MP2 total energy:                   -130.31916313

 SCS-MP2 correlation energy:           -0.46558097   (PS=  1.200000  PT=  0.333333)
 SCS-MP2 total energy:               -130.31517786

 ITER.      SQ.NORM     CORR.ENERGY   TOTAL ENERGY   ENERGY CHANGE        DEN1      VAR(S)    VAR(P)  DIIS     TIME  TIME/IT
   1      1.11952737    -0.47020076  -130.31979764    -0.00063451     0.01516690  0.30D-02  0.30D-02  1  1     3.61     1.79
   2      1.12988275    -0.47028094  -130.31987782    -0.00008018    -0.01213837  0.96D-04  0.47D-03  2  2     5.31     1.83
   3      1.13591901    -0.47063941  -130.32023630    -0.00035847    -0.00296138  0.45D-04  0.50D-04  3  3     6.95     1.85
   4      1.13851050    -0.47064474  -130.32024163    -0.00000533    -0.00089353  0.40D-05  0.90D-05  4  4     8.63     1.85
   5      1.13951929    -0.47067179  -130.32026867    -0.00002704    -0.00022105  0.11D-05  0.16D-05  5  5    10.27     1.86
   6      1.13985239    -0.47065869  -130.32025557     0.00001310    -0.00004724  0.11D-06  0.39D-06  6  6    11.90     1.86
   7      1.13992651    -0.47065885  -130.32025574    -0.00000017     0.00000164  0.18D-07  0.85D-07  6  1    13.55     1.86
   8      1.13994913    -0.47065932  -130.32025621    -0.00000047    -0.00000108  0.37D-08  0.16D-07  6  2    15.24     1.86
   9      1.13995748    -0.47065882  -130.32025571     0.00000050    -0.00000042  0.21D-08  0.15D-08  6  3    16.86     1.86
  10      1.13995316    -0.47065953  -130.32025642    -0.00000071     0.00000143  0.29D-09  0.24D-09  6  5    18.53     1.86
  11      1.13995466    -0.47065950  -130.32025639     0.00000003    -0.00000026  0.84D-10  0.21D-10  6  4    20.21     1.86
  12      1.13995426    -0.47065956  -130.32025645    -0.00000006     0.00000003  0.16D-10  0.54D-11  6  6    21.85     1.86
  13      1.13995408    -0.47065957  -130.32025645    -0.00000000    -0.00000003  0.31D-11  0.76D-12  6  1    23.45     1.86
  14      1.13995383    -0.47065958  -130.32025646    -0.00000001     0.00000003  0.43D-12  0.15D-12  6  3    25.08     1.86
  15      1.13995376    -0.47065958  -130.32025647    -0.00000000     0.00000001  0.11D-12  0.21D-13  6  2    26.74     1.86
  16      1.13995375    -0.47065958  -130.32025646     0.00000000     0.00000000  0.26D-13  0.91D-14  6  4    28.36     1.86
  17      1.13995375    -0.47065958  -130.32025646    -0.00000000    -0.00000000  0.12D-14  0.99D-15  6  5    30.05     1.86
  18      1.13995376    -0.47065958  -130.32025646     0.00000000    -0.00000000  0.22D-15  0.23D-15  6  6    31.69     1.86
  19      1.13995376    -0.47065958  -130.32025646     0.00000000    -0.00000000  0.47D-16  0.24D-16  6  1    33.35     1.86
  20      1.13995376    -0.47065958  -130.32025646     0.00000000    -0.00000000  0.79D-17  0.47D-17  6  2    35.00     1.86
  21      1.13995376    -0.47065958  -130.32025646    -0.00000000     0.00000000  0.10D-17  0.63D-18  6  3    36.66     1.86
  22      1.13995376    -0.47065958  -130.32025646    -0.00000000     0.00000000  0.16D-18  0.12D-18  6  5    38.28     1.86
  23      1.13995376    -0.47065958  -130.32025646    -0.00000000     0.00000000  0.22D-19  0.17D-19  6  4    39.94     1.86
  24      1.13995376    -0.47065958  -130.32025646    -0.00000000     0.00000000  0.52D-20  0.21D-20  6  1    41.54     1.86
  25      1.13995376    -0.47065958  -130.32025646     0.00000000    -0.00000000  0.13D-20  0.55D-21  6  6    43.21     1.86
  26      1.13995376    -0.47065958  -130.32025646     0.00000000    -0.00000000  0.26D-21  0.18D-21  6  2    44.89     1.86

 Norm of t1 vector:      0.07455873      S-energy:     0.00000000      T1 diagnostic:  0.01521924
                                                                       D1 diagnostic:  0.04016365

 Doubles amplitudes (print threshold =  0.500E-01):

         I         J         SYM. A    SYM. B    A         B      T(IJ, AB)

         6         6         2         2         1         1     -0.08971358


 Total CPU time for triples:     18.75 sec


 RESULTS
 =======

  Reference energy                   -129.849596885377
  CCSD singlet pair energy             -0.325027434335
  CCSD triplet pair energy             -0.145632144593
  CCSD correlation energy              -0.470659578927

  Triples (T) contribution             -0.021906734506
  Total correlation energy             -0.492566313432

  CCSD total energy                  -130.320256464303
  CCSD[T] energy                     -130.343177015122
  CCSD-T energy                      -130.341791944375
 !CCSD(T) total energy               -130.342163198809

 Timing summary (sec):

 STEP                 CPU(USER)    SYS     CPU(TOT)    WALL
 Transformation          1.94      0.31      2.25      2.49
 CCSD iterations        42.96      5.39     48.35     48.34
 Triples                18.75      0.47     19.22     19.23

 Program statistics:

 Available memory in ccsd:               994999756
 Min. memory needed in ccsd:               1265322
 Max. memory used in ccsd:                 1555950
 Max. memory used in cckext:               2415326 (26 integral passes)



 **********************************************************************************************************************************
 DATASETS  * FILE   NREC   LENGTH (MB)   RECORD NAMES
              1      20     1044.69       500      610      700      900      950      970     1000      129      960     1100   
                                          VAR    BASINP    GEOM    SYMINP    ZMAT    AOBASIS   BASIS     P2S    ABASIS      S 
                                         1400     1410     1200     1210     1080     1600     1650     1300     1700     1380   
                                           T        V       H0       H01     AOSYM     SMH    MOLCAS    ERIS     OPER     JKOP   

              2       4        3.27       700     1000      520     2100   
                                         GEOM     BASIS   MCVARS     RHF  

 PROGRAMS   *        TOTAL   CCSD(T)        HF       INT
 CPU TIMES  *        89.98     63.66     10.30     15.94
 REAL TIME  *       102.98 SEC
 DISK USED  *         3.13 GB      
 **********************************************************************************************************************************

 CCSD(T)/aug-cc-pVQZ energy=   -130.342163198809

        CCSD(T)         HF-SCF  
   -130.34216320   -129.84959689
 **********************************************************************************************************************************
 Molpro calculation terminated
 Variable memory released
