
 Primary working directories    : /tmp/r2666/234802.maple
 Secondary working directories  : /tmp/r2666/234802.maple
 Wavefunction directory         : /ddn/home4/r2666/wfu/
 Main file repository           : /tmp/r2666/234802.maple/

 SHA1      : d5ffa45e93fdbca01ffc919aa182cfdae0147319
 NAME      : 2015.1.35
 ARCHNAME  : linux/x86_64
 FC        : /opt/intel/composer_xe_2015.1.133/bin/intel64/ifort
 BLASLIB   : -Wl,-_start-group /opt/intel/mkl/lib/intel64/libmkl_intel_ilp64.a /opt/intel/mkl/lib/intel64/libmkl_intel_thread.a /opt/intel/mkl/lib/intel64/libmkl_core.a -Wl,-_end-group
 id        : olemiss

 Nodes     nprocs
 cn092        1

 Using customized tuning parameters: mindgm=1; mindgv=20; mindgc=4; mindgr=1; noblas=0; minvec=7
 default implementation of scratch files=df  

 ***,hno CCSD(T)/TZ-F12 QFF
 memory, 995, m;
 gthresh,energy=1.d-12,zero=1.d-22,oneint=1.d-22,twoint=1.d-22;
 gthresh,optgrad=1.d-8,optstep=1.d-8;
 nocompress;
 geomtyp=xyz
 bohr
 geometry={
 3
         45        45
 N        0.0000000000       -0.1522579308       -1.1567714609
 H        0.0000000000        1.6650318528       -1.9392970650
 O        0.0000000000        0.0289938680        1.1454789349
 }
 
 basis=avqz
   {hf,maxit=500;accu,20;}
 {ccsd(t),nocheck,maxit=250;orbital,IGNORE_ERROR;}

 Variables initialized (889), CPU time= 0.00 sec
 Commands  initialized (702), CPU time= 0.00 sec, 572 directives.
 Default parameters read. Elapsed time= 0.05 sec

 Checking input...
 Passed
1


                                         ***  PROGRAM SYSTEM MOLPRO  ***
                                       Copyright, TTI GmbH Stuttgart, 2015
                                    Version 2015.1 linked Jul  9 2018 13:16:40


 **********************************************************************************************************************************
 LABEL *   hno CCSD(T)/TZ-F12 QFF                                                        
  64 bit serial version                                                                  DATE: 08-Feb-20          TIME: 17:52:19  
 **********************************************************************************************************************************

 SHA1:             d5ffa45e93fdbca01ffc919aa182cfdae0147319
 **********************************************************************************************************************************

 THRESHOLDS:

 ZERO    =  1.00D-22  ONEINT  =  1.00D-22  TWOINT  =  1.00D-22  PREFAC  =  1.00D-14  LOCALI  =  1.00D-09  EORDER  =  1.00D-04
 ENERGY  =  1.00D-12  ETEST   =  0.00D+00  EDENS   =  0.00D+00  THRDEDEF=  1.00D-06  GRADIENT=  1.00D-02  STEP    =  1.00D-03
 ORBITAL =  1.00D-05  CIVEC   =  1.00D-05  COEFF   =  1.00D-04  PRINTCI =  5.00D-02  PUNCHCI =  9.90D+01  OPTGRAD =  3.00D-04
 OPTENERG=  1.00D-06  OPTSTEP =  3.00D-04  THRGRAD =  1.00D-10  COMPRESS=  1.00D-11  VARMIN  =  1.00D-07  VARMAX  =  1.00D-03
 THRDOUB =  0.00D+00  THRDIV  =  1.00D-05  THRRED  =  1.00D-07  THRPSP  =  1.00D+00  THRDC   =  1.00D-10  THRCS   =  1.00D-10
 THRNRM  =  1.00D-08  THREQ   =  0.00D+00  THRDE   =  1.00D+00  THRREF  =  1.00D-05  SPARFAC =  1.00D+00  THRDLP  =  1.00D-07
 THRDIA  =  1.00D-10  THRDLS  =  1.00D-07  THRGPS  =  0.00D+00  THRKEX  =  0.00D+00  THRDIS  =  2.00D-01  THRVAR  =  1.00D-10
 THRLOC  =  1.00D-06  THRGAP  =  1.00D-06  THRLOCT = -1.00D+00  THRGAPT = -1.00D+00  THRORB  =  1.00D-06  THRMLTP =  0.00D+00
 THRCPQCI=  1.00D-10  KEXTA   =  0.00D+00  THRCOARS=  0.00D+00  SYMTOL  =  1.00D-06  GRADTOL =  1.00D-06  THROVL  =  1.00D-08
 THRORTH =  1.00D-08  GRID    =  1.00D-06  GRIDMAX =  1.00D-03  DTMAX   =  0.00D+00  THROCCDE=  1.00D-01  THROCCDE=  1.00D-01



 THRESHOLDS:

 ZERO    =  1.00D-22  ONEINT  =  1.00D-22  TWOINT  =  1.00D-22  PREFAC  =  1.00D-14  LOCALI  =  1.00D-09  EORDER  =  1.00D-04
 ENERGY  =  1.00D-12  ETEST   =  0.00D+00  EDENS   =  0.00D+00  THRDEDEF=  1.00D-06  GRADIENT=  1.00D-02  STEP    =  1.00D-03
 ORBITAL =  1.00D-05  CIVEC   =  1.00D-05  COEFF   =  1.00D-04  PRINTCI =  5.00D-02  PUNCHCI =  9.90D+01  OPTGRAD =  1.00D-08
 OPTENERG=  1.00D-06  OPTSTEP =  1.00D-08  THRGRAD =  1.00D-10  COMPRESS=  1.00D-11  VARMIN  =  1.00D-07  VARMAX  =  1.00D-03
 THRDOUB =  0.00D+00  THRDIV  =  1.00D-05  THRRED  =  1.00D-07  THRPSP  =  1.00D+00  THRDC   =  1.00D-10  THRCS   =  1.00D-10
 THRNRM  =  1.00D-08  THREQ   =  0.00D+00  THRDE   =  1.00D+00  THRREF  =  1.00D-05  SPARFAC =  1.00D+00  THRDLP  =  1.00D-07
 THRDIA  =  1.00D-10  THRDLS  =  1.00D-07  THRGPS  =  0.00D+00  THRKEX  =  0.00D+00  THRDIS  =  2.00D-01  THRVAR  =  1.00D-10
 THRLOC  =  1.00D-06  THRGAP  =  1.00D-06  THRLOCT = -1.00D+00  THRGAPT = -1.00D+00  THRORB  =  1.00D-06  THRMLTP =  0.00D+00
 THRCPQCI=  1.00D-10  KEXTA   =  0.00D+00  THRCOARS=  0.00D+00  SYMTOL  =  1.00D-06  GRADTOL =  1.00D-06  THROVL  =  1.00D-08
 THRORTH =  1.00D-08  GRID    =  1.00D-06  GRIDMAX =  1.00D-03  DTMAX   =  0.00D+00  THROCCDE=  1.00D-01  THROCCDE=  1.00D-01



 Input parameters for SORTINT:

 COMPRESS =    0.000000
 C_FINAL  =    1.000000
 DEBUG    =   -1.000000
 C_SORT1  =    0.000000
 C_SEWARD =    0.000000
 THRESH   =    0.000000
 IO       =  molpro                                                          
 SPRI     =    0.000000
 SETTING GEOMTYP        =    XYZ
 ZUNIT=BOHR
 

 Variable memory set to  995000000 words,  buffer space   230000 words

 SETTING BASIS          =    AVQZ


 Recomputing integrals since basis changed


 Using spherical harmonics

 Library entry N      S aug-cc-pVQZ          selected for orbital group  1
 Library entry N      P aug-cc-pVQZ          selected for orbital group  1
 Library entry N      D aug-cc-pVQZ          selected for orbital group  1
 Library entry N      F aug-cc-pVQZ          selected for orbital group  1
 Library entry N      G aug-cc-pVQZ          selected for orbital group  1
 Library entry H      S aug-cc-pVQZ          selected for orbital group  2
 Library entry H      P aug-cc-pVQZ          selected for orbital group  2
 Library entry H      D aug-cc-pVQZ          selected for orbital group  2
 Library entry H      F aug-cc-pVQZ          selected for orbital group  2
 Library entry O      S aug-cc-pVQZ          selected for orbital group  3
 Library entry O      P aug-cc-pVQZ          selected for orbital group  3
 Library entry O      D aug-cc-pVQZ          selected for orbital group  3
 Library entry O      F aug-cc-pVQZ          selected for orbital group  3
 Library entry O      G aug-cc-pVQZ          selected for orbital group  3


 PROGRAM * SEWARD (Integral evaluation for generally contracted gaussian basis sets)     Author: Roland Lindh, 1990

 Geometry written to block  1 of record 700


 Point group  Cs  



 ATOMIC COORDINATES

 NR  ATOM    CHARGE       X              Y              Z

   1  N       7.00    0.000000000   -0.152257931   -1.156771461
   2  H       1.00    0.000000000    1.665031853   -1.939297065
   3  O       8.00    0.000000000    0.028993868    1.145478935

 Bond lengths in Bohr (Angstrom)

 1-2  1.978607712  1-3  2.309374179
     ( 1.047034111)     ( 1.222068187)

 Bond angles

  2-1-3  108.79522515

 NUCLEAR CHARGE:                   16
 NUMBER OF PRIMITIVE AOS:         293
 NUMBER OF SYMMETRY AOS:          234
 NUMBER OF CONTRACTIONS:          206   ( 130A'  +  76A"  )
 NUMBER OF CORE ORBITALS:           2   (   2A'  +   0A"  )
 NUMBER OF VALENCE ORBITALS:        9   (   7A'  +   2A"  )


 NUCLEAR REPULSION ENERGY   30.07793612

 Eigenvalues of metric

         1 0.601E-04 0.147E-03 0.322E-03 0.437E-03 0.606E-03 0.680E-03 0.102E-02 0.110E-02
         2 0.858E-03 0.160E-02 0.505E-02 0.899E-02 0.101E-01 0.125E-01 0.128E-01 0.191E-01


 Contracted 2-electron integrals neglected if value below      1.0D-22

      109945065. INTEGRALS WRITTEN OUT IN   26849 BLOCKS ON RECORD 1290 OF FILE 1


 NUMBER OF SORTED TWO-ELECTRON INTEGRALS:  115283741.     BUFFER LENGTH:  32768
 NUMBER OF SEGMENTS:   8  SEGMENT LENGTH:   15998004      RECORD LENGTH: 524288

 Memory used in sort:      16.56 MW

 SORT1 READ   109945065. AND WROTE   110865232. INTEGRALS IN    322 RECORDS. CPU TIME:     1.88 SEC, REAL TIME:     2.64 SEC
 SORT2 READ   110865232. AND WROTE   115283741. INTEGRALS IN      8 RECORDS. CPU TIME:     1.29 SEC, REAL TIME:     1.77 SEC

 FILE SIZES:   FILE 1:  1780.6 MBYTE,  FILE 4:  1350.6 MBYTE,   TOTAL:   3131.2 MBYTE

 OPERATOR DM      FOR CENTER  0  COORDINATES:    0.000000    0.000000    0.000000


 **********************************************************************************************************************************
 DATASETS  * FILE   NREC   LENGTH (MB)   RECORD NAMES
              1      19      944.14       500      610      700      900      950      970     1000      129      960     1100   
                                          VAR    BASINP    GEOM    SYMINP    ZMAT    AOBASIS   BASIS     P2S    ABASIS      S 
                                         1400     1410     1200     1210     1080     1600     1650     1300     1700   
                                           T        V       H0       H01     AOSYM     SMH    MOLCAS    ERIS     OPER   

 PROGRAMS   *        TOTAL       INT
 CPU TIMES  *        10.86     10.78
 REAL TIME  *        13.62 SEC
 DISK USED  *         3.13 GB      
 **********************************************************************************************************************************


 PROGRAM * RHF-SCF (CLOSED SHELL)       Authors: W. Meyer, H.-J. Werner


 NUMBER OF ELECTRONS:       8+    8-
 CONVERGENCE THRESHOLDS:    1.00E-10 (Density)    1.00E-13 (Energy)
 MAX. NUMBER OF ITERATIONS:      500
 INTERPOLATION TYPE:            DIIS
 INTERPOLATION STEPS:              2 (START)      1 (STEP)
 LEVEL SHIFTS:                  0.00 (CLOSED)  0.00 (OPEN) 



 Orbital guess generated from atomic densities. Full valence occupancy:    9   2

 Molecular orbital dump at record        2100.2

 Initial occupancy:   7   1

 ITERATION    DDIFF          GRAD             ENERGY        2-EL.EN.            DIPOLE MOMENTS         DIIS   ORB.
    1      0.000D+00      0.000D+00      -129.79275106    153.439887    0.00000    0.60898   -1.07271    0    start
    2      0.000D+00      0.822D-02      -129.81950456    154.640086    0.00000    0.61871   -0.20450    1    diag
    3      0.671D-02      0.645D-02      -129.84458022    154.796397    0.00000    0.56684   -0.61753    2    diag
    4      0.346D-02      0.991D-03      -129.84541697    154.500413    0.00000    0.57361   -0.55361    3    diag
    5      0.619D-03      0.322D-03      -129.84554801    154.595165    0.00000    0.57893   -0.55598    4    diag
    6      0.258D-03      0.926D-04      -129.84556888    154.578879    0.00000    0.57916   -0.55156    5    diag
    7      0.982D-04      0.468D-04      -129.84557517    154.581482    0.00000    0.58035   -0.54876    6    diag
    8      0.684D-04      0.171D-04      -129.84557597    154.580741    0.00000    0.58038   -0.54762    7    diag
    9      0.284D-04      0.334D-05      -129.84557600    154.580613    0.00000    0.58034   -0.54737    8    diag
   10      0.584D-05      0.741D-06      -129.84557601    154.580594    0.00000    0.58031   -0.54734    9    orth
   11      0.108D-05      0.145D-06      -129.84557601    154.580591    0.00000    0.58030   -0.54734    9    diag
   12      0.189D-06      0.304D-07      -129.84557601    154.580591    0.00000    0.58030   -0.54734    9    diag
   13      0.403D-07      0.816D-08      -129.84557601    154.580591    0.00000    0.58030   -0.54734    9    diag
   14      0.115D-07      0.161D-08      -129.84557601    154.580591    0.00000    0.58030   -0.54734    9    diag
   15      0.208D-08      0.458D-09      -129.84557601    154.580591    0.00000    0.58030   -0.54734    9    diag
   16      0.637D-09      0.134D-09      -129.84557601    154.580591    0.00000    0.58030   -0.54734    9    diag
   17      0.113D-09      0.340D-10      -129.84557601    154.580591    0.00000    0.58030   -0.54734    9    diag
   18      0.302D-10      0.113D-10      -129.84557601    154.580591    0.00000    0.58030   -0.54734    9    diag
   19      0.145D-10      0.269D-11      -129.84557601    154.580591    0.00000    0.58030   -0.54734    9    fixocc
   20      0.483D-11      0.450D-12      -129.84557601    154.580591    0.00000    0.58030   -0.54734    9    orth
   21      0.293D-11      0.217D-12      -129.84557601    154.580591    0.00000    0.58030   -0.54734    9    diag
   22      0.194D-11      0.148D-12      -129.84557601    154.580591    0.00000    0.58030   -0.54734    9    diag
   23      0.105D-11      0.180D-12      -129.84557601    154.580591    0.00000    0.58030   -0.54734    9    diag
   24      0.991D-12      0.147D-12      -129.84557601    154.580591    0.00000    0.58030   -0.54734    0    orth

 Final occupancy:   7   1

 !RHF STATE 1.1 Energy               -129.845576005231
 Nuclear energy                        30.07793612
 One-electron energy                 -237.21380745
 Two-electron energy                   77.29029532
 Virial quotient                       -1.00211139
 !RHF STATE 1.1 Dipole moment           0.00000000     0.58029949    -0.54734167
 Dipole moment /Debye                   0.00000000     1.47487758    -1.39111263

 Orbital energies:

         1.1          2.1          3.1          4.1          5.1          6.1          7.1          8.1          9.1
    -20.655095   -15.714298    -1.517987    -0.999470    -0.743523    -0.662206    -0.434686     0.026135     0.079421

         1.2          2.2          3.2
     -0.589342     0.059557     0.109725

 HOMO      7.1    -0.434686 =     -11.8284eV
 LUMO      8.1     0.026135 =       0.7112eV
 LUMO-HOMO         0.460821 =      12.5396eV


 **********************************************************************************************************************************
 DATASETS  * FILE   NREC   LENGTH (MB)   RECORD NAMES
              1      19      944.14       500      610      700      900      950      970     1000      129      960     1100   
                                          VAR    BASINP    GEOM    SYMINP    ZMAT    AOBASIS   BASIS     P2S    ABASIS      S 
                                         1400     1410     1200     1210     1080     1600     1650     1300     1700   
                                           T        V       H0       H01     AOSYM     SMH    MOLCAS    ERIS     OPER   

              2       4        3.27       700     1000      520     2100   
                                         GEOM     BASIS   MCVARS     RHF  

 PROGRAMS   *        TOTAL        HF       INT
 CPU TIMES  *        22.92     12.06     10.78
 REAL TIME  *        28.47 SEC
 DISK USED  *         3.13 GB      
 **********************************************************************************************************************************


 PROGRAM * CCSD (Closed-shell coupled cluster)     Authors: C. Hampel, H.-J. Werner, 1991, M. Deegan, P.J. Knowles, 1992


 Convergence thresholds:  THRVAR = 1.00D-08  THRDEN = 1.00D-12

 CCSD(T)     terms to be evaluated (factor= 1.000)


 Number of core orbitals:           2 (   2   0 )
 Number of closed-shell orbitals:   6 (   5   1 )
 Number of external orbitals:     198 ( 123  75 )

 Molecular orbitals read from record     2100.2  Type=RHF/CANONICAL (state 1.1)

 Number of N-1 electron functions:               6
 Number of N-2 electron functions:              21
 Number of singly external CSFs:               690
 Number of doubly external CSFs:            362646
 Total number of CSFs:                      363337

 Length of J-op  integral file:               0.00 MB
 Length of K-op  integral file:               1.60 MB
 Length of 3-ext integral record:             0.00 MB

 Memory could be reduced to 34.67 Mwords without degradation in triples

 Integral transformation finished. Total CPU:   1.47 sec, npass=  1  Memory used:   9.53 MW

 Reference energy:                   -129.84557601

 MP2 singlet pair energy:              -0.30296415
 MP2 triplet pair energy:              -0.17134708
 MP2 correlation energy:               -0.47431123
 MP2 total energy:                   -130.31988723

 SCS-MP2 correlation energy:           -0.47017294   (PS=  1.200000  PT=  0.333333)
 SCS-MP2 total energy:               -130.31574894

 ITER.      SQ.NORM     CORR.ENERGY   TOTAL ENERGY   ENERGY CHANGE        DEN1      VAR(S)    VAR(P)  DIIS     TIME  TIME/IT
   1      1.12241361    -0.47378437  -130.31936037     0.00052686     0.01754074  0.33D-02  0.33D-02  1  1     2.72     1.34
   2      1.13345796    -0.47361910  -130.31919511     0.00016527    -0.01285251  0.11D-03  0.51D-03  2  2     3.93     1.38
   3      1.14004263    -0.47401813  -130.31959413    -0.00039902    -0.00312788  0.53D-04  0.57D-04  3  3     5.17     1.39
   4      1.14296997    -0.47402593  -130.31960194    -0.00000781    -0.00098026  0.48D-05  0.10D-04  4  4     6.45     1.40
   5      1.14416735    -0.47405816  -130.31963417    -0.00003223    -0.00025944  0.12D-05  0.17D-05  5  5     7.70     1.41
   6      1.14454932    -0.47404159  -130.31961760     0.00001657    -0.00005516  0.11D-06  0.41D-06  6  6     8.98     1.41
   7      1.14462372    -0.47404230  -130.31961830    -0.00000071     0.00000322  0.16D-07  0.95D-07  6  1    10.26     1.41
   8      1.14464708    -0.47404252  -130.31961853    -0.00000022    -0.00000124  0.33D-08  0.20D-07  6  2    11.55     1.41
   9      1.14465210    -0.47404210  -130.31961810     0.00000042     0.00000110  0.28D-08  0.24D-08  6  4    12.80     1.41
  10      1.14465476    -0.47404249  -130.31961849    -0.00000039    -0.00000082  0.54D-09  0.29D-09  6  3    14.04     1.42
  11      1.14465456    -0.47404255  -130.31961856    -0.00000006    -0.00000015  0.17D-09  0.41D-10  6  5    15.31     1.42
  12      1.14465354    -0.47404271  -130.31961871    -0.00000016     0.00000038  0.21D-10  0.12D-10  6  6    16.58     1.42
  13      1.14465261    -0.47404275  -130.31961876    -0.00000004     0.00000023  0.65D-11  0.28D-11  6  1    17.86     1.42
  14      1.14465187    -0.47404279  -130.31961880    -0.00000004     0.00000017  0.39D-12  0.59D-12  6  4    19.10     1.42
  15      1.14465163    -0.47404280  -130.31961880    -0.00000001     0.00000004  0.84D-13  0.47D-13  6  2    20.38     1.42
  16      1.14465157    -0.47404280  -130.31961880    -0.00000000     0.00000001  0.22D-13  0.84D-14  6  3    21.59     1.42
  17      1.14465154    -0.47404280  -130.31961881    -0.00000000     0.00000001  0.41D-14  0.11D-14  6  5    22.85     1.42
  18      1.14465154    -0.47404280  -130.31961881    -0.00000000     0.00000000  0.92D-15  0.26D-15  6  6    24.10     1.42
  19      1.14465153    -0.47404280  -130.31961881    -0.00000000     0.00000000  0.13D-15  0.54D-16  6  1    25.35     1.42
  20      1.14465154    -0.47404280  -130.31961881     0.00000000    -0.00000000  0.12D-16  0.81D-17  6  4    26.62     1.42
  21      1.14465154    -0.47404280  -130.31961881     0.00000000    -0.00000000  0.54D-18  0.69D-18  6  3    27.88     1.42
  22      1.14465154    -0.47404280  -130.31961881     0.00000000    -0.00000000  0.14D-18  0.13D-18  6  2    29.15     1.42
  23      1.14465154    -0.47404280  -130.31961881     0.00000000     0.00000000  0.38D-19  0.50D-19  6  5    30.38     1.42
  24      1.14465154    -0.47404280  -130.31961881    -0.00000000     0.00000000  0.32D-20  0.11D-19  6  1    31.63     1.42

 Norm of t1 vector:      0.07915342      S-energy:    -0.00000000      T1 diagnostic:  0.01615712
                                                                       D1 diagnostic:  0.04412028

 Doubles amplitudes (print threshold =  0.500E-01):

         I         J         SYM. A    SYM. B    A         B      T(IJ, AB)

         6         6         2         2         1         1     -0.10611619


 Total CPU time for triples:     16.32 sec


 RESULTS
 =======

  Reference energy                   -129.845576005231
  CCSD singlet pair energy             -0.327967469172
  CCSD triplet pair energy             -0.146075331914
  CCSD correlation energy              -0.474042801087

  Triples (T) contribution             -0.022790895236
  Total correlation energy             -0.496833696324

  CCSD total energy                  -130.319618806318
  CCSD[T] energy                     -130.343545832421
  CCSD-T energy                      -130.342010439451
 !CCSD(T) total energy               -130.342409701554

 Timing summary (sec):

 STEP                 CPU(USER)    SYS     CPU(TOT)    WALL
 Transformation          1.49      0.24      1.73      1.91
 CCSD iterations        30.14      3.91     34.05     34.05
 Triples                16.32      0.41     16.73     16.73

 Program statistics:

 Available memory in ccsd:               994999756
 Min. memory needed in ccsd:               1265322
 Max. memory used in ccsd:                 1555950
 Max. memory used in cckext:               2415326 (24 integral passes)



 **********************************************************************************************************************************
 DATASETS  * FILE   NREC   LENGTH (MB)   RECORD NAMES
              1      20     1044.69       500      610      700      900      950      970     1000      129      960     1100   
                                          VAR    BASINP    GEOM    SYMINP    ZMAT    AOBASIS   BASIS     P2S    ABASIS      S 
                                         1400     1410     1200     1210     1080     1600     1650     1300     1700     1380   
                                           T        V       H0       H01     AOSYM     SMH    MOLCAS    ERIS     OPER     JKOP   

              2       4        3.27       700     1000      520     2100   
                                         GEOM     BASIS   MCVARS     RHF  

 PROGRAMS   *        TOTAL   CCSD(T)        HF       INT
 CPU TIMES  *        70.90     47.97     12.06     10.78
 REAL TIME  *        81.20 SEC
 DISK USED  *         3.13 GB      
 **********************************************************************************************************************************

 CCSD(T)/aug-cc-pVQZ energy=   -130.342409701554

        CCSD(T)         HF-SCF  
   -130.34240970   -129.84557601
 **********************************************************************************************************************************
 Molpro calculation terminated
 Variable memory released
