
 Primary working directories    : /tmp/r2666/234879.maple
 Secondary working directories  : /tmp/r2666/234879.maple
 Wavefunction directory         : /ddn/home4/r2666/wfu/
 Main file repository           : /tmp/r2666/234879.maple/

 SHA1      : d5ffa45e93fdbca01ffc919aa182cfdae0147319
 NAME      : 2015.1.35
 ARCHNAME  : linux/x86_64
 FC        : /opt/intel/composer_xe_2015.1.133/bin/intel64/ifort
 BLASLIB   : -Wl,-_start-group /opt/intel/mkl/lib/intel64/libmkl_intel_ilp64.a /opt/intel/mkl/lib/intel64/libmkl_intel_thread.a /opt/intel/mkl/lib/intel64/libmkl_core.a -Wl,-_end-group
 id        : olemiss

 Nodes     nprocs
 cn091        1

 Using customized tuning parameters: mindgm=1; mindgv=20; mindgc=4; mindgr=1; noblas=0; minvec=7
 default implementation of scratch files=df  

 ***,hno CCSD(T)/TZ-F12 QFF
 memory, 995, m;
 gthresh,energy=1.d-12,zero=1.d-22,oneint=1.d-22,twoint=1.d-22;
 gthresh,optgrad=1.d-8,optstep=1.d-8;
 nocompress;
 geomtyp=xyz
 bohr
 geometry={
 3
        122       122
 N        0.0000000000       -0.1734992522       -1.1522158932
 H        0.0000000000        1.6764184863       -1.9304620762
 O        0.0000000000        0.0388485559        1.1320883784
 }
 
 basis=avqz
   {hf,maxit=500;accu,20;}
 {ccsd(t),nocheck,maxit=250;orbital,IGNORE_ERROR;}

 Variables initialized (889), CPU time= 0.00 sec
 Commands  initialized (702), CPU time= 0.01 sec, 572 directives.
 Default parameters read. Elapsed time= 0.04 sec

 Checking input...
 Passed
1


                                         ***  PROGRAM SYSTEM MOLPRO  ***
                                       Copyright, TTI GmbH Stuttgart, 2015
                                    Version 2015.1 linked Jul  9 2018 13:16:40


 **********************************************************************************************************************************
 LABEL *   hno CCSD(T)/TZ-F12 QFF                                                        
  64 bit serial version                                                                  DATE: 08-Feb-20          TIME: 17:55:15  
 **********************************************************************************************************************************

 SHA1:             d5ffa45e93fdbca01ffc919aa182cfdae0147319
 **********************************************************************************************************************************

 THRESHOLDS:

 ZERO    =  1.00D-22  ONEINT  =  1.00D-22  TWOINT  =  1.00D-22  PREFAC  =  1.00D-14  LOCALI  =  1.00D-09  EORDER  =  1.00D-04
 ENERGY  =  1.00D-12  ETEST   =  0.00D+00  EDENS   =  0.00D+00  THRDEDEF=  1.00D-06  GRADIENT=  1.00D-02  STEP    =  1.00D-03
 ORBITAL =  1.00D-05  CIVEC   =  1.00D-05  COEFF   =  1.00D-04  PRINTCI =  5.00D-02  PUNCHCI =  9.90D+01  OPTGRAD =  3.00D-04
 OPTENERG=  1.00D-06  OPTSTEP =  3.00D-04  THRGRAD =  1.00D-10  COMPRESS=  1.00D-11  VARMIN  =  1.00D-07  VARMAX  =  1.00D-03
 THRDOUB =  0.00D+00  THRDIV  =  1.00D-05  THRRED  =  1.00D-07  THRPSP  =  1.00D+00  THRDC   =  1.00D-10  THRCS   =  1.00D-10
 THRNRM  =  1.00D-08  THREQ   =  0.00D+00  THRDE   =  1.00D+00  THRREF  =  1.00D-05  SPARFAC =  1.00D+00  THRDLP  =  1.00D-07
 THRDIA  =  1.00D-10  THRDLS  =  1.00D-07  THRGPS  =  0.00D+00  THRKEX  =  0.00D+00  THRDIS  =  2.00D-01  THRVAR  =  1.00D-10
 THRLOC  =  1.00D-06  THRGAP  =  1.00D-06  THRLOCT = -1.00D+00  THRGAPT = -1.00D+00  THRORB  =  1.00D-06  THRMLTP =  0.00D+00
 THRCPQCI=  1.00D-10  KEXTA   =  0.00D+00  THRCOARS=  0.00D+00  SYMTOL  =  1.00D-06  GRADTOL =  1.00D-06  THROVL  =  1.00D-08
 THRORTH =  1.00D-08  GRID    =  1.00D-06  GRIDMAX =  1.00D-03  DTMAX   =  0.00D+00  THROCCDE=  1.00D-01  THROCCDE=  1.00D-01



 THRESHOLDS:

 ZERO    =  1.00D-22  ONEINT  =  1.00D-22  TWOINT  =  1.00D-22  PREFAC  =  1.00D-14  LOCALI  =  1.00D-09  EORDER  =  1.00D-04
 ENERGY  =  1.00D-12  ETEST   =  0.00D+00  EDENS   =  0.00D+00  THRDEDEF=  1.00D-06  GRADIENT=  1.00D-02  STEP    =  1.00D-03
 ORBITAL =  1.00D-05  CIVEC   =  1.00D-05  COEFF   =  1.00D-04  PRINTCI =  5.00D-02  PUNCHCI =  9.90D+01  OPTGRAD =  1.00D-08
 OPTENERG=  1.00D-06  OPTSTEP =  1.00D-08  THRGRAD =  1.00D-10  COMPRESS=  1.00D-11  VARMIN  =  1.00D-07  VARMAX  =  1.00D-03
 THRDOUB =  0.00D+00  THRDIV  =  1.00D-05  THRRED  =  1.00D-07  THRPSP  =  1.00D+00  THRDC   =  1.00D-10  THRCS   =  1.00D-10
 THRNRM  =  1.00D-08  THREQ   =  0.00D+00  THRDE   =  1.00D+00  THRREF  =  1.00D-05  SPARFAC =  1.00D+00  THRDLP  =  1.00D-07
 THRDIA  =  1.00D-10  THRDLS  =  1.00D-07  THRGPS  =  0.00D+00  THRKEX  =  0.00D+00  THRDIS  =  2.00D-01  THRVAR  =  1.00D-10
 THRLOC  =  1.00D-06  THRGAP  =  1.00D-06  THRLOCT = -1.00D+00  THRGAPT = -1.00D+00  THRORB  =  1.00D-06  THRMLTP =  0.00D+00
 THRCPQCI=  1.00D-10  KEXTA   =  0.00D+00  THRCOARS=  0.00D+00  SYMTOL  =  1.00D-06  GRADTOL =  1.00D-06  THROVL  =  1.00D-08
 THRORTH =  1.00D-08  GRID    =  1.00D-06  GRIDMAX =  1.00D-03  DTMAX   =  0.00D+00  THROCCDE=  1.00D-01  THROCCDE=  1.00D-01



 Input parameters for SORTINT:

 COMPRESS =    0.000000
 C_FINAL  =    1.000000
 DEBUG    =   -1.000000
 C_SORT1  =    0.000000
 C_SEWARD =    0.000000
 THRESH   =    0.000000
 IO       =  molpro                                                          
 SPRI     =    0.000000
 SETTING GEOMTYP        =    XYZ
 ZUNIT=BOHR
 

 Variable memory set to  995000000 words,  buffer space   230000 words

 SETTING BASIS          =    AVQZ


 Recomputing integrals since basis changed


 Using spherical harmonics

 Library entry N      S aug-cc-pVQZ          selected for orbital group  1
 Library entry N      P aug-cc-pVQZ          selected for orbital group  1
 Library entry N      D aug-cc-pVQZ          selected for orbital group  1
 Library entry N      F aug-cc-pVQZ          selected for orbital group  1
 Library entry N      G aug-cc-pVQZ          selected for orbital group  1
 Library entry H      S aug-cc-pVQZ          selected for orbital group  2
 Library entry H      P aug-cc-pVQZ          selected for orbital group  2
 Library entry H      D aug-cc-pVQZ          selected for orbital group  2
 Library entry H      F aug-cc-pVQZ          selected for orbital group  2
 Library entry O      S aug-cc-pVQZ          selected for orbital group  3
 Library entry O      P aug-cc-pVQZ          selected for orbital group  3
 Library entry O      D aug-cc-pVQZ          selected for orbital group  3
 Library entry O      F aug-cc-pVQZ          selected for orbital group  3
 Library entry O      G aug-cc-pVQZ          selected for orbital group  3


 PROGRAM * SEWARD (Integral evaluation for generally contracted gaussian basis sets)     Author: Roland Lindh, 1990

 Geometry written to block  1 of record 700


 Point group  Cs  



 ATOMIC COORDINATES

 NR  ATOM    CHARGE       X              Y              Z

   1  N       7.00    0.000000000   -0.173499252   -1.152215893
   2  H       1.00    0.000000000    1.676418486   -1.930462076
   3  O       8.00    0.000000000    0.038848556    1.132088378

 Bond lengths in Bohr (Angstrom)

 1-2  2.006953602  1-3  2.294152915
     ( 1.062034110)     ( 1.214013441)

 Bond angles

  2-1-3  107.50519165

 NUCLEAR CHARGE:                   16
 NUMBER OF PRIMITIVE AOS:         293
 NUMBER OF SYMMETRY AOS:          234
 NUMBER OF CONTRACTIONS:          206   ( 130A'  +  76A"  )
 NUMBER OF CORE ORBITALS:           2   (   2A'  +   0A"  )
 NUMBER OF VALENCE ORBITALS:        9   (   7A'  +   2A"  )


 NUCLEAR REPULSION ENERGY   30.20132242

 Eigenvalues of metric

         1 0.609E-04 0.149E-03 0.321E-03 0.437E-03 0.603E-03 0.700E-03 0.103E-02 0.109E-02
         2 0.843E-03 0.168E-02 0.508E-02 0.898E-02 0.103E-01 0.125E-01 0.128E-01 0.194E-01


 Contracted 2-electron integrals neglected if value below      1.0D-22

      109945086. INTEGRALS WRITTEN OUT IN   26849 BLOCKS ON RECORD 1290 OF FILE 1


 NUMBER OF SORTED TWO-ELECTRON INTEGRALS:  115283741.     BUFFER LENGTH:  32768
 NUMBER OF SEGMENTS:   8  SEGMENT LENGTH:   15998004      RECORD LENGTH: 524288

 Memory used in sort:      16.56 MW

 SORT1 READ   109945086. AND WROTE   110865253. INTEGRALS IN    322 RECORDS. CPU TIME:     1.94 SEC, REAL TIME:     2.69 SEC
 SORT2 READ   110865253. AND WROTE   115283741. INTEGRALS IN      8 RECORDS. CPU TIME:     1.32 SEC, REAL TIME:     1.84 SEC

 FILE SIZES:   FILE 1:  1780.6 MBYTE,  FILE 4:  1350.6 MBYTE,   TOTAL:   3131.2 MBYTE

 OPERATOR DM      FOR CENTER  0  COORDINATES:    0.000000    0.000000    0.000000


 **********************************************************************************************************************************
 DATASETS  * FILE   NREC   LENGTH (MB)   RECORD NAMES
              1      19      944.14       500      610      700      900      950      970     1000      129      960     1100   
                                          VAR    BASINP    GEOM    SYMINP    ZMAT    AOBASIS   BASIS     P2S    ABASIS      S 
                                         1400     1410     1200     1210     1080     1600     1650     1300     1700   
                                           T        V       H0       H01     AOSYM     SMH    MOLCAS    ERIS     OPER   

 PROGRAMS   *        TOTAL       INT
 CPU TIMES  *        11.05     10.97
 REAL TIME  *        14.31 SEC
 DISK USED  *         3.13 GB      
 **********************************************************************************************************************************


 PROGRAM * RHF-SCF (CLOSED SHELL)       Authors: W. Meyer, H.-J. Werner


 NUMBER OF ELECTRONS:       8+    8-
 CONVERGENCE THRESHOLDS:    1.00E-10 (Density)    1.00E-13 (Energy)
 MAX. NUMBER OF ITERATIONS:      500
 INTERPOLATION TYPE:            DIIS
 INTERPOLATION STEPS:              2 (START)      1 (STEP)
 LEVEL SHIFTS:                  0.00 (CLOSED)  0.00 (OPEN) 



 Orbital guess generated from atomic densities. Full valence occupancy:    9   2

 Molecular orbital dump at record        2100.2

 Initial occupancy:   7   1

 ITERATION    DDIFF          GRAD             ENERGY        2-EL.EN.            DIPOLE MOMENTS         DIIS   ORB.
    1      0.000D+00      0.000D+00      -129.79389877    153.656800    0.00000    0.58463   -1.04590    0    start
    2      0.000D+00      0.821D-02      -129.82095930    154.885446    0.00000    0.61405   -0.19771    1    diag
    3      0.667D-02      0.638D-02      -129.84543533    155.020055    0.00000    0.55332   -0.59907    2    diag
    4      0.342D-02      0.977D-03      -129.84625331    154.728867    0.00000    0.56085   -0.53689    3    diag
    5      0.610D-03      0.321D-03      -129.84638449    154.823670    0.00000    0.56625   -0.53936    4    diag
    6      0.257D-03      0.934D-04      -129.84640563    154.807246    0.00000    0.56649   -0.53502    5    diag
    7      0.988D-04      0.467D-04      -129.84641186    154.810004    0.00000    0.56774   -0.53231    6    diag
    8      0.684D-04      0.166D-04      -129.84641260    154.809271    0.00000    0.56777   -0.53123    7    diag
    9      0.272D-04      0.322D-05      -129.84641263    154.809147    0.00000    0.56774   -0.53100    8    diag
   10      0.549D-05      0.721D-06      -129.84641263    154.809127    0.00000    0.56770   -0.53097    9    orth
   11      0.104D-05      0.144D-06      -129.84641263    154.809124    0.00000    0.56769   -0.53096    9    diag
   12      0.189D-06      0.296D-07      -129.84641263    154.809123    0.00000    0.56769   -0.53096    9    diag
   13      0.412D-07      0.780D-08      -129.84641263    154.809123    0.00000    0.56769   -0.53096    9    diag
   14      0.115D-07      0.153D-08      -129.84641263    154.809123    0.00000    0.56769   -0.53096    9    diag
   15      0.208D-08      0.435D-09      -129.84641263    154.809123    0.00000    0.56769   -0.53096    9    diag
   16      0.621D-09      0.128D-09      -129.84641263    154.809123    0.00000    0.56769   -0.53096    9    diag
   17      0.114D-09      0.336D-10      -129.84641263    154.809123    0.00000    0.56769   -0.53096    9    diag
   18      0.315D-10      0.114D-10      -129.84641263    154.809123    0.00000    0.56769   -0.53096    9    diag
   19      0.154D-10      0.268D-11      -129.84641263    154.809123    0.00000    0.56769   -0.53096    9    fixocc
   20      0.549D-11      0.493D-12      -129.84641263    154.809123    0.00000    0.56769   -0.53096    9    orth
   21      0.435D-11      0.236D-12      -129.84641263    154.809123    0.00000    0.56769   -0.53096    9    diag
   22      0.299D-11      0.149D-12      -129.84641263    154.809123    0.00000    0.56769   -0.53096    9    diag
   23      0.128D-11      0.112D-12      -129.84641263    154.809123    0.00000    0.56769   -0.53096    9    diag
   24      0.102D-11      0.124D-12      -129.84641263    154.809123    0.00000    0.56769   -0.53096    9    diag
   25      0.756D-12      0.112D-12      -129.84641263    154.809123    0.00000    0.56769   -0.53096    9    diag
   26      0.394D-12      0.128D-12      -129.84641263    154.809123    0.00000    0.56769   -0.53096    9    diag
   27      0.648D-12      0.110D-12      -129.84641263    154.809123    0.00000    0.56769   -0.53096    9    diag
   28      0.315D-12      0.118D-12      -129.84641263    154.809123    0.00000    0.56769   -0.53096    9    diag
   29      0.258D-12      0.133D-12      -129.84641263    154.809123    0.00000    0.56769   -0.53096    0    orth

 Final occupancy:   7   1

 !RHF STATE 1.1 Energy               -129.846412632467
 Nuclear energy                        30.20132242
 One-electron energy                 -237.45229668
 Two-electron energy                   77.40456163
 Virial quotient                       -1.00202203
 !RHF STATE 1.1 Dipole moment           0.00000000     0.56769207    -0.53096257
 Dipole moment /Debye                   0.00000000     1.44283482    -1.34948384

 Orbital energies:

         1.1          2.1          3.1          4.1          5.1          6.1          7.1          8.1          9.1
    -20.654272   -15.715152    -1.524896    -0.993047    -0.744291    -0.664251    -0.432227     0.026327     0.079474

         1.2          2.2          3.2
     -0.593450     0.061871     0.110421

 HOMO      7.1    -0.432227 =     -11.7615eV
 LUMO      8.1     0.026327 =       0.7164eV
 LUMO-HOMO         0.458554 =      12.4779eV


 **********************************************************************************************************************************
 DATASETS  * FILE   NREC   LENGTH (MB)   RECORD NAMES
              1      19      944.14       500      610      700      900      950      970     1000      129      960     1100   
                                          VAR    BASINP    GEOM    SYMINP    ZMAT    AOBASIS   BASIS     P2S    ABASIS      S 
                                         1400     1410     1200     1210     1080     1600     1650     1300     1700   
                                           T        V       H0       H01     AOSYM     SMH    MOLCAS    ERIS     OPER   

              2       4        3.27       700     1000      520     2100   
                                         GEOM     BASIS   MCVARS     RHF  

 PROGRAMS   *        TOTAL        HF       INT
 CPU TIMES  *        25.31     14.26     10.97
 REAL TIME  *        32.17 SEC
 DISK USED  *         3.13 GB      
 **********************************************************************************************************************************


 PROGRAM * CCSD (Closed-shell coupled cluster)     Authors: C. Hampel, H.-J. Werner, 1991, M. Deegan, P.J. Knowles, 1992


 Convergence thresholds:  THRVAR = 1.00D-08  THRDEN = 1.00D-12

 CCSD(T)     terms to be evaluated (factor= 1.000)


 Number of core orbitals:           2 (   2   0 )
 Number of closed-shell orbitals:   6 (   5   1 )
 Number of external orbitals:     198 ( 123  75 )

 Molecular orbitals read from record     2100.2  Type=RHF/CANONICAL (state 1.1)

 Number of N-1 electron functions:               6
 Number of N-2 electron functions:              21
 Number of singly external CSFs:               690
 Number of doubly external CSFs:            362646
 Total number of CSFs:                      363337

 Length of J-op  integral file:               0.00 MB
 Length of K-op  integral file:               1.60 MB
 Length of 3-ext integral record:             0.00 MB

 Memory could be reduced to 34.67 Mwords without degradation in triples

 Integral transformation finished. Total CPU:   1.52 sec, npass=  1  Memory used:   9.53 MW

 Reference energy:                   -129.84641263

 MP2 singlet pair energy:              -0.30246526
 MP2 triplet pair energy:              -0.17098956
 MP2 correlation energy:               -0.47345482
 MP2 total energy:                   -130.31986745

 SCS-MP2 correlation energy:           -0.46935181   (PS=  1.200000  PT=  0.333333)
 SCS-MP2 total energy:               -130.31576444

 ITER.      SQ.NORM     CORR.ENERGY   TOTAL ENERGY   ENERGY CHANGE        DEN1      VAR(S)    VAR(P)  DIIS     TIME  TIME/IT
   1      1.12200507    -0.47321683  -130.31962946     0.00023798     0.01699546  0.33D-02  0.33D-02  1  1     2.79     1.41
   2      1.13291387    -0.47311827  -130.31953090     0.00009857    -0.01270765  0.11D-03  0.50D-03  2  2     4.06     1.43
   3      1.13939110    -0.47351071  -130.31992334    -0.00039244    -0.00310542  0.51D-04  0.55D-04  3  3     5.36     1.44
   4      1.14222965    -0.47351679  -130.31992942    -0.00000608    -0.00096115  0.47D-05  0.99D-05  4  4     6.65     1.44
   5      1.14337259    -0.47354800  -130.31996064    -0.00003122    -0.00024923  0.12D-05  0.16D-05  5  5     7.97     1.45
   6      1.14373796    -0.47353240  -130.31994504     0.00001560    -0.00005273  0.12D-06  0.39D-06  6  6     9.28     1.45
   7      1.14381160    -0.47353275  -130.31994538    -0.00000035     0.00000270  0.18D-07  0.88D-07  6  1    10.62     1.46
   8      1.14383483    -0.47353297  -130.31994560    -0.00000022    -0.00000127  0.33D-08  0.18D-07  6  2    11.92     1.47
   9      1.14384008    -0.47353254  -130.31994517     0.00000043     0.00000102  0.25D-08  0.21D-08  6  4    13.19     1.47
  10      1.14384265    -0.47353292  -130.31994555    -0.00000038    -0.00000078  0.47D-09  0.26D-09  6  3    14.53     1.47
  11      1.14384241    -0.47353298  -130.31994561    -0.00000006    -0.00000012  0.15D-09  0.37D-10  6  5    15.83     1.47
  12      1.14384143    -0.47353312  -130.31994576    -0.00000015     0.00000036  0.19D-10  0.11D-10  6  6    17.15     1.47
  13      1.14384056    -0.47353317  -130.31994580    -0.00000004     0.00000022  0.61D-11  0.24D-11  6  1    18.48     1.47
  14      1.14383986    -0.47353320  -130.31994583    -0.00000003     0.00000016  0.38D-12  0.50D-12  6  4    19.79     1.47
  15      1.14383965    -0.47353321  -130.31994584    -0.00000001     0.00000003  0.90D-13  0.38D-13  6  2    21.13     1.47
  16      1.14383960    -0.47353321  -130.31994584    -0.00000000     0.00000001  0.25D-13  0.73D-14  6  3    22.50     1.48
  17      1.14383957    -0.47353321  -130.31994584    -0.00000000     0.00000001  0.44D-14  0.11D-14  6  5    23.79     1.48
  18      1.14383957    -0.47353321  -130.31994584    -0.00000000     0.00000000  0.89D-15  0.28D-15  6  6    25.13     1.48
  19      1.14383957    -0.47353321  -130.31994584    -0.00000000     0.00000000  0.10D-15  0.56D-16  6  1    26.46     1.48
  20      1.14383957    -0.47353321  -130.31994584     0.00000000    -0.00000000  0.10D-16  0.80D-17  6  4    27.76     1.48
  21      1.14383957    -0.47353321  -130.31994584     0.00000000    -0.00000000  0.56D-18  0.63D-18  6  3    29.02     1.47
  22      1.14383957    -0.47353321  -130.31994584     0.00000000    -0.00000000  0.14D-18  0.13D-18  6  2    30.32     1.47
  23      1.14383957    -0.47353321  -130.31994584     0.00000000     0.00000000  0.43D-19  0.47D-19  6  5    31.62     1.47
  24      1.14383957    -0.47353321  -130.31994584    -0.00000000     0.00000000  0.39D-20  0.11D-19  6  1    32.94     1.47

 Norm of t1 vector:      0.07802287      S-energy:    -0.00000000      T1 diagnostic:  0.01592635
                                                                       D1 diagnostic:  0.04293170

 Doubles amplitudes (print threshold =  0.500E-01):

         I         J         SYM. A    SYM. B    A         B      T(IJ, AB)

         6         6         2         2         1         1     -0.10183123


 Total CPU time for triples:     16.66 sec


 RESULTS
 =======

  Reference energy                   -129.846412632467
  CCSD singlet pair energy             -0.327514084445
  CCSD triplet pair energy             -0.146019124816
  CCSD correlation energy              -0.473533209262

  Triples (T) contribution             -0.022616266222
  Total correlation energy             -0.496149475484

  CCSD total energy                  -130.319945841729
  CCSD[T] energy                     -130.343669520165
  CCSD-T energy                      -130.342167347960
 !CCSD(T) total energy               -130.342562107951

 Timing summary (sec):

 STEP                 CPU(USER)    SYS     CPU(TOT)    WALL
 Transformation          1.53      0.26      1.79      2.03
 CCSD iterations        31.41      3.96     35.37     35.37
 Triples                16.66      0.42     17.08     17.09

 Program statistics:

 Available memory in ccsd:               994999756
 Min. memory needed in ccsd:               1265322
 Max. memory used in ccsd:                 1555950
 Max. memory used in cckext:               2415326 (24 integral passes)



 **********************************************************************************************************************************
 DATASETS  * FILE   NREC   LENGTH (MB)   RECORD NAMES
              1      20     1044.69       500      610      700      900      950      970     1000      129      960     1100   
                                          VAR    BASINP    GEOM    SYMINP    ZMAT    AOBASIS   BASIS     P2S    ABASIS      S 
                                         1400     1410     1200     1210     1080     1600     1650     1300     1700     1380   
                                           T        V       H0       H01     AOSYM     SMH    MOLCAS    ERIS     OPER     JKOP   

              2       4        3.27       700     1000      520     2100   
                                         GEOM     BASIS   MCVARS     RHF  

 PROGRAMS   *        TOTAL   CCSD(T)        HF       INT
 CPU TIMES  *        74.94     49.63     14.26     10.97
 REAL TIME  *        86.69 SEC
 DISK USED  *         3.13 GB      
 **********************************************************************************************************************************

 CCSD(T)/aug-cc-pVQZ energy=   -130.342562107951

        CCSD(T)         HF-SCF  
   -130.34256211   -129.84641263
 **********************************************************************************************************************************
 Molpro calculation terminated
 Variable memory released
