
 Primary working directories    : /tmp/r2666/234811.maple
 Secondary working directories  : /tmp/r2666/234811.maple
 Wavefunction directory         : /ddn/home4/r2666/wfu/
 Main file repository           : /tmp/r2666/234811.maple/

 SHA1      : d5ffa45e93fdbca01ffc919aa182cfdae0147319
 NAME      : 2015.1.35
 ARCHNAME  : linux/x86_64
 FC        : /opt/intel/composer_xe_2015.1.133/bin/intel64/ifort
 BLASLIB   : -Wl,-_start-group /opt/intel/mkl/lib/intel64/libmkl_intel_ilp64.a /opt/intel/mkl/lib/intel64/libmkl_intel_thread.a /opt/intel/mkl/lib/intel64/libmkl_core.a -Wl,-_end-group
 id        : olemiss

 Nodes     nprocs
 cn022        1

 Using customized tuning parameters: mindgm=1; mindgv=20; mindgc=4; mindgr=1; noblas=0; minvec=7
 default implementation of scratch files=df  

 ***,hno CCSD(T)/TZ-F12 QFF
 memory, 995, m;
 gthresh,energy=1.d-12,zero=1.d-22,oneint=1.d-22,twoint=1.d-22;
 gthresh,optgrad=1.d-8,optstep=1.d-8;
 nocompress;
 geomtyp=xyz
 bohr
 geometry={
 3
         54        54
 N        0.0000000000       -0.1693339810       -1.1542913293
 H        0.0000000000        1.6663355770       -1.9176295855
 O        0.0000000000        0.0447661940        1.1213313238
 }
 
 basis=avqz
   {hf,maxit=500;accu,20;}
 {ccsd(t),nocheck,maxit=250;orbital,IGNORE_ERROR;}

 Variables initialized (889), CPU time= 0.01 sec
 Commands  initialized (702), CPU time= 0.01 sec, 572 directives.
 Default parameters read. Elapsed time= 0.05 sec

 Checking input...
 Passed
1


                                         ***  PROGRAM SYSTEM MOLPRO  ***
                                       Copyright, TTI GmbH Stuttgart, 2015
                                    Version 2015.1 linked Jul  9 2018 13:16:40


 **********************************************************************************************************************************
 LABEL *   hno CCSD(T)/TZ-F12 QFF                                                        
  64 bit serial version                                                                  DATE: 08-Feb-20          TIME: 17:52:33  
 **********************************************************************************************************************************

 SHA1:             d5ffa45e93fdbca01ffc919aa182cfdae0147319
 **********************************************************************************************************************************

 THRESHOLDS:

 ZERO    =  1.00D-22  ONEINT  =  1.00D-22  TWOINT  =  1.00D-22  PREFAC  =  1.00D-14  LOCALI  =  1.00D-09  EORDER  =  1.00D-04
 ENERGY  =  1.00D-12  ETEST   =  0.00D+00  EDENS   =  0.00D+00  THRDEDEF=  1.00D-06  GRADIENT=  1.00D-02  STEP    =  1.00D-03
 ORBITAL =  1.00D-05  CIVEC   =  1.00D-05  COEFF   =  1.00D-04  PRINTCI =  5.00D-02  PUNCHCI =  9.90D+01  OPTGRAD =  3.00D-04
 OPTENERG=  1.00D-06  OPTSTEP =  3.00D-04  THRGRAD =  1.00D-10  COMPRESS=  1.00D-11  VARMIN  =  1.00D-07  VARMAX  =  1.00D-03
 THRDOUB =  0.00D+00  THRDIV  =  1.00D-05  THRRED  =  1.00D-07  THRPSP  =  1.00D+00  THRDC   =  1.00D-10  THRCS   =  1.00D-10
 THRNRM  =  1.00D-08  THREQ   =  0.00D+00  THRDE   =  1.00D+00  THRREF  =  1.00D-05  SPARFAC =  1.00D+00  THRDLP  =  1.00D-07
 THRDIA  =  1.00D-10  THRDLS  =  1.00D-07  THRGPS  =  0.00D+00  THRKEX  =  0.00D+00  THRDIS  =  2.00D-01  THRVAR  =  1.00D-10
 THRLOC  =  1.00D-06  THRGAP  =  1.00D-06  THRLOCT = -1.00D+00  THRGAPT = -1.00D+00  THRORB  =  1.00D-06  THRMLTP =  0.00D+00
 THRCPQCI=  1.00D-10  KEXTA   =  0.00D+00  THRCOARS=  0.00D+00  SYMTOL  =  1.00D-06  GRADTOL =  1.00D-06  THROVL  =  1.00D-08
 THRORTH =  1.00D-08  GRID    =  1.00D-06  GRIDMAX =  1.00D-03  DTMAX   =  0.00D+00  THROCCDE=  1.00D-01  THROCCDE=  1.00D-01



 THRESHOLDS:

 ZERO    =  1.00D-22  ONEINT  =  1.00D-22  TWOINT  =  1.00D-22  PREFAC  =  1.00D-14  LOCALI  =  1.00D-09  EORDER  =  1.00D-04
 ENERGY  =  1.00D-12  ETEST   =  0.00D+00  EDENS   =  0.00D+00  THRDEDEF=  1.00D-06  GRADIENT=  1.00D-02  STEP    =  1.00D-03
 ORBITAL =  1.00D-05  CIVEC   =  1.00D-05  COEFF   =  1.00D-04  PRINTCI =  5.00D-02  PUNCHCI =  9.90D+01  OPTGRAD =  1.00D-08
 OPTENERG=  1.00D-06  OPTSTEP =  1.00D-08  THRGRAD =  1.00D-10  COMPRESS=  1.00D-11  VARMIN  =  1.00D-07  VARMAX  =  1.00D-03
 THRDOUB =  0.00D+00  THRDIV  =  1.00D-05  THRRED  =  1.00D-07  THRPSP  =  1.00D+00  THRDC   =  1.00D-10  THRCS   =  1.00D-10
 THRNRM  =  1.00D-08  THREQ   =  0.00D+00  THRDE   =  1.00D+00  THRREF  =  1.00D-05  SPARFAC =  1.00D+00  THRDLP  =  1.00D-07
 THRDIA  =  1.00D-10  THRDLS  =  1.00D-07  THRGPS  =  0.00D+00  THRKEX  =  0.00D+00  THRDIS  =  2.00D-01  THRVAR  =  1.00D-10
 THRLOC  =  1.00D-06  THRGAP  =  1.00D-06  THRLOCT = -1.00D+00  THRGAPT = -1.00D+00  THRORB  =  1.00D-06  THRMLTP =  0.00D+00
 THRCPQCI=  1.00D-10  KEXTA   =  0.00D+00  THRCOARS=  0.00D+00  SYMTOL  =  1.00D-06  GRADTOL =  1.00D-06  THROVL  =  1.00D-08
 THRORTH =  1.00D-08  GRID    =  1.00D-06  GRIDMAX =  1.00D-03  DTMAX   =  0.00D+00  THROCCDE=  1.00D-01  THROCCDE=  1.00D-01



 Input parameters for SORTINT:

 COMPRESS =    0.000000
 C_FINAL  =    1.000000
 DEBUG    =   -1.000000
 C_SORT1  =    0.000000
 C_SEWARD =    0.000000
 THRESH   =    0.000000
 IO       =  molpro                                                          
 SPRI     =    0.000000
 SETTING GEOMTYP        =    XYZ
 ZUNIT=BOHR
 

 Variable memory set to  995000000 words,  buffer space   230000 words

 SETTING BASIS          =    AVQZ


 Recomputing integrals since basis changed


 Using spherical harmonics

 Library entry N      S aug-cc-pVQZ          selected for orbital group  1
 Library entry N      P aug-cc-pVQZ          selected for orbital group  1
 Library entry N      D aug-cc-pVQZ          selected for orbital group  1
 Library entry N      F aug-cc-pVQZ          selected for orbital group  1
 Library entry N      G aug-cc-pVQZ          selected for orbital group  1
 Library entry H      S aug-cc-pVQZ          selected for orbital group  2
 Library entry H      P aug-cc-pVQZ          selected for orbital group  2
 Library entry H      D aug-cc-pVQZ          selected for orbital group  2
 Library entry H      F aug-cc-pVQZ          selected for orbital group  2
 Library entry O      S aug-cc-pVQZ          selected for orbital group  3
 Library entry O      P aug-cc-pVQZ          selected for orbital group  3
 Library entry O      D aug-cc-pVQZ          selected for orbital group  3
 Library entry O      F aug-cc-pVQZ          selected for orbital group  3
 Library entry O      G aug-cc-pVQZ          selected for orbital group  3


 PROGRAM * SEWARD (Integral evaluation for generally contracted gaussian basis sets)     Author: Roland Lindh, 1990

 Geometry written to block  1 of record 700


 Point group  Cs  



 ATOMIC COORDINATES

 NR  ATOM    CHARGE       X              Y              Z

   1  N       7.00    0.000000000   -0.169333981   -1.154291329
   2  H       1.00    0.000000000    1.666335577   -1.917629586
   3  O       8.00    0.000000000    0.044766194    1.121331324

 Bond lengths in Bohr (Angstrom)

 1-2  1.988056342  1-3  2.285672187
     ( 1.052034110)     ( 1.209525633)

 Bond angles

  2-1-3  107.20451345

 NUCLEAR CHARGE:                   16
 NUMBER OF PRIMITIVE AOS:         293
 NUMBER OF SYMMETRY AOS:          234
 NUMBER OF CONTRACTIONS:          206   ( 130A'  +  76A"  )
 NUMBER OF CORE ORBITALS:           2   (   2A'  +   0A"  )
 NUMBER OF VALENCE ORBITALS:        9   (   7A'  +   2A"  )


 NUCLEAR REPULSION ENERGY   30.34400278

 Eigenvalues of metric

         1 0.596E-04 0.147E-03 0.318E-03 0.436E-03 0.594E-03 0.685E-03 0.101E-02 0.108E-02
         2 0.827E-03 0.163E-02 0.498E-02 0.894E-02 0.101E-01 0.124E-01 0.125E-01 0.188E-01


 Contracted 2-electron integrals neglected if value below      1.0D-22

      109944323. INTEGRALS WRITTEN OUT IN   26849 BLOCKS ON RECORD 1290 OF FILE 1


 NUMBER OF SORTED TWO-ELECTRON INTEGRALS:  115283741.     BUFFER LENGTH:  32768
 NUMBER OF SEGMENTS:   8  SEGMENT LENGTH:   15998004      RECORD LENGTH: 524288

 Memory used in sort:      16.56 MW

 SORT1 READ   109944323. AND WROTE   110864470. INTEGRALS IN    322 RECORDS. CPU TIME:     2.71 SEC, REAL TIME:     3.47 SEC
 SORT2 READ   110864470. AND WROTE   115283741. INTEGRALS IN      8 RECORDS. CPU TIME:     1.51 SEC, REAL TIME:     2.04 SEC

 FILE SIZES:   FILE 1:  1780.6 MBYTE,  FILE 4:  1350.6 MBYTE,   TOTAL:   3131.2 MBYTE

 OPERATOR DM      FOR CENTER  0  COORDINATES:    0.000000    0.000000    0.000000


 **********************************************************************************************************************************
 DATASETS  * FILE   NREC   LENGTH (MB)   RECORD NAMES
              1      19      944.13       500      610      700      900      950      970     1000      129      960     1100   
                                          VAR    BASINP    GEOM    SYMINP    ZMAT    AOBASIS   BASIS     P2S    ABASIS      S 
                                         1400     1410     1200     1210     1080     1600     1650     1300     1700   
                                           T        V       H0       H01     AOSYM     SMH    MOLCAS    ERIS     OPER   

 PROGRAMS   *        TOTAL       INT
 CPU TIMES  *        14.44     14.34
 REAL TIME  *        17.41 SEC
 DISK USED  *         3.13 GB      
 **********************************************************************************************************************************


 PROGRAM * RHF-SCF (CLOSED SHELL)       Authors: W. Meyer, H.-J. Werner


 NUMBER OF ELECTRONS:       8+    8-
 CONVERGENCE THRESHOLDS:    1.00E-10 (Density)    1.00E-13 (Energy)
 MAX. NUMBER OF ITERATIONS:      500
 INTERPOLATION TYPE:            DIIS
 INTERPOLATION STEPS:              2 (START)      1 (STEP)
 LEVEL SHIFTS:                  0.00 (CLOSED)  0.00 (OPEN) 



 Orbital guess generated from atomic densities. Full valence occupancy:    9   2

 Molecular orbital dump at record        2100.2

 Initial occupancy:   7   1

 ITERATION    DDIFF          GRAD             ENERGY        2-EL.EN.            DIPOLE MOMENTS         DIIS   ORB.
    1      0.000D+00      0.000D+00      -129.79608281    153.921298    0.00000    0.58655   -1.02931    0    start
    2      0.000D+00      0.814D-02      -129.82333265    155.146050    0.00000    0.61206   -0.20304    1    diag
    3      0.657D-02      0.623D-02      -129.84658185    155.273597    0.00000    0.55346   -0.59228    2    diag
    4      0.335D-02      0.971D-03      -129.84738718    154.987466    0.00000    0.56132   -0.53093    3    diag
    5      0.606D-03      0.318D-03      -129.84751466    155.080929    0.00000    0.56654   -0.53340    4    diag
    6      0.253D-03      0.920D-04      -129.84753505    155.064710    0.00000    0.56680   -0.52917    5    diag
    7      0.969D-04      0.459D-04      -129.84754103    155.067461    0.00000    0.56803   -0.52652    6    diag
    8      0.670D-04      0.161D-04      -129.84754171    155.066752    0.00000    0.56806   -0.52548    7    diag
    9      0.260D-04      0.308D-05      -129.84754174    155.066636    0.00000    0.56803   -0.52526    8    diag
   10      0.518D-05      0.694D-06      -129.84754174    155.066618    0.00000    0.56799   -0.52523    9    orth
   11      0.997D-06      0.139D-06      -129.84754174    155.066615    0.00000    0.56799   -0.52522    9    diag
   12      0.182D-06      0.285D-07      -129.84754174    155.066615    0.00000    0.56799   -0.52522    9    diag
   13      0.398D-07      0.739D-08      -129.84754174    155.066614    0.00000    0.56798   -0.52522    9    diag
   14      0.109D-07      0.145D-08      -129.84754174    155.066614    0.00000    0.56798   -0.52522    9    diag
   15      0.198D-08      0.413D-09      -129.84754174    155.066614    0.00000    0.56798   -0.52522    9    diag
   16      0.591D-09      0.124D-09      -129.84754174    155.066614    0.00000    0.56798   -0.52522    9    diag
   17      0.112D-09      0.327D-10      -129.84754174    155.066614    0.00000    0.56798   -0.52522    9    diag
   18      0.312D-10      0.111D-10      -129.84754174    155.066614    0.00000    0.56798   -0.52522    9    diag
   19      0.149D-10      0.266D-11      -129.84754174    155.066614    0.00000    0.56798   -0.52522    9    fixocc
   20      0.559D-11      0.483D-12      -129.84754174    155.066614    0.00000    0.56798   -0.52522    9    orth
   21      0.407D-11      0.215D-12      -129.84754174    155.066614    0.00000    0.56798   -0.52522    0    orth

 Final occupancy:   7   1

 !RHF STATE 1.1 Energy               -129.847541740055
 Nuclear energy                        30.34400278
 One-electron energy                 -237.72485171
 Two-electron energy                   77.53330719
 Virial quotient                       -1.00176394
 !RHF STATE 1.1 Dipole moment           0.00000000     0.56798490    -0.52522327
 Dipole moment /Debye                   0.00000000     1.44357907    -1.33489696

 Orbital energies:

         1.1          2.1          3.1          4.1          5.1          6.1          7.1          8.1          9.1
    -20.653574   -15.713086    -1.528823    -0.994273    -0.746788    -0.665461    -0.431654     0.026417     0.079498

         1.2          2.2          3.2
     -0.595460     0.063048     0.110428

 HOMO      7.1    -0.431654 =     -11.7459eV
 LUMO      8.1     0.026417 =       0.7188eV
 LUMO-HOMO         0.458071 =      12.4647eV


 **********************************************************************************************************************************
 DATASETS  * FILE   NREC   LENGTH (MB)   RECORD NAMES
              1      19      944.13       500      610      700      900      950      970     1000      129      960     1100   
                                          VAR    BASINP    GEOM    SYMINP    ZMAT    AOBASIS   BASIS     P2S    ABASIS      S 
                                         1400     1410     1200     1210     1080     1600     1650     1300     1700   
                                           T        V       H0       H01     AOSYM     SMH    MOLCAS    ERIS     OPER   

              2       4        3.27       700     1000      520     2100   
                                         GEOM     BASIS   MCVARS     RHF  

 PROGRAMS   *        TOTAL        HF       INT
 CPU TIMES  *        27.51     13.07     14.34
 REAL TIME  *        32.97 SEC
 DISK USED  *         3.13 GB      
 **********************************************************************************************************************************


 PROGRAM * CCSD (Closed-shell coupled cluster)     Authors: C. Hampel, H.-J. Werner, 1991, M. Deegan, P.J. Knowles, 1992


 Convergence thresholds:  THRVAR = 1.00D-08  THRDEN = 1.00D-12

 CCSD(T)     terms to be evaluated (factor= 1.000)


 Number of core orbitals:           2 (   2   0 )
 Number of closed-shell orbitals:   6 (   5   1 )
 Number of external orbitals:     198 ( 123  75 )

 Molecular orbitals read from record     2100.2  Type=RHF/CANONICAL (state 1.1)

 Number of N-1 electron functions:               6
 Number of N-2 electron functions:              21
 Number of singly external CSFs:               690
 Number of doubly external CSFs:            362646
 Total number of CSFs:                      363337

 Length of J-op  integral file:               0.00 MB
 Length of K-op  integral file:               1.60 MB
 Length of 3-ext integral record:             0.00 MB

 Memory could be reduced to 34.67 Mwords without degradation in triples

 Integral transformation finished. Total CPU:   1.98 sec, npass=  1  Memory used:   9.53 MW

 Reference energy:                   -129.84754174

 MP2 singlet pair energy:              -0.30177694
 MP2 triplet pair energy:              -0.17054217
 MP2 correlation energy:               -0.47231912
 MP2 total energy:                   -130.31986086

 SCS-MP2 correlation energy:           -0.46824746   (PS=  1.200000  PT=  0.333333)
 SCS-MP2 total energy:               -130.31578920

 ITER.      SQ.NORM     CORR.ENERGY   TOTAL ENERGY   ENERGY CHANGE        DEN1      VAR(S)    VAR(P)  DIIS     TIME  TIME/IT
   1      1.12117225    -0.47228892  -130.31983066     0.00003020     0.01649377  0.32D-02  0.32D-02  1  1     3.80     1.90
   2      1.13189909    -0.47223779  -130.31977953     0.00005113    -0.01253207  0.10D-03  0.49D-03  2  2     5.64     1.95
   3      1.13822284    -0.47261595  -130.32015769    -0.00037816    -0.00305581  0.48D-04  0.53D-04  3  3     7.45     1.96
   4      1.14098546    -0.47262343  -130.32016517    -0.00000748    -0.00093895  0.43D-05  0.96D-05  4  4     9.30     1.96
   5      1.14207743    -0.47265303  -130.32019477    -0.00002960    -0.00023863  0.11D-05  0.16D-05  5  5    11.14     1.97
   6      1.14242880    -0.47263810  -130.32017984     0.00001493    -0.00005079  0.11D-06  0.39D-06  6  6    12.98     1.97
   7      1.14249989    -0.47263859  -130.32018033    -0.00000049     0.00000269  0.16D-07  0.87D-07  6  1    14.80     1.97
   8      1.14252216    -0.47263888  -130.32018062    -0.00000028    -0.00000110  0.33D-08  0.17D-07  6  2    16.64     1.97
   9      1.14252700    -0.47263850  -130.32018024     0.00000038     0.00000094  0.24D-08  0.20D-08  6  4    18.46     1.97
  10      1.14252943    -0.47263886  -130.32018060    -0.00000037    -0.00000073  0.45D-09  0.24D-09  6  3    20.28     1.97
  11      1.14252917    -0.47263892  -130.32018066    -0.00000006    -0.00000012  0.14D-09  0.34D-10  6  5    22.13     1.97
  12      1.14252823    -0.47263906  -130.32018080    -0.00000014     0.00000035  0.18D-10  0.10D-10  6  6    23.97     1.97
  13      1.14252741    -0.47263910  -130.32018084    -0.00000004     0.00000021  0.55D-11  0.22D-11  6  1    25.80     1.97
  14      1.14252675    -0.47263914  -130.32018088    -0.00000003     0.00000015  0.36D-12  0.46D-12  6  4    27.64     1.97
  15      1.14252655    -0.47263914  -130.32018088    -0.00000001     0.00000003  0.81D-13  0.36D-13  6  2    29.48     1.97
  16      1.14252650    -0.47263914  -130.32018088    -0.00000000     0.00000001  0.22D-13  0.67D-14  6  3    31.30     1.97
  17      1.14252648    -0.47263914  -130.32018088    -0.00000000     0.00000001  0.40D-14  0.98D-15  6  5    33.15     1.97
  18      1.14252647    -0.47263914  -130.32018088    -0.00000000     0.00000000  0.81D-15  0.25D-15  6  6    34.97     1.97
  19      1.14252647    -0.47263914  -130.32018088    -0.00000000     0.00000000  0.95D-16  0.49D-16  6  1    36.83     1.97
  20      1.14252648    -0.47263914  -130.32018088     0.00000000    -0.00000000  0.90D-17  0.72D-17  6  4    38.67     1.97
  21      1.14252648    -0.47263914  -130.32018088     0.00000000    -0.00000000  0.48D-18  0.58D-18  6  3    40.48     1.97
  22      1.14252648    -0.47263914  -130.32018088     0.00000000    -0.00000000  0.12D-18  0.11D-18  6  2    42.33     1.97
  23      1.14252648    -0.47263914  -130.32018088     0.00000000     0.00000000  0.36D-19  0.42D-19  6  5    44.20     1.97
  24      1.14252648    -0.47263914  -130.32018088    -0.00000000     0.00000000  0.31D-20  0.94D-20  6  1    46.05     1.97

 Norm of t1 vector:      0.07677403      S-energy:    -0.00000000      T1 diagnostic:  0.01567143
                                                                       D1 diagnostic:  0.04228602

 Doubles amplitudes (print threshold =  0.500E-01):

         I         J         SYM. A    SYM. B    A         B      T(IJ, AB)

         6         6         2         2         1         1     -0.09944280


 Total CPU time for triples:     22.25 sec


 RESULTS
 =======

  Reference energy                   -129.847541740055
  CCSD singlet pair energy             -0.326742827744
  CCSD triplet pair energy             -0.145896316698
  CCSD correlation energy              -0.472639144442

  Triples (T) contribution             -0.022401091960
  Total correlation energy             -0.495040236402

  CCSD total energy                  -130.320180884497
  CCSD[T] energy                     -130.343657402789
  CCSD-T energy                      -130.342196120118
 !CCSD(T) total energy               -130.342581976457

 Timing summary (sec):

 STEP                 CPU(USER)    SYS     CPU(TOT)    WALL
 Transformation          2.00      0.25      2.25      2.63
 CCSD iterations        44.06      3.23     47.29     47.31
 Triples                22.25      0.40     22.65     22.66

 Program statistics:

 Available memory in ccsd:               994999756
 Min. memory needed in ccsd:               1265322
 Max. memory used in ccsd:                 1555950
 Max. memory used in cckext:               2415326 (24 integral passes)



 **********************************************************************************************************************************
 DATASETS  * FILE   NREC   LENGTH (MB)   RECORD NAMES
              1      20     1044.68       500      610      700      900      950      970     1000      129      960     1100   
                                          VAR    BASINP    GEOM    SYMINP    ZMAT    AOBASIS   BASIS     P2S    ABASIS      S 
                                         1400     1410     1200     1210     1080     1600     1650     1300     1700     1380   
                                           T        V       H0       H01     AOSYM     SMH    MOLCAS    ERIS     OPER     JKOP   

              2       4        3.27       700     1000      520     2100   
                                         GEOM     BASIS   MCVARS     RHF  

 PROGRAMS   *        TOTAL   CCSD(T)        HF       INT
 CPU TIMES  *        95.84     68.33     13.07     14.34
 REAL TIME  *       105.60 SEC
 DISK USED  *         3.13 GB      
 **********************************************************************************************************************************

 CCSD(T)/aug-cc-pVQZ energy=   -130.342581976457

        CCSD(T)         HF-SCF  
   -130.34258198   -129.84754174
 **********************************************************************************************************************************
 Molpro calculation terminated
 Variable memory released
