
 Primary working directories    : /tmp/r2666/234882.maple
 Secondary working directories  : /tmp/r2666/234882.maple
 Wavefunction directory         : /ddn/home4/r2666/wfu/
 Main file repository           : /tmp/r2666/234882.maple/

 SHA1      : d5ffa45e93fdbca01ffc919aa182cfdae0147319
 NAME      : 2015.1.35
 ARCHNAME  : linux/x86_64
 FC        : /opt/intel/composer_xe_2015.1.133/bin/intel64/ifort
 BLASLIB   : -Wl,-_start-group /opt/intel/mkl/lib/intel64/libmkl_intel_ilp64.a /opt/intel/mkl/lib/intel64/libmkl_intel_thread.a /opt/intel/mkl/lib/intel64/libmkl_core.a -Wl,-_end-group
 id        : olemiss

 Nodes     nprocs
 cn091        1

 Using customized tuning parameters: mindgm=1; mindgv=20; mindgc=4; mindgr=1; noblas=0; minvec=7
 default implementation of scratch files=df  

 ***,hno CCSD(T)/TZ-F12 QFF
 memory, 995, m;
 gthresh,energy=1.d-12,zero=1.d-22,oneint=1.d-22,twoint=1.d-22;
 gthresh,optgrad=1.d-8,optstep=1.d-8;
 nocompress;
 geomtyp=xyz
 bohr
 geometry={
 3
        125       125
 N        0.0000000000       -0.1741867926       -1.1365174315
 H        0.0000000000        1.6787134164       -1.9319033608
 O        0.0000000000        0.0372411662        1.1178312013
 }
 
 basis=avqz
   {hf,maxit=500;accu,20;}
 {ccsd(t),nocheck,maxit=250;orbital,IGNORE_ERROR;}

 Variables initialized (889), CPU time= 0.00 sec
 Commands  initialized (702), CPU time= 0.01 sec, 572 directives.
 Default parameters read. Elapsed time= 0.04 sec

 Checking input...
 Passed
1


                                         ***  PROGRAM SYSTEM MOLPRO  ***
                                       Copyright, TTI GmbH Stuttgart, 2015
                                    Version 2015.1 linked Jul  9 2018 13:16:40


 **********************************************************************************************************************************
 LABEL *   hno CCSD(T)/TZ-F12 QFF                                                        
  64 bit serial version                                                                  DATE: 08-Feb-20          TIME: 17:55:21  
 **********************************************************************************************************************************

 SHA1:             d5ffa45e93fdbca01ffc919aa182cfdae0147319
 **********************************************************************************************************************************

 THRESHOLDS:

 ZERO    =  1.00D-22  ONEINT  =  1.00D-22  TWOINT  =  1.00D-22  PREFAC  =  1.00D-14  LOCALI  =  1.00D-09  EORDER  =  1.00D-04
 ENERGY  =  1.00D-12  ETEST   =  0.00D+00  EDENS   =  0.00D+00  THRDEDEF=  1.00D-06  GRADIENT=  1.00D-02  STEP    =  1.00D-03
 ORBITAL =  1.00D-05  CIVEC   =  1.00D-05  COEFF   =  1.00D-04  PRINTCI =  5.00D-02  PUNCHCI =  9.90D+01  OPTGRAD =  3.00D-04
 OPTENERG=  1.00D-06  OPTSTEP =  3.00D-04  THRGRAD =  1.00D-10  COMPRESS=  1.00D-11  VARMIN  =  1.00D-07  VARMAX  =  1.00D-03
 THRDOUB =  0.00D+00  THRDIV  =  1.00D-05  THRRED  =  1.00D-07  THRPSP  =  1.00D+00  THRDC   =  1.00D-10  THRCS   =  1.00D-10
 THRNRM  =  1.00D-08  THREQ   =  0.00D+00  THRDE   =  1.00D+00  THRREF  =  1.00D-05  SPARFAC =  1.00D+00  THRDLP  =  1.00D-07
 THRDIA  =  1.00D-10  THRDLS  =  1.00D-07  THRGPS  =  0.00D+00  THRKEX  =  0.00D+00  THRDIS  =  2.00D-01  THRVAR  =  1.00D-10
 THRLOC  =  1.00D-06  THRGAP  =  1.00D-06  THRLOCT = -1.00D+00  THRGAPT = -1.00D+00  THRORB  =  1.00D-06  THRMLTP =  0.00D+00
 THRCPQCI=  1.00D-10  KEXTA   =  0.00D+00  THRCOARS=  0.00D+00  SYMTOL  =  1.00D-06  GRADTOL =  1.00D-06  THROVL  =  1.00D-08
 THRORTH =  1.00D-08  GRID    =  1.00D-06  GRIDMAX =  1.00D-03  DTMAX   =  0.00D+00  THROCCDE=  1.00D-01  THROCCDE=  1.00D-01



 THRESHOLDS:

 ZERO    =  1.00D-22  ONEINT  =  1.00D-22  TWOINT  =  1.00D-22  PREFAC  =  1.00D-14  LOCALI  =  1.00D-09  EORDER  =  1.00D-04
 ENERGY  =  1.00D-12  ETEST   =  0.00D+00  EDENS   =  0.00D+00  THRDEDEF=  1.00D-06  GRADIENT=  1.00D-02  STEP    =  1.00D-03
 ORBITAL =  1.00D-05  CIVEC   =  1.00D-05  COEFF   =  1.00D-04  PRINTCI =  5.00D-02  PUNCHCI =  9.90D+01  OPTGRAD =  1.00D-08
 OPTENERG=  1.00D-06  OPTSTEP =  1.00D-08  THRGRAD =  1.00D-10  COMPRESS=  1.00D-11  VARMIN  =  1.00D-07  VARMAX  =  1.00D-03
 THRDOUB =  0.00D+00  THRDIV  =  1.00D-05  THRRED  =  1.00D-07  THRPSP  =  1.00D+00  THRDC   =  1.00D-10  THRCS   =  1.00D-10
 THRNRM  =  1.00D-08  THREQ   =  0.00D+00  THRDE   =  1.00D+00  THRREF  =  1.00D-05  SPARFAC =  1.00D+00  THRDLP  =  1.00D-07
 THRDIA  =  1.00D-10  THRDLS  =  1.00D-07  THRGPS  =  0.00D+00  THRKEX  =  0.00D+00  THRDIS  =  2.00D-01  THRVAR  =  1.00D-10
 THRLOC  =  1.00D-06  THRGAP  =  1.00D-06  THRLOCT = -1.00D+00  THRGAPT = -1.00D+00  THRORB  =  1.00D-06  THRMLTP =  0.00D+00
 THRCPQCI=  1.00D-10  KEXTA   =  0.00D+00  THRCOARS=  0.00D+00  SYMTOL  =  1.00D-06  GRADTOL =  1.00D-06  THROVL  =  1.00D-08
 THRORTH =  1.00D-08  GRID    =  1.00D-06  GRIDMAX =  1.00D-03  DTMAX   =  0.00D+00  THROCCDE=  1.00D-01  THROCCDE=  1.00D-01



 Input parameters for SORTINT:

 COMPRESS =    0.000000
 C_FINAL  =    1.000000
 DEBUG    =   -1.000000
 C_SORT1  =    0.000000
 C_SEWARD =    0.000000
 THRESH   =    0.000000
 IO       =  molpro                                                          
 SPRI     =    0.000000
 SETTING GEOMTYP        =    XYZ
 ZUNIT=BOHR
 

 Variable memory set to  995000000 words,  buffer space   230000 words

 SETTING BASIS          =    AVQZ


 Recomputing integrals since basis changed


 Using spherical harmonics

 Library entry N      S aug-cc-pVQZ          selected for orbital group  1
 Library entry N      P aug-cc-pVQZ          selected for orbital group  1
 Library entry N      D aug-cc-pVQZ          selected for orbital group  1
 Library entry N      F aug-cc-pVQZ          selected for orbital group  1
 Library entry N      G aug-cc-pVQZ          selected for orbital group  1
 Library entry H      S aug-cc-pVQZ          selected for orbital group  2
 Library entry H      P aug-cc-pVQZ          selected for orbital group  2
 Library entry H      D aug-cc-pVQZ          selected for orbital group  2
 Library entry H      F aug-cc-pVQZ          selected for orbital group  2
 Library entry O      S aug-cc-pVQZ          selected for orbital group  3
 Library entry O      P aug-cc-pVQZ          selected for orbital group  3
 Library entry O      D aug-cc-pVQZ          selected for orbital group  3
 Library entry O      F aug-cc-pVQZ          selected for orbital group  3
 Library entry O      G aug-cc-pVQZ          selected for orbital group  3


 PROGRAM * SEWARD (Integral evaluation for generally contracted gaussian basis sets)     Author: Roland Lindh, 1990

 Geometry written to block  1 of record 700


 Point group  Cs  



 ATOMIC COORDINATES

 NR  ATOM    CHARGE       X              Y              Z

   1  N       7.00    0.000000000   -0.174186793   -1.136517431
   2  H       1.00    0.000000000    1.678713416   -1.931903361
   3  O       8.00    0.000000000    0.037241166    1.117831201

 Bond lengths in Bohr (Angstrom)

 1-2  2.016402232  1-3  2.264241493
     ( 1.067034109)     ( 1.198184998)

 Bond angles

  2-1-3  107.87426280

 NUCLEAR CHARGE:                   16
 NUMBER OF PRIMITIVE AOS:         293
 NUMBER OF SYMMETRY AOS:          234
 NUMBER OF CONTRACTIONS:          206   ( 130A'  +  76A"  )
 NUMBER OF CORE ORBITALS:           2   (   2A'  +   0A"  )
 NUMBER OF VALENCE ORBITALS:        9   (   7A'  +   2A"  )


 NUCLEAR REPULSION ENERGY   30.51372611

 Eigenvalues of metric

         1 0.599E-04 0.147E-03 0.316E-03 0.434E-03 0.577E-03 0.697E-03 0.102E-02 0.107E-02
         2 0.803E-03 0.170E-02 0.491E-02 0.891E-02 0.103E-01 0.121E-01 0.124E-01 0.191E-01


 Contracted 2-electron integrals neglected if value below      1.0D-22

      109945093. INTEGRALS WRITTEN OUT IN   26849 BLOCKS ON RECORD 1290 OF FILE 1


 NUMBER OF SORTED TWO-ELECTRON INTEGRALS:  115283741.     BUFFER LENGTH:  32768
 NUMBER OF SEGMENTS:   8  SEGMENT LENGTH:   15998004      RECORD LENGTH: 524288

 Memory used in sort:      16.56 MW

 SORT1 READ   109945093. AND WROTE   110865260. INTEGRALS IN    322 RECORDS. CPU TIME:     1.82 SEC, REAL TIME:     2.72 SEC
 SORT2 READ   110865260. AND WROTE   115283741. INTEGRALS IN      8 RECORDS. CPU TIME:     1.30 SEC, REAL TIME:     1.85 SEC

 FILE SIZES:   FILE 1:  1780.6 MBYTE,  FILE 4:  1350.6 MBYTE,   TOTAL:   3131.2 MBYTE

 OPERATOR DM      FOR CENTER  0  COORDINATES:    0.000000    0.000000    0.000000


 **********************************************************************************************************************************
 DATASETS  * FILE   NREC   LENGTH (MB)   RECORD NAMES
              1      19      944.14       500      610      700      900      950      970     1000      129      960     1100   
                                          VAR    BASINP    GEOM    SYMINP    ZMAT    AOBASIS   BASIS     P2S    ABASIS      S 
                                         1400     1410     1200     1210     1080     1600     1650     1300     1700   
                                           T        V       H0       H01     AOSYM     SMH    MOLCAS    ERIS     OPER   

 PROGRAMS   *        TOTAL       INT
 CPU TIMES  *        10.85     10.77
 REAL TIME  *        15.49 SEC
 DISK USED  *         3.13 GB      
 **********************************************************************************************************************************


 PROGRAM * RHF-SCF (CLOSED SHELL)       Authors: W. Meyer, H.-J. Werner


 NUMBER OF ELECTRONS:       8+    8-
 CONVERGENCE THRESHOLDS:    1.00E-10 (Density)    1.00E-13 (Energy)
 MAX. NUMBER OF ITERATIONS:      500
 INTERPOLATION TYPE:            DIIS
 INTERPOLATION STEPS:              2 (START)      1 (STEP)
 LEVEL SHIFTS:                  0.00 (CLOSED)  0.00 (OPEN) 



 Orbital guess generated from atomic densities. Full valence occupancy:    9   2

 Molecular orbital dump at record        2100.2

 Initial occupancy:   7   1

 ITERATION    DDIFF          GRAD             ENERGY        2-EL.EN.            DIPOLE MOMENTS         DIIS   ORB.
    1      0.000D+00      0.000D+00      -129.79796351    154.208101    0.00000    0.57712   -0.99499    0    start
    2      0.000D+00      0.808D-02      -129.82551019    155.477173    0.00000    0.60258   -0.20402    1    diag
    3      0.646D-02      0.607D-02      -129.84749873    155.573650    0.00000    0.54513   -0.57547    2    diag
    4      0.328D-02      0.958D-03      -129.84828287    155.294074    0.00000    0.55282   -0.51590    3    diag
    5      0.598D-03      0.314D-03      -129.84840826    155.387918    0.00000    0.55832   -0.51874    4    diag
    6      0.251D-03      0.914D-04      -129.84842841    155.371677    0.00000    0.55866   -0.51470    5    diag
    7      0.963D-04      0.450D-04      -129.84843411    155.374613    0.00000    0.55996   -0.51223    6    diag
    8      0.658D-04      0.153D-04      -129.84843470    155.373940    0.00000    0.56002   -0.51127    7    diag
    9      0.242D-04      0.292D-05      -129.84843473    155.373826    0.00000    0.55998   -0.51106    8    diag
   10      0.474D-05      0.676D-06      -129.84843473    155.373807    0.00000    0.55995   -0.51103    9    orth
   11      0.974D-06      0.138D-06      -129.84843473    155.373803    0.00000    0.55994   -0.51103    9    diag
   12      0.187D-06      0.280D-07      -129.84843473    155.373802    0.00000    0.55994   -0.51103    9    diag
   13      0.410D-07      0.719D-08      -129.84843473    155.373802    0.00000    0.55994   -0.51103    9    diag
   14      0.110D-07      0.146D-08      -129.84843473    155.373802    0.00000    0.55994   -0.51103    9    diag
   15      0.206D-08      0.428D-09      -129.84843473    155.373802    0.00000    0.55994   -0.51103    9    diag
   16      0.612D-09      0.132D-09      -129.84843473    155.373802    0.00000    0.55994   -0.51103    9    diag
   17      0.123D-09      0.374D-10      -129.84843473    155.373802    0.00000    0.55994   -0.51103    9    diag
   18      0.370D-10      0.127D-10      -129.84843473    155.373802    0.00000    0.55994   -0.51103    9    diag
   19      0.164D-10      0.312D-11      -129.84843473    155.373802    0.00000    0.55994   -0.51103    9    fixocc
   20      0.476D-11      0.493D-12      -129.84843473    155.373802    0.00000    0.55994   -0.51103    9    orth
   21      0.256D-11      0.247D-12      -129.84843473    155.373802    0.00000    0.55994   -0.51103    0    orth

 Final occupancy:   7   1

 !RHF STATE 1.1 Energy               -129.848434731630
 Nuclear energy                        30.51372611
 One-electron energy                 -238.04906195
 Two-electron energy                   77.68690112
 Virial quotient                       -1.00161222
 !RHF STATE 1.1 Dipole moment           0.00000000     0.55993624    -0.51102853
 Dipole moment /Debye                   0.00000000     1.42312276    -1.29881988

 Orbital energies:

         1.1          2.1          3.1          4.1          5.1          6.1          7.1          8.1          9.1
    -20.653010   -15.713080    -1.537727    -0.988380    -0.748634    -0.668897    -0.426820     0.026507     0.079503

         1.2          2.2          3.2
     -0.601081     0.065796     0.111247

 HOMO      7.1    -0.426820 =     -11.6144eV
 LUMO      8.1     0.026507 =       0.7213eV
 LUMO-HOMO         0.453327 =      12.3357eV


 **********************************************************************************************************************************
 DATASETS  * FILE   NREC   LENGTH (MB)   RECORD NAMES
              1      19      944.14       500      610      700      900      950      970     1000      129      960     1100   
                                          VAR    BASINP    GEOM    SYMINP    ZMAT    AOBASIS   BASIS     P2S    ABASIS      S 
                                         1400     1410     1200     1210     1080     1600     1650     1300     1700   
                                           T        V       H0       H01     AOSYM     SMH    MOLCAS    ERIS     OPER   

              2       4        3.27       700     1000      520     2100   
                                         GEOM     BASIS   MCVARS     RHF  

 PROGRAMS   *        TOTAL        HF       INT
 CPU TIMES  *        21.32     10.47     10.77
 REAL TIME  *        28.63 SEC
 DISK USED  *         3.13 GB      
 **********************************************************************************************************************************


 PROGRAM * CCSD (Closed-shell coupled cluster)     Authors: C. Hampel, H.-J. Werner, 1991, M. Deegan, P.J. Knowles, 1992


 Convergence thresholds:  THRVAR = 1.00D-08  THRDEN = 1.00D-12

 CCSD(T)     terms to be evaluated (factor= 1.000)


 Number of core orbitals:           2 (   2   0 )
 Number of closed-shell orbitals:   6 (   5   1 )
 Number of external orbitals:     198 ( 123  75 )

 Molecular orbitals read from record     2100.2  Type=RHF/CANONICAL (state 1.1)

 Number of N-1 electron functions:               6
 Number of N-2 electron functions:              21
 Number of singly external CSFs:               690
 Number of doubly external CSFs:            362646
 Total number of CSFs:                      363337

 Length of J-op  integral file:               0.00 MB
 Length of K-op  integral file:               1.60 MB
 Length of 3-ext integral record:             0.00 MB

 Memory could be reduced to 34.67 Mwords without degradation in triples

 Integral transformation finished. Total CPU:   1.51 sec, npass=  1  Memory used:   9.53 MW

 Reference energy:                   -129.84843473

 MP2 singlet pair energy:              -0.30096624
 MP2 triplet pair energy:              -0.16998081
 MP2 correlation energy:               -0.47094705
 MP2 total energy:                   -130.31938178

 SCS-MP2 correlation energy:           -0.46692533   (PS=  1.200000  PT=  0.333333)
 SCS-MP2 total energy:               -130.31536006

 ITER.      SQ.NORM     CORR.ENERGY   TOTAL ENERGY   ENERGY CHANGE        DEN1      VAR(S)    VAR(P)  DIIS     TIME  TIME/IT
   1      1.12049783    -0.47132345  -130.31975818    -0.00037639     0.01575207  0.31D-02  0.31D-02  1  1     2.74     1.40
   2      1.13105358    -0.47135300  -130.31978774    -0.00002956    -0.01233655  0.99D-04  0.48D-03  2  2     4.03     1.43
   3      1.13725311    -0.47172534  -130.32016007    -0.00037234    -0.00301881  0.48D-04  0.51D-04  3  3     5.29     1.43
   4      1.13992283    -0.47172988  -130.32016461    -0.00000454    -0.00091709  0.42D-05  0.93D-05  4  4     6.61     1.45
   5      1.14097453    -0.47175843  -130.32019317    -0.00002855    -0.00023041  0.12D-05  0.16D-05  5  5     7.92     1.45
   6      1.14131731    -0.47174462  -130.32017935     0.00001381    -0.00004886  0.12D-06  0.38D-06  6  6     9.28     1.46
   7      1.14139192    -0.47174468  -130.32017941    -0.00000006     0.00000182  0.20D-07  0.85D-07  6  1    10.57     1.47
   8      1.14141510    -0.47174504  -130.32017978    -0.00000036    -0.00000122  0.36D-08  0.17D-07  6  2    11.89     1.47
   9      1.14142377    -0.47174450  -130.32017923     0.00000054    -0.00000039  0.21D-08  0.16D-08  6  3    13.21     1.47
  10      1.14141938    -0.47174523  -130.32017996    -0.00000073     0.00000147  0.29D-09  0.26D-09  6  5    14.54     1.47
  11      1.14142099    -0.47174520  -130.32017993     0.00000004    -0.00000028  0.86D-10  0.23D-10  6  4    15.85     1.48
  12      1.14142059    -0.47174526  -130.32017999    -0.00000006     0.00000002  0.16D-10  0.56D-11  6  6    17.10     1.48
  13      1.14142041    -0.47174526  -130.32017999    -0.00000000    -0.00000004  0.31D-11  0.79D-12  6  1    18.38     1.48
  14      1.14142015    -0.47174527  -130.32018000    -0.00000001     0.00000004  0.43D-12  0.16D-12  6  3    19.67     1.48
  15      1.14142007    -0.47174528  -130.32018001    -0.00000000     0.00000001  0.12D-12  0.22D-13  6  2    21.01     1.48
  16      1.14142006    -0.47174527  -130.32018001     0.00000000     0.00000000  0.27D-13  0.97D-14  6  4    22.32     1.48
  17      1.14142006    -0.47174528  -130.32018001    -0.00000000    -0.00000000  0.13D-14  0.10D-14  6  5    23.64     1.48
  18      1.14142007    -0.47174527  -130.32018001     0.00000000    -0.00000000  0.23D-15  0.23D-15  6  6    24.94     1.48
  19      1.14142007    -0.47174527  -130.32018001     0.00000000    -0.00000000  0.31D-16  0.26D-16  6  5    26.27     1.48
  20      1.14142007    -0.47174527  -130.32018001     0.00000000    -0.00000000  0.57D-17  0.36D-17  6  1    27.55     1.48
  21      1.14142007    -0.47174527  -130.32018001    -0.00000000     0.00000000  0.73D-18  0.51D-18  6  3    28.87     1.48
  22      1.14142007    -0.47174527  -130.32018001    -0.00000000     0.00000000  0.10D-18  0.55D-19  6  2    30.18     1.48
  23      1.14142007    -0.47174527  -130.32018001    -0.00000000     0.00000000  0.21D-19  0.10D-19  6  4    31.46     1.48
  24      1.14142007    -0.47174527  -130.32018001    -0.00000000     0.00000000  0.74D-20  0.18D-20  6  6    32.75     1.48
  25      1.14142007    -0.47174527  -130.32018001     0.00000000    -0.00000000  0.27D-20  0.70D-21  6  5    34.08     1.48

 Norm of t1 vector:      0.07576418      S-energy:    -0.00000000      T1 diagnostic:  0.01546530
                                                                       D1 diagnostic:  0.04089464

 Doubles amplitudes (print threshold =  0.500E-01):

         I         J         SYM. A    SYM. B    A         B      T(IJ, AB)

         6         6         2         2         1         1     -0.09319233


 Total CPU time for triples:     16.78 sec


 RESULTS
 =======

  Reference energy                   -129.848434731630
  CCSD singlet pair energy             -0.325962220417
  CCSD triplet pair energy             -0.145783054201
  CCSD correlation energy              -0.471745274619

  Triples (T) contribution             -0.022156038646
  Total correlation energy             -0.493901313265

  CCSD total energy                  -130.320180006249
  CCSD[T] energy                     -130.343381766971
  CCSD-T energy                      -130.341955463862
 !CCSD(T) total energy               -130.342336044896

 Timing summary (sec):

 STEP                 CPU(USER)    SYS     CPU(TOT)    WALL
 Transformation          1.52      0.32      1.84      2.08
 CCSD iterations        32.56      4.36     36.92     36.92
 Triples                16.78      0.42     17.20     17.20

 Program statistics:

 Available memory in ccsd:               994999756
 Min. memory needed in ccsd:               1265322
 Max. memory used in ccsd:                 1555950
 Max. memory used in cckext:               2415326 (25 integral passes)



 **********************************************************************************************************************************
 DATASETS  * FILE   NREC   LENGTH (MB)   RECORD NAMES
              1      20     1044.69       500      610      700      900      950      970     1000      129      960     1100   
                                          VAR    BASINP    GEOM    SYMINP    ZMAT    AOBASIS   BASIS     P2S    ABASIS      S 
                                         1400     1410     1200     1210     1080     1600     1650     1300     1700     1380   
                                           T        V       H0       H01     AOSYM     SMH    MOLCAS    ERIS     OPER     JKOP   

              2       4        3.27       700     1000      520     2100   
                                         GEOM     BASIS   MCVARS     RHF  

 PROGRAMS   *        TOTAL   CCSD(T)        HF       INT
 CPU TIMES  *        72.21     50.88     10.47     10.77
 REAL TIME  *        84.93 SEC
 DISK USED  *         3.13 GB      
 **********************************************************************************************************************************

 CCSD(T)/aug-cc-pVQZ energy=   -130.342336044896

        CCSD(T)         HF-SCF  
   -130.34233604   -129.84843473
 **********************************************************************************************************************************
 Molpro calculation terminated
 Variable memory released
