
 Primary working directories    : /tmp/r2666/234786.maple
 Secondary working directories  : /tmp/r2666/234786.maple
 Wavefunction directory         : /ddn/home4/r2666/wfu/
 Main file repository           : /tmp/r2666/234786.maple/

 SHA1      : d5ffa45e93fdbca01ffc919aa182cfdae0147319
 NAME      : 2015.1.35
 ARCHNAME  : linux/x86_64
 FC        : /opt/intel/composer_xe_2015.1.133/bin/intel64/ifort
 BLASLIB   : -Wl,-_start-group /opt/intel/mkl/lib/intel64/libmkl_intel_ilp64.a /opt/intel/mkl/lib/intel64/libmkl_intel_thread.a /opt/intel/mkl/lib/intel64/libmkl_core.a -Wl,-_end-group
 id        : olemiss

 Nodes     nprocs
 cn091        1

 Using customized tuning parameters: mindgm=1; mindgv=20; mindgc=4; mindgr=1; noblas=0; minvec=7
 default implementation of scratch files=df  

 ***,hno CCSD(T)/TZ-F12 QFF
 memory, 995, m;
 gthresh,energy=1.d-12,zero=1.d-22,oneint=1.d-22,twoint=1.d-22;
 gthresh,optgrad=1.d-8,optstep=1.d-8;
 nocompress;
 geomtyp=xyz
 bohr
 geometry={
 3
         29        29
 N        0.0000000000       -0.1628082587       -1.1584607516
 H        0.0000000000        1.6629802129       -1.9209467746
 O        0.0000000000        0.0415958358        1.1288179351
 }
 
 basis=avqz
   {hf,maxit=500;accu,20;}
 {ccsd(t),nocheck,maxit=250;orbital,IGNORE_ERROR;}

 Variables initialized (889), CPU time= 0.00 sec
 Commands  initialized (702), CPU time= 0.01 sec, 572 directives.
 Default parameters read. Elapsed time= 0.05 sec

 Checking input...
 Passed
1


                                         ***  PROGRAM SYSTEM MOLPRO  ***
                                       Copyright, TTI GmbH Stuttgart, 2015
                                    Version 2015.1 linked Jul  9 2018 13:16:40


 **********************************************************************************************************************************
 LABEL *   hno CCSD(T)/TZ-F12 QFF                                                        
  64 bit serial version                                                                  DATE: 08-Feb-20          TIME: 17:51:02  
 **********************************************************************************************************************************

 SHA1:             d5ffa45e93fdbca01ffc919aa182cfdae0147319
 **********************************************************************************************************************************

 THRESHOLDS:

 ZERO    =  1.00D-22  ONEINT  =  1.00D-22  TWOINT  =  1.00D-22  PREFAC  =  1.00D-14  LOCALI  =  1.00D-09  EORDER  =  1.00D-04
 ENERGY  =  1.00D-12  ETEST   =  0.00D+00  EDENS   =  0.00D+00  THRDEDEF=  1.00D-06  GRADIENT=  1.00D-02  STEP    =  1.00D-03
 ORBITAL =  1.00D-05  CIVEC   =  1.00D-05  COEFF   =  1.00D-04  PRINTCI =  5.00D-02  PUNCHCI =  9.90D+01  OPTGRAD =  3.00D-04
 OPTENERG=  1.00D-06  OPTSTEP =  3.00D-04  THRGRAD =  1.00D-10  COMPRESS=  1.00D-11  VARMIN  =  1.00D-07  VARMAX  =  1.00D-03
 THRDOUB =  0.00D+00  THRDIV  =  1.00D-05  THRRED  =  1.00D-07  THRPSP  =  1.00D+00  THRDC   =  1.00D-10  THRCS   =  1.00D-10
 THRNRM  =  1.00D-08  THREQ   =  0.00D+00  THRDE   =  1.00D+00  THRREF  =  1.00D-05  SPARFAC =  1.00D+00  THRDLP  =  1.00D-07
 THRDIA  =  1.00D-10  THRDLS  =  1.00D-07  THRGPS  =  0.00D+00  THRKEX  =  0.00D+00  THRDIS  =  2.00D-01  THRVAR  =  1.00D-10
 THRLOC  =  1.00D-06  THRGAP  =  1.00D-06  THRLOCT = -1.00D+00  THRGAPT = -1.00D+00  THRORB  =  1.00D-06  THRMLTP =  0.00D+00
 THRCPQCI=  1.00D-10  KEXTA   =  0.00D+00  THRCOARS=  0.00D+00  SYMTOL  =  1.00D-06  GRADTOL =  1.00D-06  THROVL  =  1.00D-08
 THRORTH =  1.00D-08  GRID    =  1.00D-06  GRIDMAX =  1.00D-03  DTMAX   =  0.00D+00  THROCCDE=  1.00D-01  THROCCDE=  1.00D-01



 THRESHOLDS:

 ZERO    =  1.00D-22  ONEINT  =  1.00D-22  TWOINT  =  1.00D-22  PREFAC  =  1.00D-14  LOCALI  =  1.00D-09  EORDER  =  1.00D-04
 ENERGY  =  1.00D-12  ETEST   =  0.00D+00  EDENS   =  0.00D+00  THRDEDEF=  1.00D-06  GRADIENT=  1.00D-02  STEP    =  1.00D-03
 ORBITAL =  1.00D-05  CIVEC   =  1.00D-05  COEFF   =  1.00D-04  PRINTCI =  5.00D-02  PUNCHCI =  9.90D+01  OPTGRAD =  1.00D-08
 OPTENERG=  1.00D-06  OPTSTEP =  1.00D-08  THRGRAD =  1.00D-10  COMPRESS=  1.00D-11  VARMIN  =  1.00D-07  VARMAX  =  1.00D-03
 THRDOUB =  0.00D+00  THRDIV  =  1.00D-05  THRRED  =  1.00D-07  THRPSP  =  1.00D+00  THRDC   =  1.00D-10  THRCS   =  1.00D-10
 THRNRM  =  1.00D-08  THREQ   =  0.00D+00  THRDE   =  1.00D+00  THRREF  =  1.00D-05  SPARFAC =  1.00D+00  THRDLP  =  1.00D-07
 THRDIA  =  1.00D-10  THRDLS  =  1.00D-07  THRGPS  =  0.00D+00  THRKEX  =  0.00D+00  THRDIS  =  2.00D-01  THRVAR  =  1.00D-10
 THRLOC  =  1.00D-06  THRGAP  =  1.00D-06  THRLOCT = -1.00D+00  THRGAPT = -1.00D+00  THRORB  =  1.00D-06  THRMLTP =  0.00D+00
 THRCPQCI=  1.00D-10  KEXTA   =  0.00D+00  THRCOARS=  0.00D+00  SYMTOL  =  1.00D-06  GRADTOL =  1.00D-06  THROVL  =  1.00D-08
 THRORTH =  1.00D-08  GRID    =  1.00D-06  GRIDMAX =  1.00D-03  DTMAX   =  0.00D+00  THROCCDE=  1.00D-01  THROCCDE=  1.00D-01



 Input parameters for SORTINT:

 COMPRESS =    0.000000
 C_FINAL  =    1.000000
 DEBUG    =   -1.000000
 C_SORT1  =    0.000000
 C_SEWARD =    0.000000
 THRESH   =    0.000000
 IO       =  molpro                                                          
 SPRI     =    0.000000
 SETTING GEOMTYP        =    XYZ
 ZUNIT=BOHR
 

 Variable memory set to  995000000 words,  buffer space   230000 words

 SETTING BASIS          =    AVQZ


 Recomputing integrals since basis changed


 Using spherical harmonics

 Library entry N      S aug-cc-pVQZ          selected for orbital group  1
 Library entry N      P aug-cc-pVQZ          selected for orbital group  1
 Library entry N      D aug-cc-pVQZ          selected for orbital group  1
 Library entry N      F aug-cc-pVQZ          selected for orbital group  1
 Library entry N      G aug-cc-pVQZ          selected for orbital group  1
 Library entry H      S aug-cc-pVQZ          selected for orbital group  2
 Library entry H      P aug-cc-pVQZ          selected for orbital group  2
 Library entry H      D aug-cc-pVQZ          selected for orbital group  2
 Library entry H      F aug-cc-pVQZ          selected for orbital group  2
 Library entry O      S aug-cc-pVQZ          selected for orbital group  3
 Library entry O      P aug-cc-pVQZ          selected for orbital group  3
 Library entry O      D aug-cc-pVQZ          selected for orbital group  3
 Library entry O      F aug-cc-pVQZ          selected for orbital group  3
 Library entry O      G aug-cc-pVQZ          selected for orbital group  3


 PROGRAM * SEWARD (Integral evaluation for generally contracted gaussian basis sets)     Author: Roland Lindh, 1990

 Geometry written to block  1 of record 700


 Point group  Cs  



 ATOMIC COORDINATES

 NR  ATOM    CHARGE       X              Y              Z

   1  N       7.00    0.000000000   -0.162808259   -1.158460752
   2  H       1.00    0.000000000    1.662980213   -1.920946775
   3  O       8.00    0.000000000    0.041595836    1.128817935

 Bond lengths in Bohr (Angstrom)

 1-2  1.978607712  1-3  2.296393874
     ( 1.047034111)     ( 1.215199305)

 Bond angles

  2-1-3  107.55968976

 NUCLEAR CHARGE:                   16
 NUMBER OF PRIMITIVE AOS:         293
 NUMBER OF SYMMETRY AOS:          234
 NUMBER OF CONTRACTIONS:          206   ( 130A'  +  76A"  )
 NUMBER OF CORE ORBITALS:           2   (   2A'  +   0A"  )
 NUMBER OF VALENCE ORBITALS:        9   (   7A'  +   2A"  )


 NUCLEAR REPULSION ENERGY   30.24007288

 Eigenvalues of metric

         1 0.596E-04 0.147E-03 0.320E-03 0.437E-03 0.601E-03 0.681E-03 0.101E-02 0.109E-02
         2 0.840E-03 0.161E-02 0.501E-02 0.896E-02 0.101E-01 0.124E-01 0.127E-01 0.188E-01


 Contracted 2-electron integrals neglected if value below      1.0D-22

      109945099. INTEGRALS WRITTEN OUT IN   26849 BLOCKS ON RECORD 1290 OF FILE 1


 NUMBER OF SORTED TWO-ELECTRON INTEGRALS:  115283741.     BUFFER LENGTH:  32768
 NUMBER OF SEGMENTS:   8  SEGMENT LENGTH:   15998004      RECORD LENGTH: 524288

 Memory used in sort:      16.56 MW

 SORT1 READ   109945099. AND WROTE   110865266. INTEGRALS IN    322 RECORDS. CPU TIME:     1.90 SEC, REAL TIME:     2.72 SEC
 SORT2 READ   110865266. AND WROTE   115283741. INTEGRALS IN      8 RECORDS. CPU TIME:     1.37 SEC, REAL TIME:     1.86 SEC

 FILE SIZES:   FILE 1:  1780.6 MBYTE,  FILE 4:  1350.6 MBYTE,   TOTAL:   3131.2 MBYTE

 OPERATOR DM      FOR CENTER  0  COORDINATES:    0.000000    0.000000    0.000000


 **********************************************************************************************************************************
 DATASETS  * FILE   NREC   LENGTH (MB)   RECORD NAMES
              1      19      944.14       500      610      700      900      950      970     1000      129      960     1100   
                                          VAR    BASINP    GEOM    SYMINP    ZMAT    AOBASIS   BASIS     P2S    ABASIS      S 
                                         1400     1410     1200     1210     1080     1600     1650     1300     1700   
                                           T        V       H0       H01     AOSYM     SMH    MOLCAS    ERIS     OPER   

 PROGRAMS   *        TOTAL       INT
 CPU TIMES  *        11.06     10.97
 REAL TIME  *        15.69 SEC
 DISK USED  *         3.13 GB      
 **********************************************************************************************************************************


 PROGRAM * RHF-SCF (CLOSED SHELL)       Authors: W. Meyer, H.-J. Werner


 NUMBER OF ELECTRONS:       8+    8-
 CONVERGENCE THRESHOLDS:    1.00E-10 (Density)    1.00E-13 (Energy)
 MAX. NUMBER OF ITERATIONS:      500
 INTERPOLATION TYPE:            DIIS
 INTERPOLATION STEPS:              2 (START)      1 (STEP)
 LEVEL SHIFTS:                  0.00 (CLOSED)  0.00 (OPEN) 



 Orbital guess generated from atomic densities. Full valence occupancy:    9   2

 Molecular orbital dump at record        2100.2

 Initial occupancy:   7   1

 ITERATION    DDIFF          GRAD             ENERGY        2-EL.EN.            DIPOLE MOMENTS         DIIS   ORB.
    1      0.000D+00      0.000D+00      -129.79486326    153.736513    0.00000    0.59514   -1.04767    0    start
    2      0.000D+00      0.817D-02      -129.82191504    154.945705    0.00000    0.61559   -0.20355    1    diag
    3      0.663D-02      0.632D-02      -129.84587054    155.087275    0.00000    0.55898   -0.60260    2    diag
    4      0.339D-02      0.979D-03      -129.84668879    154.797205    0.00000    0.56656   -0.54017    3    diag
    5      0.611D-03      0.319D-03      -129.84681754    154.890912    0.00000    0.57175   -0.54254    4    diag
    6      0.255D-03      0.922D-04      -129.84683809    154.874693    0.00000    0.57199   -0.53823    5    diag
    7      0.973D-04      0.463D-04      -129.84684420    154.877364    0.00000    0.57319   -0.53550    6    diag
    8      0.676D-04      0.165D-04      -129.84684493    154.876640    0.00000    0.57322   -0.53442    7    diag
    9      0.270D-04      0.318D-05      -129.84684496    154.876521    0.00000    0.57319   -0.53418    8    diag
   10      0.544D-05      0.709D-06      -129.84684497    154.876503    0.00000    0.57315   -0.53415    9    orth
   11      0.102D-05      0.140D-06      -129.84684497    154.876500    0.00000    0.57315   -0.53415    9    diag
   12      0.183D-06      0.291D-07      -129.84684497    154.876500    0.00000    0.57314   -0.53415    9    diag
   13      0.396D-07      0.763D-08      -129.84684497    154.876500    0.00000    0.57314   -0.53415    9    diag
   14      0.110D-07      0.148D-08      -129.84684497    154.876500    0.00000    0.57314   -0.53415    9    diag
   15      0.198D-08      0.421D-09      -129.84684497    154.876500    0.00000    0.57314   -0.53415    9    diag
   16      0.595D-09      0.123D-09      -129.84684497    154.876500    0.00000    0.57314   -0.53415    9    diag
   17      0.109D-09      0.312D-10      -129.84684497    154.876500    0.00000    0.57314   -0.53415    9    diag
   18      0.283D-10      0.102D-10      -129.84684497    154.876500    0.00000    0.57314   -0.53415    0    orth

 Final occupancy:   7   1

 !RHF STATE 1.1 Energy               -129.846844965317
 Nuclear energy                        30.24007288
 One-electron energy                 -237.52516777
 Two-electron energy                   77.43824992
 Virial quotient                       -1.00188110
 !RHF STATE 1.1 Dipole moment           0.00000000     0.57314344    -0.53415203
 Dipole moment /Debye                   0.00000000     1.45668989    -1.35759013

 Orbital energies:

         1.1          2.1          3.1          4.1          5.1          6.1          7.1          8.1          9.1
    -20.654126   -15.713332    -1.524112    -0.997092    -0.745601    -0.663930    -0.433459     0.026321     0.079473

         1.2          2.2          3.2
     -0.592681     0.061528     0.110058

 HOMO      7.1    -0.433459 =     -11.7950eV
 LUMO      8.1     0.026321 =       0.7162eV
 LUMO-HOMO         0.459781 =      12.5113eV


 **********************************************************************************************************************************
 DATASETS  * FILE   NREC   LENGTH (MB)   RECORD NAMES
              1      19      944.14       500      610      700      900      950      970     1000      129      960     1100   
                                          VAR    BASINP    GEOM    SYMINP    ZMAT    AOBASIS   BASIS     P2S    ABASIS      S 
                                         1400     1410     1200     1210     1080     1600     1650     1300     1700   
                                           T        V       H0       H01     AOSYM     SMH    MOLCAS    ERIS     OPER   

              2       4        3.27       700     1000      520     2100   
                                         GEOM     BASIS   MCVARS     RHF  

 PROGRAMS   *        TOTAL        HF       INT
 CPU TIMES  *        20.11      9.05     10.97
 REAL TIME  *        27.00 SEC
 DISK USED  *         3.13 GB      
 **********************************************************************************************************************************


 PROGRAM * CCSD (Closed-shell coupled cluster)     Authors: C. Hampel, H.-J. Werner, 1991, M. Deegan, P.J. Knowles, 1992


 Convergence thresholds:  THRVAR = 1.00D-08  THRDEN = 1.00D-12

 CCSD(T)     terms to be evaluated (factor= 1.000)


 Number of core orbitals:           2 (   2   0 )
 Number of closed-shell orbitals:   6 (   5   1 )
 Number of external orbitals:     198 ( 123  75 )

 Molecular orbitals read from record     2100.2  Type=RHF/CANONICAL (state 1.1)

 Number of N-1 electron functions:               6
 Number of N-2 electron functions:              21
 Number of singly external CSFs:               690
 Number of doubly external CSFs:            362646
 Total number of CSFs:                      363337

 Length of J-op  integral file:               0.00 MB
 Length of K-op  integral file:               1.60 MB
 Length of 3-ext integral record:             0.00 MB

 Memory could be reduced to 34.67 Mwords without degradation in triples

 Integral transformation finished. Total CPU:   1.55 sec, npass=  1  Memory used:   9.53 MW

 Reference energy:                   -129.84684497

 MP2 singlet pair energy:              -0.30224976
 MP2 triplet pair energy:              -0.17086659
 MP2 correlation energy:               -0.47311635
 MP2 total energy:                   -130.31996132

 SCS-MP2 correlation energy:           -0.46901671   (PS=  1.200000  PT=  0.333333)
 SCS-MP2 total energy:               -130.31586167

 ITER.      SQ.NORM     CORR.ENERGY   TOTAL ENERGY   ENERGY CHANGE        DEN1      VAR(S)    VAR(P)  DIIS     TIME  TIME/IT
   1      1.12162831    -0.47287011  -130.31971508     0.00024624     0.01692380  0.32D-02  0.33D-02  1  1     2.81     1.39
   2      1.13247402    -0.47277171  -130.31961668     0.00009840    -0.01265648  0.11D-03  0.50D-03  2  2     4.11     1.43
   3      1.13889195    -0.47315644  -130.32000141    -0.00038473    -0.00308179  0.50D-04  0.55D-04  3  3     5.37     1.44
   4      1.14171795    -0.47316463  -130.32000960    -0.00000819    -0.00095438  0.45D-05  0.98D-05  4  4     6.71     1.45
   5      1.14284663    -0.47319512  -130.32004008    -0.00003049    -0.00024592  0.11D-05  0.17D-05  5  5     7.99     1.46
   6      1.14320813    -0.47317952  -130.32002449     0.00001560    -0.00005236  0.11D-06  0.39D-06  6  6     9.27     1.46
   7      1.14327946    -0.47318017  -130.32002513    -0.00000065     0.00000301  0.16D-07  0.90D-07  6  1    10.61     1.46
   8      1.14330186    -0.47318042  -130.32002538    -0.00000025    -0.00000111  0.33D-08  0.18D-07  6  2    11.93     1.47
   9      1.14330661    -0.47318003  -130.32002500     0.00000039     0.00000099  0.25D-08  0.21D-08  6  4    13.24     1.47
  10      1.14330910    -0.47318040  -130.32002537    -0.00000037    -0.00000076  0.48D-09  0.26D-09  6  3    14.57     1.47
  11      1.14330887    -0.47318047  -130.32002543    -0.00000006    -0.00000014  0.15D-09  0.36D-10  6  5    15.90     1.47
  12      1.14330791    -0.47318061  -130.32002558    -0.00000015     0.00000036  0.19D-10  0.11D-10  6  6    17.15     1.47
  13      1.14330705    -0.47318065  -130.32002562    -0.00000004     0.00000022  0.58D-11  0.24D-11  6  1    18.45     1.47
  14      1.14330637    -0.47318069  -130.32002565    -0.00000003     0.00000016  0.36D-12  0.51D-12  6  4    19.74     1.47
  15      1.14330615    -0.47318069  -130.32002566    -0.00000001     0.00000003  0.79D-13  0.40D-13  6  2    21.04     1.47
  16      1.14330610    -0.47318069  -130.32002566    -0.00000000     0.00000001  0.21D-13  0.73D-14  6  3    22.33     1.47
  17      1.14330607    -0.47318070  -130.32002566    -0.00000000     0.00000001  0.39D-14  0.98D-15  6  5    23.66     1.47
  18      1.14330607    -0.47318070  -130.32002566    -0.00000000     0.00000000  0.84D-15  0.24D-15  6  6    24.99     1.47
  19      1.14330607    -0.47318070  -130.32002566    -0.00000000     0.00000000  0.11D-15  0.49D-16  6  1    26.28     1.47
  20      1.14330607    -0.47318070  -130.32002566     0.00000000    -0.00000000  0.97D-17  0.73D-17  6  4    27.62     1.47
  21      1.14330607    -0.47318070  -130.32002566     0.00000000    -0.00000000  0.48D-18  0.59D-18  6  3    28.90     1.47
  22      1.14330607    -0.47318070  -130.32002566     0.00000000    -0.00000000  0.12D-18  0.11D-18  6  2    30.19     1.48
  23      1.14330607    -0.47318070  -130.32002566     0.00000000     0.00000000  0.35D-19  0.41D-19  6  5    31.53     1.48
  24      1.14330607    -0.47318070  -130.32002566    -0.00000000     0.00000000  0.28D-20  0.89D-20  6  1    32.81     1.48

 Norm of t1 vector:      0.07762265      S-energy:     0.00000000      T1 diagnostic:  0.01584466
                                                                       D1 diagnostic:  0.04306274

 Doubles amplitudes (print threshold =  0.500E-01):

         I         J         SYM. A    SYM. B    A         B      T(IJ, AB)

         6         6         2         2         1         1     -0.10251051


 Total CPU time for triples:     16.62 sec


 RESULTS
 =======

  Reference energy                   -129.846844965317
  CCSD singlet pair energy             -0.327215747143
  CCSD triplet pair energy             -0.145964948138
  CCSD correlation energy              -0.473180695280

  Triples (T) contribution             -0.022553547355
  Total correlation energy             -0.495734242635

  CCSD total energy                  -130.320025660597
  CCSD[T] energy                     -130.343676894650
  CCSD-T energy                      -130.342188731878
 !CCSD(T) total energy               -130.342579207952

 Timing summary (sec):

 STEP                 CPU(USER)    SYS     CPU(TOT)    WALL
 Transformation          1.56      0.24      1.80      1.80
 CCSD iterations        31.26      4.18     35.44     35.43
 Triples                16.62      0.44     17.06     17.06

 Program statistics:

 Available memory in ccsd:               994999756
 Min. memory needed in ccsd:               1265322
 Max. memory used in ccsd:                 1555950
 Max. memory used in cckext:               2415326 (24 integral passes)



 **********************************************************************************************************************************
 DATASETS  * FILE   NREC   LENGTH (MB)   RECORD NAMES
              1      20     1044.69       500      610      700      900      950      970     1000      129      960     1100   
                                          VAR    BASINP    GEOM    SYMINP    ZMAT    AOBASIS   BASIS     P2S    ABASIS      S 
                                         1400     1410     1200     1210     1080     1600     1650     1300     1700     1380   
                                           T        V       H0       H01     AOSYM     SMH    MOLCAS    ERIS     OPER     JKOP   

              2       4        3.27       700     1000      520     2100   
                                         GEOM     BASIS   MCVARS     RHF  

 PROGRAMS   *        TOTAL   CCSD(T)        HF       INT
 CPU TIMES  *        69.56     49.45      9.05     10.97
 REAL TIME  *        81.32 SEC
 DISK USED  *         3.13 GB      
 **********************************************************************************************************************************

 CCSD(T)/aug-cc-pVQZ energy=   -130.342579207952

        CCSD(T)         HF-SCF  
   -130.34257921   -129.84684497
 **********************************************************************************************************************************
 Molpro calculation terminated
 Variable memory released
