
 Primary working directories    : /tmp/r2666/234824.maple
 Secondary working directories  : /tmp/r2666/234824.maple
 Wavefunction directory         : /ddn/home4/r2666/wfu/
 Main file repository           : /tmp/r2666/234824.maple/

 SHA1      : d5ffa45e93fdbca01ffc919aa182cfdae0147319
 NAME      : 2015.1.35
 ARCHNAME  : linux/x86_64
 FC        : /opt/intel/composer_xe_2015.1.133/bin/intel64/ifort
 BLASLIB   : -Wl,-_start-group /opt/intel/mkl/lib/intel64/libmkl_intel_ilp64.a /opt/intel/mkl/lib/intel64/libmkl_intel_thread.a /opt/intel/mkl/lib/intel64/libmkl_core.a -Wl,-_end-group
 id        : olemiss

 Nodes     nprocs
 cn043        1

 Using customized tuning parameters: mindgm=1; mindgv=20; mindgc=4; mindgr=1; noblas=0; minvec=7
 default implementation of scratch files=df  

 ***,hno CCSD(T)/TZ-F12 QFF
 memory, 995, m;
 gthresh,energy=1.d-12,zero=1.d-22,oneint=1.d-22,twoint=1.d-22;
 gthresh,optgrad=1.d-8,optstep=1.d-8;
 nocompress;
 geomtyp=xyz
 bohr
 geometry={
 3
         67        67
 N        0.0000000000       -0.1669333666       -1.1590939895
 H        0.0000000000        1.6678885193       -1.9244675364
 O        0.0000000000        0.0408126372        1.1329719349
 }
 
 basis=avqz
   {hf,maxit=500;accu,20;}
 {ccsd(t),nocheck,maxit=250;orbital,IGNORE_ERROR;}

 Variables initialized (889), CPU time= 0.01 sec
 Commands  initialized (702), CPU time= 0.00 sec, 572 directives.
 Default parameters read. Elapsed time= 0.05 sec

 Checking input...
 Passed
1


                                         ***  PROGRAM SYSTEM MOLPRO  ***
                                       Copyright, TTI GmbH Stuttgart, 2015
                                    Version 2015.1 linked Jul  9 2018 13:16:40


 **********************************************************************************************************************************
 LABEL *   hno CCSD(T)/TZ-F12 QFF                                                        
  64 bit serial version                                                                  DATE: 08-Feb-20          TIME: 17:53:28  
 **********************************************************************************************************************************

 SHA1:             d5ffa45e93fdbca01ffc919aa182cfdae0147319
 **********************************************************************************************************************************

 THRESHOLDS:

 ZERO    =  1.00D-22  ONEINT  =  1.00D-22  TWOINT  =  1.00D-22  PREFAC  =  1.00D-14  LOCALI  =  1.00D-09  EORDER  =  1.00D-04
 ENERGY  =  1.00D-12  ETEST   =  0.00D+00  EDENS   =  0.00D+00  THRDEDEF=  1.00D-06  GRADIENT=  1.00D-02  STEP    =  1.00D-03
 ORBITAL =  1.00D-05  CIVEC   =  1.00D-05  COEFF   =  1.00D-04  PRINTCI =  5.00D-02  PUNCHCI =  9.90D+01  OPTGRAD =  3.00D-04
 OPTENERG=  1.00D-06  OPTSTEP =  3.00D-04  THRGRAD =  1.00D-10  COMPRESS=  1.00D-11  VARMIN  =  1.00D-07  VARMAX  =  1.00D-03
 THRDOUB =  0.00D+00  THRDIV  =  1.00D-05  THRRED  =  1.00D-07  THRPSP  =  1.00D+00  THRDC   =  1.00D-10  THRCS   =  1.00D-10
 THRNRM  =  1.00D-08  THREQ   =  0.00D+00  THRDE   =  1.00D+00  THRREF  =  1.00D-05  SPARFAC =  1.00D+00  THRDLP  =  1.00D-07
 THRDIA  =  1.00D-10  THRDLS  =  1.00D-07  THRGPS  =  0.00D+00  THRKEX  =  0.00D+00  THRDIS  =  2.00D-01  THRVAR  =  1.00D-10
 THRLOC  =  1.00D-06  THRGAP  =  1.00D-06  THRLOCT = -1.00D+00  THRGAPT = -1.00D+00  THRORB  =  1.00D-06  THRMLTP =  0.00D+00
 THRCPQCI=  1.00D-10  KEXTA   =  0.00D+00  THRCOARS=  0.00D+00  SYMTOL  =  1.00D-06  GRADTOL =  1.00D-06  THROVL  =  1.00D-08
 THRORTH =  1.00D-08  GRID    =  1.00D-06  GRIDMAX =  1.00D-03  DTMAX   =  0.00D+00  THROCCDE=  1.00D-01  THROCCDE=  1.00D-01



 THRESHOLDS:

 ZERO    =  1.00D-22  ONEINT  =  1.00D-22  TWOINT  =  1.00D-22  PREFAC  =  1.00D-14  LOCALI  =  1.00D-09  EORDER  =  1.00D-04
 ENERGY  =  1.00D-12  ETEST   =  0.00D+00  EDENS   =  0.00D+00  THRDEDEF=  1.00D-06  GRADIENT=  1.00D-02  STEP    =  1.00D-03
 ORBITAL =  1.00D-05  CIVEC   =  1.00D-05  COEFF   =  1.00D-04  PRINTCI =  5.00D-02  PUNCHCI =  9.90D+01  OPTGRAD =  1.00D-08
 OPTENERG=  1.00D-06  OPTSTEP =  1.00D-08  THRGRAD =  1.00D-10  COMPRESS=  1.00D-11  VARMIN  =  1.00D-07  VARMAX  =  1.00D-03
 THRDOUB =  0.00D+00  THRDIV  =  1.00D-05  THRRED  =  1.00D-07  THRPSP  =  1.00D+00  THRDC   =  1.00D-10  THRCS   =  1.00D-10
 THRNRM  =  1.00D-08  THREQ   =  0.00D+00  THRDE   =  1.00D+00  THRREF  =  1.00D-05  SPARFAC =  1.00D+00  THRDLP  =  1.00D-07
 THRDIA  =  1.00D-10  THRDLS  =  1.00D-07  THRGPS  =  0.00D+00  THRKEX  =  0.00D+00  THRDIS  =  2.00D-01  THRVAR  =  1.00D-10
 THRLOC  =  1.00D-06  THRGAP  =  1.00D-06  THRLOCT = -1.00D+00  THRGAPT = -1.00D+00  THRORB  =  1.00D-06  THRMLTP =  0.00D+00
 THRCPQCI=  1.00D-10  KEXTA   =  0.00D+00  THRCOARS=  0.00D+00  SYMTOL  =  1.00D-06  GRADTOL =  1.00D-06  THROVL  =  1.00D-08
 THRORTH =  1.00D-08  GRID    =  1.00D-06  GRIDMAX =  1.00D-03  DTMAX   =  0.00D+00  THROCCDE=  1.00D-01  THROCCDE=  1.00D-01



 Input parameters for SORTINT:

 COMPRESS =    0.000000
 C_FINAL  =    1.000000
 DEBUG    =   -1.000000
 C_SORT1  =    0.000000
 C_SEWARD =    0.000000
 THRESH   =    0.000000
 IO       =  molpro                                                          
 SPRI     =    0.000000
 SETTING GEOMTYP        =    XYZ
 ZUNIT=BOHR
 

 Variable memory set to  995000000 words,  buffer space   230000 words

 SETTING BASIS          =    AVQZ


 Recomputing integrals since basis changed


 Using spherical harmonics

 Library entry N      S aug-cc-pVQZ          selected for orbital group  1
 Library entry N      P aug-cc-pVQZ          selected for orbital group  1
 Library entry N      D aug-cc-pVQZ          selected for orbital group  1
 Library entry N      F aug-cc-pVQZ          selected for orbital group  1
 Library entry N      G aug-cc-pVQZ          selected for orbital group  1
 Library entry H      S aug-cc-pVQZ          selected for orbital group  2
 Library entry H      P aug-cc-pVQZ          selected for orbital group  2
 Library entry H      D aug-cc-pVQZ          selected for orbital group  2
 Library entry H      F aug-cc-pVQZ          selected for orbital group  2
 Library entry O      S aug-cc-pVQZ          selected for orbital group  3
 Library entry O      P aug-cc-pVQZ          selected for orbital group  3
 Library entry O      D aug-cc-pVQZ          selected for orbital group  3
 Library entry O      F aug-cc-pVQZ          selected for orbital group  3
 Library entry O      G aug-cc-pVQZ          selected for orbital group  3


 PROGRAM * SEWARD (Integral evaluation for generally contracted gaussian basis sets)     Author: Roland Lindh, 1990

 Geometry written to block  1 of record 700


 Point group  Cs  



 ATOMIC COORDINATES

 NR  ATOM    CHARGE       X              Y              Z

   1  N       7.00    0.000000000   -0.166933367   -1.159093990
   2  H       1.00    0.000000000    1.667888519   -1.924467536
   3  O       8.00    0.000000000    0.040812637    1.132971935

 Bond lengths in Bohr (Angstrom)

 1-2  1.988056342  1-3  2.301461406
     ( 1.052034110)     ( 1.217880928)

 Bond angles

  2-1-3  107.46389412

 NUCLEAR CHARGE:                   16
 NUMBER OF PRIMITIVE AOS:         293
 NUMBER OF SYMMETRY AOS:          234
 NUMBER OF CONTRACTIONS:          206   ( 130A'  +  76A"  )
 NUMBER OF CORE ORBITALS:           2   (   2A'  +   0A"  )
 NUMBER OF VALENCE ORBITALS:        9   (   7A'  +   2A"  )


 NUCLEAR REPULSION ENERGY   30.16324473

 Eigenvalues of metric

         1 0.603E-04 0.148E-03 0.321E-03 0.438E-03 0.607E-03 0.689E-03 0.102E-02 0.110E-02
         2 0.849E-03 0.163E-02 0.507E-02 0.898E-02 0.102E-01 0.125E-01 0.128E-01 0.191E-01


 Contracted 2-electron integrals neglected if value below      1.0D-22

      109945097. INTEGRALS WRITTEN OUT IN   26849 BLOCKS ON RECORD 1290 OF FILE 1


 NUMBER OF SORTED TWO-ELECTRON INTEGRALS:  115283741.     BUFFER LENGTH:  32768
 NUMBER OF SEGMENTS:   8  SEGMENT LENGTH:   15998004      RECORD LENGTH: 524288

 Memory used in sort:      16.56 MW

 SORT1 READ   109945097. AND WROTE   110865264. INTEGRALS IN    322 RECORDS. CPU TIME:     3.07 SEC, REAL TIME:     4.04 SEC
 SORT2 READ   110865264. AND WROTE   115283741. INTEGRALS IN      8 RECORDS. CPU TIME:     1.48 SEC, REAL TIME:     2.13 SEC

 FILE SIZES:   FILE 1:  1780.6 MBYTE,  FILE 4:  1350.6 MBYTE,   TOTAL:   3131.2 MBYTE

 OPERATOR DM      FOR CENTER  0  COORDINATES:    0.000000    0.000000    0.000000


 **********************************************************************************************************************************
 DATASETS  * FILE   NREC   LENGTH (MB)   RECORD NAMES
              1      19      944.14       500      610      700      900      950      970     1000      129      960     1100   
                                          VAR    BASINP    GEOM    SYMINP    ZMAT    AOBASIS   BASIS     P2S    ABASIS      S 
                                         1400     1410     1200     1210     1080     1600     1650     1300     1700   
                                           T        V       H0       H01     AOSYM     SMH    MOLCAS    ERIS     OPER   

 PROGRAMS   *        TOTAL       INT
 CPU TIMES  *        15.65     15.55
 REAL TIME  *        18.97 SEC
 DISK USED  *         3.13 GB      
 **********************************************************************************************************************************


 PROGRAM * RHF-SCF (CLOSED SHELL)       Authors: W. Meyer, H.-J. Werner


 NUMBER OF ELECTRONS:       8+    8-
 CONVERGENCE THRESHOLDS:    1.00E-10 (Density)    1.00E-13 (Energy)
 MAX. NUMBER OF ITERATIONS:      500
 INTERPOLATION TYPE:            DIIS
 INTERPOLATION STEPS:              2 (START)      1 (STEP)
 LEVEL SHIFTS:                  0.00 (CLOSED)  0.00 (OPEN) 



 Orbital guess generated from atomic densities. Full valence occupancy:    9   2

 Molecular orbital dump at record        2100.2

 Initial occupancy:   7   1

 ITERATION    DDIFF          GRAD             ENERGY        2-EL.EN.            DIPOLE MOMENTS         DIIS   ORB.
    1      0.000D+00      0.000D+00      -129.79359862    153.596127    0.00000    0.59229   -1.05705    0    start
    2      0.000D+00      0.821D-02      -129.82053445    154.804539    0.00000    0.61708   -0.19949    1    diag
    3      0.668D-02      0.641D-02      -129.84522267    154.951147    0.00000    0.55820   -0.60570    2    diag
    4      0.343D-02      0.982D-03      -129.84604737    154.658372    0.00000    0.56572   -0.54286    3    diag
    5      0.613D-03      0.321D-03      -129.84617820    154.752709    0.00000    0.57098   -0.54520    4    diag
    6      0.257D-03      0.930D-04      -129.84619918    154.736376    0.00000    0.57120   -0.54083    5    diag
    7      0.984D-04      0.468D-04      -129.84620544    154.739047    0.00000    0.57241   -0.53806    6    diag
    8      0.684D-04      0.168D-04      -129.84620621    154.738307    0.00000    0.57244   -0.53695    7    diag
    9      0.277D-04      0.326D-05      -129.84620625    154.738183    0.00000    0.57240   -0.53671    8    diag
   10      0.563D-05      0.723D-06      -129.84620625    154.738165    0.00000    0.57237   -0.53668    9    orth
   11      0.104D-05      0.143D-06      -129.84620625    154.738162    0.00000    0.57236   -0.53668    9    diag
   12      0.186D-06      0.298D-07      -129.84620625    154.738161    0.00000    0.57236   -0.53668    9    diag
   13      0.404D-07      0.788D-08      -129.84620625    154.738161    0.00000    0.57236   -0.53668    9    diag
   14      0.114D-07      0.154D-08      -129.84620625    154.738161    0.00000    0.57236   -0.53668    9    diag
   15      0.203D-08      0.434D-09      -129.84620625    154.738161    0.00000    0.57236   -0.53668    9    diag
   16      0.614D-09      0.127D-09      -129.84620625    154.738161    0.00000    0.57236   -0.53668    9    diag
   17      0.110D-09      0.321D-10      -129.84620625    154.738161    0.00000    0.57236   -0.53668    9    diag
   18      0.287D-10      0.105D-10      -129.84620625    154.738161    0.00000    0.57236   -0.53668    9    diag
   19      0.147D-10      0.237D-11      -129.84620625    154.738161    0.00000    0.57236   -0.53668    9    fixocc
   20      0.477D-11      0.361D-12      -129.84620625    154.738161    0.00000    0.57236   -0.53668    9    orth
   21      0.371D-11      0.184D-12      -129.84620625    154.738161    0.00000    0.57236   -0.53668    0    orth

 Final occupancy:   7   1

 !RHF STATE 1.1 Energy               -129.846206246654
 Nuclear energy                        30.16324473
 One-electron energy                 -237.37853163
 Two-electron energy                   77.36908066
 Virial quotient                       -1.00201535
 !RHF STATE 1.1 Dipole moment           0.00000000     0.57235946    -0.53667842
 Dipole moment /Debye                   0.00000000     1.45469735    -1.36401113

 Orbital energies:

         1.1          2.1          3.1          4.1          5.1          6.1          7.1          8.1          9.1
    -20.654445   -15.714483    -1.521932    -0.996396    -0.744240    -0.663151    -0.434029     0.026290     0.079465

         1.2          2.2          3.2
     -0.591510     0.060859     0.110058

 HOMO      7.1    -0.434029 =     -11.8105eV
 LUMO      8.1     0.026290 =       0.7154eV
 LUMO-HOMO         0.460319 =      12.5259eV


 **********************************************************************************************************************************
 DATASETS  * FILE   NREC   LENGTH (MB)   RECORD NAMES
              1      19      944.14       500      610      700      900      950      970     1000      129      960     1100   
                                          VAR    BASINP    GEOM    SYMINP    ZMAT    AOBASIS   BASIS     P2S    ABASIS      S 
                                         1400     1410     1200     1210     1080     1600     1650     1300     1700   
                                           T        V       H0       H01     AOSYM     SMH    MOLCAS    ERIS     OPER   

              2       4        3.27       700     1000      520     2100   
                                         GEOM     BASIS   MCVARS     RHF  

 PROGRAMS   *        TOTAL        HF       INT
 CPU TIMES  *        27.59     11.94     15.55
 REAL TIME  *        35.59 SEC
 DISK USED  *         3.13 GB      
 **********************************************************************************************************************************


 PROGRAM * CCSD (Closed-shell coupled cluster)     Authors: C. Hampel, H.-J. Werner, 1991, M. Deegan, P.J. Knowles, 1992


 Convergence thresholds:  THRVAR = 1.00D-08  THRDEN = 1.00D-12

 CCSD(T)     terms to be evaluated (factor= 1.000)


 Number of core orbitals:           2 (   2   0 )
 Number of closed-shell orbitals:   6 (   5   1 )
 Number of external orbitals:     198 ( 123  75 )

 Molecular orbitals read from record     2100.2  Type=RHF/CANONICAL (state 1.1)

 Number of N-1 electron functions:               6
 Number of N-2 electron functions:              21
 Number of singly external CSFs:               690
 Number of doubly external CSFs:            362646
 Total number of CSFs:                      363337

 Length of J-op  integral file:               0.00 MB
 Length of K-op  integral file:               1.60 MB
 Length of 3-ext integral record:             0.00 MB

 Memory could be reduced to 34.67 Mwords without degradation in triples

 Integral transformation finished. Total CPU:   1.91 sec, npass=  1  Memory used:   9.53 MW

 Reference energy:                   -129.84620625

 MP2 singlet pair energy:              -0.30263952
 MP2 triplet pair energy:              -0.17112179
 MP2 correlation energy:               -0.47376131
 MP2 total energy:                   -130.31996755

 SCS-MP2 correlation energy:           -0.46964320   (PS=  1.200000  PT=  0.333333)
 SCS-MP2 total energy:               -130.31584945

 ITER.      SQ.NORM     CORR.ENERGY   TOTAL ENERGY   ENERGY CHANGE        DEN1      VAR(S)    VAR(P)  DIIS     TIME  TIME/IT
   1      1.12208388    -0.47339203  -130.31959827     0.00036928     0.01720935  0.33D-02  0.33D-02  1  1     3.51     1.77
   2      1.13302800    -0.47326638  -130.31947263     0.00012565    -0.01275370  0.11D-03  0.51D-03  2  2     5.15     1.81
   3      1.13952702    -0.47365832  -130.31986457    -0.00039194    -0.00310874  0.51D-04  0.56D-04  3  3     6.80     1.82
   4      1.14239334    -0.47366599  -130.31987224    -0.00000767    -0.00096614  0.46D-05  0.10D-04  4  4     8.49     1.83
   5      1.14354770    -0.47369735  -130.31990359    -0.00003136    -0.00025133  0.12D-05  0.17D-05  5  5    10.21     1.84
   6      1.14391582    -0.47368136  -130.31988761     0.00001598    -0.00005335  0.11D-06  0.39D-06  6  6    11.85     1.84
   7      1.14398796    -0.47368195  -130.31988819    -0.00000058     0.00000306  0.16D-07  0.90D-07  6  1    13.48     1.85
   8      1.14401072    -0.47368216  -130.31988840    -0.00000021    -0.00000119  0.32D-08  0.18D-07  6  2    15.15     1.85
   9      1.14401560    -0.47368175  -130.31988799     0.00000041     0.00000103  0.26D-08  0.22D-08  6  4    16.77     1.85
  10      1.14401816    -0.47368212  -130.31988837    -0.00000038    -0.00000078  0.49D-09  0.27D-09  6  3    18.39     1.85
  11      1.14401794    -0.47368218  -130.31988843    -0.00000006    -0.00000014  0.16D-09  0.37D-10  6  5    20.07     1.85
  12      1.14401696    -0.47368233  -130.31988858    -0.00000015     0.00000037  0.19D-10  0.11D-10  6  6    21.69     1.84
  13      1.14401609    -0.47368237  -130.31988862    -0.00000004     0.00000022  0.60D-11  0.25D-11  6  1    23.28     1.84
  14      1.14401539    -0.47368241  -130.31988866    -0.00000004     0.00000016  0.36D-12  0.53D-12  6  4    24.91     1.84
  15      1.14401516    -0.47368242  -130.31988866    -0.00000001     0.00000004  0.83D-13  0.41D-13  6  2    26.48     1.83
  16      1.14401511    -0.47368242  -130.31988866    -0.00000000     0.00000001  0.22D-13  0.76D-14  6  3    28.10     1.83
  17      1.14401508    -0.47368242  -130.31988867    -0.00000000     0.00000001  0.41D-14  0.10D-14  6  5    29.65     1.83
  18      1.14401508    -0.47368242  -130.31988867    -0.00000000     0.00000000  0.88D-15  0.26D-15  6  6    31.23     1.83
  19      1.14401508    -0.47368242  -130.31988867    -0.00000000     0.00000000  0.11D-15  0.52D-16  6  1    32.83     1.82
  20      1.14401508    -0.47368242  -130.31988867     0.00000000    -0.00000000  0.10D-16  0.76D-17  6  4    34.41     1.82
  21      1.14401508    -0.47368242  -130.31988867     0.00000000    -0.00000000  0.51D-18  0.60D-18  6  3    36.06     1.82
  22      1.14401508    -0.47368242  -130.31988867     0.00000000    -0.00000000  0.13D-18  0.11D-18  6  2    37.62     1.82
  23      1.14401508    -0.47368242  -130.31988867     0.00000000     0.00000000  0.38D-19  0.40D-19  6  5    39.23     1.82
  24      1.14401508    -0.47368242  -130.31988867    -0.00000000     0.00000000  0.32D-20  0.89D-20  6  1    40.84     1.82

 Norm of t1 vector:      0.07825633      S-energy:    -0.00000000      T1 diagnostic:  0.01597401
                                                                       D1 diagnostic:  0.04342768

 Doubles amplitudes (print threshold =  0.500E-01):

         I         J         SYM. A    SYM. B    A         B      T(IJ, AB)

         6         6         2         2         1         1     -0.10390184


 Total CPU time for triples:     19.34 sec


 RESULTS
 =======

  Reference energy                   -129.846206246655
  CCSD singlet pair energy             -0.327647829573
  CCSD triplet pair energy             -0.146034589772
  CCSD correlation energy              -0.473682419346

  Triples (T) contribution             -0.022672704004
  Total correlation energy             -0.496355123350

  CCSD total energy                  -130.319888666001
  CCSD[T] energy                     -130.343675901541
  CCSD-T energy                      -130.342166326116
 !CCSD(T) total energy               -130.342561370005

 Timing summary (sec):

 STEP                 CPU(USER)    SYS     CPU(TOT)    WALL
 Transformation          1.93      0.30      2.23      2.23
 CCSD iterations        38.92      4.72     43.64     43.65
 Triples                19.34      0.49     19.83     19.84

 Program statistics:

 Available memory in ccsd:               994999756
 Min. memory needed in ccsd:               1265322
 Max. memory used in ccsd:                 1555950
 Max. memory used in cckext:               2415326 (24 integral passes)



 **********************************************************************************************************************************
 DATASETS  * FILE   NREC   LENGTH (MB)   RECORD NAMES
              1      20     1044.69       500      610      700      900      950      970     1000      129      960     1100   
                                          VAR    BASINP    GEOM    SYMINP    ZMAT    AOBASIS   BASIS     P2S    ABASIS      S 
                                         1400     1410     1200     1210     1080     1600     1650     1300     1700     1380   
                                           T        V       H0       H01     AOSYM     SMH    MOLCAS    ERIS     OPER     JKOP   

              2       4        3.27       700     1000      520     2100   
                                         GEOM     BASIS   MCVARS     RHF  

 PROGRAMS   *        TOTAL   CCSD(T)        HF       INT
 CPU TIMES  *        87.80     60.21     11.94     15.55
 REAL TIME  *       102.12 SEC
 DISK USED  *         3.13 GB      
 **********************************************************************************************************************************

 CCSD(T)/aug-cc-pVQZ energy=   -130.342561370005

        CCSD(T)         HF-SCF  
   -130.34256137   -129.84620625
 **********************************************************************************************************************************
 Molpro calculation terminated
 Variable memory released
