
 Primary working directories    : /tmp/r2666/234822.maple
 Secondary working directories  : /tmp/r2666/234822.maple
 Wavefunction directory         : /ddn/home4/r2666/wfu/
 Main file repository           : /tmp/r2666/234822.maple/

 SHA1      : d5ffa45e93fdbca01ffc919aa182cfdae0147319
 NAME      : 2015.1.35
 ARCHNAME  : linux/x86_64
 FC        : /opt/intel/composer_xe_2015.1.133/bin/intel64/ifort
 BLASLIB   : -Wl,-_start-group /opt/intel/mkl/lib/intel64/libmkl_intel_ilp64.a /opt/intel/mkl/lib/intel64/libmkl_intel_thread.a /opt/intel/mkl/lib/intel64/libmkl_core.a -Wl,-_end-group
 id        : olemiss

 Nodes     nprocs
 cn047        1

 Using customized tuning parameters: mindgm=1; mindgv=20; mindgc=4; mindgr=1; noblas=0; minvec=7
 default implementation of scratch files=df  

 ***,hno CCSD(T)/TZ-F12 QFF
 memory, 995, m;
 gthresh,energy=1.d-12,zero=1.d-22,oneint=1.d-22,twoint=1.d-22;
 gthresh,optgrad=1.d-8,optstep=1.d-8;
 nocompress;
 geomtyp=xyz
 bohr
 geometry={
 3
         65        65
 N        0.0000000000       -0.1582562777       -1.1420171081
 H        0.0000000000        1.6663060905       -1.9315360654
 O        0.0000000000        0.0337179771        1.1229635825
 }
 
 basis=avqz
   {hf,maxit=500;accu,20;}
 {ccsd(t),nocheck,maxit=250;orbital,IGNORE_ERROR;}

 Variables initialized (889), CPU time= 0.00 sec
 Commands  initialized (702), CPU time= 0.01 sec, 572 directives.
 Default parameters read. Elapsed time= 0.07 sec

 Checking input...
 Passed
1


                                         ***  PROGRAM SYSTEM MOLPRO  ***
                                       Copyright, TTI GmbH Stuttgart, 2015
                                    Version 2015.1 linked Jul  9 2018 13:16:40


 **********************************************************************************************************************************
 LABEL *   hno CCSD(T)/TZ-F12 QFF                                                        
  64 bit serial version                                                                  DATE: 08-Feb-20          TIME: 17:53:28  
 **********************************************************************************************************************************

 SHA1:             d5ffa45e93fdbca01ffc919aa182cfdae0147319
 **********************************************************************************************************************************

 THRESHOLDS:

 ZERO    =  1.00D-22  ONEINT  =  1.00D-22  TWOINT  =  1.00D-22  PREFAC  =  1.00D-14  LOCALI  =  1.00D-09  EORDER  =  1.00D-04
 ENERGY  =  1.00D-12  ETEST   =  0.00D+00  EDENS   =  0.00D+00  THRDEDEF=  1.00D-06  GRADIENT=  1.00D-02  STEP    =  1.00D-03
 ORBITAL =  1.00D-05  CIVEC   =  1.00D-05  COEFF   =  1.00D-04  PRINTCI =  5.00D-02  PUNCHCI =  9.90D+01  OPTGRAD =  3.00D-04
 OPTENERG=  1.00D-06  OPTSTEP =  3.00D-04  THRGRAD =  1.00D-10  COMPRESS=  1.00D-11  VARMIN  =  1.00D-07  VARMAX  =  1.00D-03
 THRDOUB =  0.00D+00  THRDIV  =  1.00D-05  THRRED  =  1.00D-07  THRPSP  =  1.00D+00  THRDC   =  1.00D-10  THRCS   =  1.00D-10
 THRNRM  =  1.00D-08  THREQ   =  0.00D+00  THRDE   =  1.00D+00  THRREF  =  1.00D-05  SPARFAC =  1.00D+00  THRDLP  =  1.00D-07
 THRDIA  =  1.00D-10  THRDLS  =  1.00D-07  THRGPS  =  0.00D+00  THRKEX  =  0.00D+00  THRDIS  =  2.00D-01  THRVAR  =  1.00D-10
 THRLOC  =  1.00D-06  THRGAP  =  1.00D-06  THRLOCT = -1.00D+00  THRGAPT = -1.00D+00  THRORB  =  1.00D-06  THRMLTP =  0.00D+00
 THRCPQCI=  1.00D-10  KEXTA   =  0.00D+00  THRCOARS=  0.00D+00  SYMTOL  =  1.00D-06  GRADTOL =  1.00D-06  THROVL  =  1.00D-08
 THRORTH =  1.00D-08  GRID    =  1.00D-06  GRIDMAX =  1.00D-03  DTMAX   =  0.00D+00  THROCCDE=  1.00D-01  THROCCDE=  1.00D-01



 THRESHOLDS:

 ZERO    =  1.00D-22  ONEINT  =  1.00D-22  TWOINT  =  1.00D-22  PREFAC  =  1.00D-14  LOCALI  =  1.00D-09  EORDER  =  1.00D-04
 ENERGY  =  1.00D-12  ETEST   =  0.00D+00  EDENS   =  0.00D+00  THRDEDEF=  1.00D-06  GRADIENT=  1.00D-02  STEP    =  1.00D-03
 ORBITAL =  1.00D-05  CIVEC   =  1.00D-05  COEFF   =  1.00D-04  PRINTCI =  5.00D-02  PUNCHCI =  9.90D+01  OPTGRAD =  1.00D-08
 OPTENERG=  1.00D-06  OPTSTEP =  1.00D-08  THRGRAD =  1.00D-10  COMPRESS=  1.00D-11  VARMIN  =  1.00D-07  VARMAX  =  1.00D-03
 THRDOUB =  0.00D+00  THRDIV  =  1.00D-05  THRRED  =  1.00D-07  THRPSP  =  1.00D+00  THRDC   =  1.00D-10  THRCS   =  1.00D-10
 THRNRM  =  1.00D-08  THREQ   =  0.00D+00  THRDE   =  1.00D+00  THRREF  =  1.00D-05  SPARFAC =  1.00D+00  THRDLP  =  1.00D-07
 THRDIA  =  1.00D-10  THRDLS  =  1.00D-07  THRGPS  =  0.00D+00  THRKEX  =  0.00D+00  THRDIS  =  2.00D-01  THRVAR  =  1.00D-10
 THRLOC  =  1.00D-06  THRGAP  =  1.00D-06  THRLOCT = -1.00D+00  THRGAPT = -1.00D+00  THRORB  =  1.00D-06  THRMLTP =  0.00D+00
 THRCPQCI=  1.00D-10  KEXTA   =  0.00D+00  THRCOARS=  0.00D+00  SYMTOL  =  1.00D-06  GRADTOL =  1.00D-06  THROVL  =  1.00D-08
 THRORTH =  1.00D-08  GRID    =  1.00D-06  GRIDMAX =  1.00D-03  DTMAX   =  0.00D+00  THROCCDE=  1.00D-01  THROCCDE=  1.00D-01



 Input parameters for SORTINT:

 COMPRESS =    0.000000
 C_FINAL  =    1.000000
 DEBUG    =   -1.000000
 C_SORT1  =    0.000000
 C_SEWARD =    0.000000
 THRESH   =    0.000000
 IO       =  molpro                                                          
 SPRI     =    0.000000
 SETTING GEOMTYP        =    XYZ
 ZUNIT=BOHR
 

 Variable memory set to  995000000 words,  buffer space   230000 words

 SETTING BASIS          =    AVQZ


 Recomputing integrals since basis changed


 Using spherical harmonics

 Library entry N      S aug-cc-pVQZ          selected for orbital group  1
 Library entry N      P aug-cc-pVQZ          selected for orbital group  1
 Library entry N      D aug-cc-pVQZ          selected for orbital group  1
 Library entry N      F aug-cc-pVQZ          selected for orbital group  1
 Library entry N      G aug-cc-pVQZ          selected for orbital group  1
 Library entry H      S aug-cc-pVQZ          selected for orbital group  2
 Library entry H      P aug-cc-pVQZ          selected for orbital group  2
 Library entry H      D aug-cc-pVQZ          selected for orbital group  2
 Library entry H      F aug-cc-pVQZ          selected for orbital group  2
 Library entry O      S aug-cc-pVQZ          selected for orbital group  3
 Library entry O      P aug-cc-pVQZ          selected for orbital group  3
 Library entry O      D aug-cc-pVQZ          selected for orbital group  3
 Library entry O      F aug-cc-pVQZ          selected for orbital group  3
 Library entry O      G aug-cc-pVQZ          selected for orbital group  3


 PROGRAM * SEWARD (Integral evaluation for generally contracted gaussian basis sets)     Author: Roland Lindh, 1990

 Geometry written to block  1 of record 700


 Point group  Cs  



 ATOMIC COORDINATES

 NR  ATOM    CHARGE       X              Y              Z

   1  N       7.00    0.000000000   -0.158256278   -1.142017108
   2  H       1.00    0.000000000    1.666306091   -1.931536065
   3  O       8.00    0.000000000    0.033717977    1.122963582

 Bond lengths in Bohr (Angstrom)

 1-2  1.988056342  1-3  2.273101767
     ( 1.052034110)     ( 1.202873653)

 Bond angles

  2-1-3  108.55427841

 NUCLEAR CHARGE:                   16
 NUMBER OF PRIMITIVE AOS:         293
 NUMBER OF SYMMETRY AOS:          234
 NUMBER OF CONTRACTIONS:          206   ( 130A'  +  76A"  )
 NUMBER OF CORE ORBITALS:           2   (   2A'  +   0A"  )
 NUMBER OF VALENCE ORBITALS:        9   (   7A'  +   2A"  )


 NUCLEAR REPULSION ENERGY   30.46681983

 Eigenvalues of metric

         1 0.589E-04 0.144E-03 0.316E-03 0.434E-03 0.578E-03 0.677E-03 0.100E-02 0.107E-02
         2 0.810E-03 0.162E-02 0.487E-02 0.891E-02 0.101E-01 0.121E-01 0.124E-01 0.186E-01


 Contracted 2-electron integrals neglected if value below      1.0D-22

      109945078. INTEGRALS WRITTEN OUT IN   26849 BLOCKS ON RECORD 1290 OF FILE 1


 NUMBER OF SORTED TWO-ELECTRON INTEGRALS:  115283741.     BUFFER LENGTH:  32768
 NUMBER OF SEGMENTS:   8  SEGMENT LENGTH:   15998004      RECORD LENGTH: 524288

 Memory used in sort:      16.56 MW

 SORT1 READ   109945078. AND WROTE   110865245. INTEGRALS IN    322 RECORDS. CPU TIME:     3.59 SEC, REAL TIME:     4.50 SEC
 SORT2 READ   110865245. AND WROTE   115283741. INTEGRALS IN      8 RECORDS. CPU TIME:     1.51 SEC, REAL TIME:     2.07 SEC

 FILE SIZES:   FILE 1:  1780.6 MBYTE,  FILE 4:  1350.6 MBYTE,   TOTAL:   3131.2 MBYTE

 OPERATOR DM      FOR CENTER  0  COORDINATES:    0.000000    0.000000    0.000000


 **********************************************************************************************************************************
 DATASETS  * FILE   NREC   LENGTH (MB)   RECORD NAMES
              1      19      944.14       500      610      700      900      950      970     1000      129      960     1100   
                                          VAR    BASINP    GEOM    SYMINP    ZMAT    AOBASIS   BASIS     P2S    ABASIS      S 
                                         1400     1410     1200     1210     1080     1600     1650     1300     1700   
                                           T        V       H0       H01     AOSYM     SMH    MOLCAS    ERIS     OPER   

 PROGRAMS   *        TOTAL       INT
 CPU TIMES  *        18.56     18.45
 REAL TIME  *        21.90 SEC
 DISK USED  *         3.13 GB      
 **********************************************************************************************************************************


 PROGRAM * RHF-SCF (CLOSED SHELL)       Authors: W. Meyer, H.-J. Werner


 NUMBER OF ELECTRONS:       8+    8-
 CONVERGENCE THRESHOLDS:    1.00E-10 (Density)    1.00E-13 (Energy)
 MAX. NUMBER OF ITERATIONS:      500
 INTERPOLATION TYPE:            DIIS
 INTERPOLATION STEPS:              2 (START)      1 (STEP)
 LEVEL SHIFTS:                  0.00 (CLOSED)  0.00 (OPEN) 



 Orbital guess generated from atomic densities. Full valence occupancy:    9   2

 Molecular orbital dump at record        2100.2

 Initial occupancy:   7   1

 ITERATION    DDIFF          GRAD             ENERGY        2-EL.EN.            DIPOLE MOMENTS         DIIS   ORB.
    1      0.000D+00      0.000D+00      -129.79811712    154.134788    0.00000    0.59529   -1.01078    0    start
    2      0.000D+00      0.807D-02      -129.82554069    155.379085    0.00000    0.60692   -0.21160    1    diag
    3      0.646D-02      0.608D-02      -129.84757739    155.490104    0.00000    0.55557   -0.58754    2    diag
    4      0.328D-02      0.967D-03      -129.84837093    155.208589    0.00000    0.56291   -0.52697    3    diag
    5      0.602D-03      0.314D-03      -129.84849525    155.301842    0.00000    0.56826   -0.52968    4    diag
    6      0.250D-03      0.906D-04      -129.84851503    155.285749    0.00000    0.56858   -0.52559    5    diag
    7      0.954D-04      0.449D-04      -129.84852071    155.288556    0.00000    0.56983   -0.52306    6    diag
    8      0.656D-04      0.155D-04      -129.84852133    155.287881    0.00000    0.56988   -0.52207    7    diag
    9      0.247D-04      0.295D-05      -129.84852136    155.287769    0.00000    0.56984   -0.52186    8    diag
   10      0.487D-05      0.680D-06      -129.84852136    155.287751    0.00000    0.56981   -0.52183    9    orth
   11      0.983D-06      0.137D-06      -129.84852136    155.287747    0.00000    0.56980   -0.52183    9    diag
   12      0.183D-06      0.276D-07      -129.84852136    155.287747    0.00000    0.56980   -0.52183    9    diag
   13      0.394D-07      0.706D-08      -129.84852136    155.287747    0.00000    0.56980   -0.52183    9    diag
   14      0.106D-07      0.140D-08      -129.84852136    155.287747    0.00000    0.56980   -0.52183    9    diag
   15      0.196D-08      0.405D-09      -129.84852136    155.287747    0.00000    0.56980   -0.52183    9    diag
   16      0.583D-09      0.124D-09      -129.84852136    155.287747    0.00000    0.56980   -0.52183    9    diag
   17      0.113D-09      0.332D-10      -129.84852136    155.287747    0.00000    0.56980   -0.52183    9    diag
   18      0.316D-10      0.113D-10      -129.84852136    155.287747    0.00000    0.56980   -0.52183    9    diag
   19      0.164D-10      0.278D-11      -129.84852136    155.287747    0.00000    0.56980   -0.52183    9    fixocc
   20      0.598D-11      0.496D-12      -129.84852136    155.287747    0.00000    0.56980   -0.52183    9    orth
   21      0.436D-11      0.234D-12      -129.84852136    155.287747    0.00000    0.56980   -0.52183    9    diag
   22      0.259D-11      0.184D-12      -129.84852136    155.287747    0.00000    0.56980   -0.52183    9    diag
   23      0.179D-11      0.144D-12      -129.84852136    155.287747    0.00000    0.56980   -0.52183    0    orth

 Final occupancy:   7   1

 !RHF STATE 1.1 Energy               -129.848521360756
 Nuclear energy                        30.46681983
 One-electron energy                 -237.95921463
 Two-electron energy                   77.64387344
 Virial quotient                       -1.00160318
 !RHF STATE 1.1 Dipole moment           0.00000000     0.56980037    -0.52182715
 Dipole moment /Debye                   0.00000000     1.44819322    -1.32626546

 Orbital energies:

         1.1          2.1          3.1          4.1          5.1          6.1          7.1          8.1          9.1
    -20.653285   -15.711705    -1.533597    -0.993562    -0.748755    -0.667648    -0.428718     0.026396     0.079483

         1.2          2.2          3.2
     -0.598462     0.064520     0.110678

 HOMO      7.1    -0.428718 =     -11.6660eV
 LUMO      8.1     0.026396 =       0.7183eV
 LUMO-HOMO         0.455114 =      12.3843eV


 **********************************************************************************************************************************
 DATASETS  * FILE   NREC   LENGTH (MB)   RECORD NAMES
              1      19      944.14       500      610      700      900      950      970     1000      129      960     1100   
                                          VAR    BASINP    GEOM    SYMINP    ZMAT    AOBASIS   BASIS     P2S    ABASIS      S 
                                         1400     1410     1200     1210     1080     1600     1650     1300     1700   
                                           T        V       H0       H01     AOSYM     SMH    MOLCAS    ERIS     OPER   

              2       4        3.27       700     1000      520     2100   
                                         GEOM     BASIS   MCVARS     RHF  

 PROGRAMS   *        TOTAL        HF       INT
 CPU TIMES  *        31.60     13.05     18.45
 REAL TIME  *        38.95 SEC
 DISK USED  *         3.13 GB      
 **********************************************************************************************************************************


 PROGRAM * CCSD (Closed-shell coupled cluster)     Authors: C. Hampel, H.-J. Werner, 1991, M. Deegan, P.J. Knowles, 1992


 Convergence thresholds:  THRVAR = 1.00D-08  THRDEN = 1.00D-12

 CCSD(T)     terms to be evaluated (factor= 1.000)


 Number of core orbitals:           2 (   2   0 )
 Number of closed-shell orbitals:   6 (   5   1 )
 Number of external orbitals:     198 ( 123  75 )

 Molecular orbitals read from record     2100.2  Type=RHF/CANONICAL (state 1.1)

 Number of N-1 electron functions:               6
 Number of N-2 electron functions:              21
 Number of singly external CSFs:               690
 Number of doubly external CSFs:            362646
 Total number of CSFs:                      363337

 Length of J-op  integral file:               0.00 MB
 Length of K-op  integral file:               1.60 MB
 Length of 3-ext integral record:             0.00 MB

 Memory could be reduced to 34.67 Mwords without degradation in triples

 Integral transformation finished. Total CPU:   1.84 sec, npass=  1  Memory used:   9.53 MW

 Reference energy:                   -129.84852136

 MP2 singlet pair energy:              -0.30109791
 MP2 triplet pair energy:              -0.17009023
 MP2 correlation energy:               -0.47118815
 MP2 total energy:                   -130.31970951

 SCS-MP2 correlation energy:           -0.46715142   (PS=  1.200000  PT=  0.333333)
 SCS-MP2 total energy:               -130.31567278

 ITER.      SQ.NORM     CORR.ENERGY   TOTAL ENERGY   ENERGY CHANGE        DEN1      VAR(S)    VAR(P)  DIIS     TIME  TIME/IT
   1      1.12049749    -0.47142040  -130.31994176    -0.00023226     0.01597278  0.31D-02  0.31D-02  1  1     3.42     1.74
   2      1.13108011    -0.47141906  -130.31994042     0.00000134    -0.01237686  0.10D-03  0.49D-03  2  2     5.02     1.77
   3      1.13729562    -0.47179027  -130.32031163    -0.00037121    -0.00301697  0.48D-04  0.52D-04  3  3     6.62     1.79
   4      1.13999758    -0.47179671  -130.32031807    -0.00000644    -0.00092225  0.42D-05  0.94D-05  4  4     8.21     1.79
   5      1.14106423    -0.47182532  -130.32034668    -0.00002862    -0.00023295  0.11D-05  0.16D-05  5  5     9.79     1.80
   6      1.14141176    -0.47181108  -130.32033244     0.00001424    -0.00004971  0.11D-06  0.40D-06  6  6    11.45     1.80
   7      1.14148525    -0.47181146  -130.32033283    -0.00000038     0.00000223  0.17D-07  0.89D-07  6  1    13.03     1.80
   8      1.14150793    -0.47181186  -130.32033322    -0.00000039    -0.00000111  0.36D-08  0.17D-07  6  2    14.64     1.81
   9      1.14151305    -0.47181148  -130.32033284     0.00000038     0.00000091  0.25D-08  0.20D-08  6  4    16.28     1.81
  10      1.14151545    -0.47181185  -130.32033321    -0.00000037    -0.00000073  0.46D-09  0.23D-09  6  3    18.00     1.82
  11      1.14151514    -0.47181191  -130.32033327    -0.00000006    -0.00000010  0.14D-09  0.33D-10  6  5    19.54     1.82
  12      1.14151418    -0.47181205  -130.32033341    -0.00000014     0.00000035  0.18D-10  0.10D-10  6  6    21.20     1.82
  13      1.14151337    -0.47181209  -130.32033345    -0.00000004     0.00000021  0.56D-11  0.22D-11  6  1    22.84     1.82
  14      1.14151272    -0.47181212  -130.32033348    -0.00000003     0.00000015  0.39D-12  0.44D-12  6  4    24.47     1.82
  15      1.14151252    -0.47181213  -130.32033349    -0.00000001     0.00000003  0.85D-13  0.34D-13  6  2    26.10     1.82
  16      1.14151247    -0.47181213  -130.32033349    -0.00000000     0.00000001  0.24D-13  0.66D-14  6  3    27.70     1.82
  17      1.14151245    -0.47181213  -130.32033349    -0.00000000     0.00000001  0.41D-14  0.10D-14  6  5    29.31     1.82
  18      1.14151244    -0.47181213  -130.32033349     0.00000000     0.00000000  0.81D-15  0.27D-15  6  6    30.93     1.82
  19      1.14151244    -0.47181213  -130.32033349     0.00000000     0.00000000  0.89D-16  0.53D-16  6  1    32.58     1.82
  20      1.14151245    -0.47181213  -130.32033349     0.00000000    -0.00000000  0.94D-17  0.76D-17  6  4    34.21     1.82
  21      1.14151245    -0.47181213  -130.32033349     0.00000000    -0.00000000  0.50D-18  0.65D-18  6  3    35.81     1.82
  22      1.14151245    -0.47181213  -130.32033349     0.00000000    -0.00000000  0.13D-18  0.15D-18  6  2    37.45     1.82
  23      1.14151245    -0.47181213  -130.32033349     0.00000000    -0.00000000  0.97D-20  0.33D-19  6  1    39.10     1.82
  24      1.14151245    -0.47181213  -130.32033349    -0.00000000     0.00000000  0.16D-20  0.64D-20  6  5    40.75     1.82
  25      1.14151245    -0.47181213  -130.32033349     0.00000000     0.00000000  0.12D-20  0.16D-20  6  6    42.38     1.82

 Norm of t1 vector:      0.07604639      S-energy:     0.00000000      T1 diagnostic:  0.01552290
                                                                       D1 diagnostic:  0.04153376

 Doubles amplitudes (print threshold =  0.500E-01):

         I         J         SYM. A    SYM. B    A         B      T(IJ, AB)

         6         6         2         2         1         1     -0.09581773


 Total CPU time for triples:     21.00 sec


 RESULTS
 =======

  Reference energy                   -129.848521360756
  CCSD singlet pair energy             -0.326029808636
  CCSD triplet pair energy             -0.145782321002
  CCSD correlation energy              -0.471812129637

  Triples (T) contribution             -0.022205997212
  Total correlation energy             -0.494018126849

  CCSD total energy                  -130.320333490394
  CCSD[T] energy                     -130.343593001474
  CCSD-T energy                      -130.342158940787
 !CCSD(T) total energy               -130.342539487605

 Timing summary (sec):

 STEP                 CPU(USER)    SYS     CPU(TOT)    WALL
 Transformation          1.86      0.30      2.16      2.15
 CCSD iterations        40.53      5.06     45.59     45.59
 Triples                21.00      0.52     21.52     21.52

 Program statistics:

 Available memory in ccsd:               994999756
 Min. memory needed in ccsd:               1265322
 Max. memory used in ccsd:                 1555950
 Max. memory used in cckext:               2415326 (25 integral passes)



 **********************************************************************************************************************************
 DATASETS  * FILE   NREC   LENGTH (MB)   RECORD NAMES
              1      20     1044.69       500      610      700      900      950      970     1000      129      960     1100   
                                          VAR    BASINP    GEOM    SYMINP    ZMAT    AOBASIS   BASIS     P2S    ABASIS      S 
                                         1400     1410     1200     1210     1080     1600     1650     1300     1700     1380   
                                           T        V       H0       H01     AOSYM     SMH    MOLCAS    ERIS     OPER     JKOP   

              2       4        3.27       700     1000      520     2100   
                                         GEOM     BASIS   MCVARS     RHF  

 PROGRAMS   *        TOTAL   CCSD(T)        HF       INT
 CPU TIMES  *        95.01     63.41     13.05     18.45
 REAL TIME  *       108.35 SEC
 DISK USED  *         3.13 GB      
 **********************************************************************************************************************************

 CCSD(T)/aug-cc-pVQZ energy=   -130.342539487605

        CCSD(T)         HF-SCF  
   -130.34253949   -129.84852136
 **********************************************************************************************************************************
 Molpro calculation terminated
 Variable memory released
