
 Primary working directories    : /tmp/r2666/234843.maple
 Secondary working directories  : /tmp/r2666/234843.maple
 Wavefunction directory         : /ddn/home4/r2666/wfu/
 Main file repository           : /tmp/r2666/234843.maple/

 SHA1      : d5ffa45e93fdbca01ffc919aa182cfdae0147319
 NAME      : 2015.1.35
 ARCHNAME  : linux/x86_64
 FC        : /opt/intel/composer_xe_2015.1.133/bin/intel64/ifort
 BLASLIB   : -Wl,-_start-group /opt/intel/mkl/lib/intel64/libmkl_intel_ilp64.a /opt/intel/mkl/lib/intel64/libmkl_intel_thread.a /opt/intel/mkl/lib/intel64/libmkl_core.a -Wl,-_end-group
 id        : olemiss

 Nodes     nprocs
 cn091        1

 Using customized tuning parameters: mindgm=1; mindgv=20; mindgc=4; mindgr=1; noblas=0; minvec=7
 default implementation of scratch files=df  

 ***,hno CCSD(T)/TZ-F12 QFF
 memory, 995, m;
 gthresh,energy=1.d-12,zero=1.d-22,oneint=1.d-22,twoint=1.d-22;
 gthresh,optgrad=1.d-8,optstep=1.d-8;
 nocompress;
 geomtyp=xyz
 bohr
 geometry={
 3
         86        86
 N        0.0000000000       -0.1701171816       -1.1387073889
 H        0.0000000000        1.6686685282       -1.9190234959
 O        0.0000000000        0.0432164434        1.1071412939
 }
 
 basis=avqz
   {hf,maxit=500;accu,20;}
 {ccsd(t),nocheck,maxit=250;orbital,IGNORE_ERROR;}

 Variables initialized (889), CPU time= 0.00 sec
 Commands  initialized (702), CPU time= 0.01 sec, 572 directives.
 Default parameters read. Elapsed time= 0.05 sec

 Checking input...
 Passed
1


                                         ***  PROGRAM SYSTEM MOLPRO  ***
                                       Copyright, TTI GmbH Stuttgart, 2015
                                    Version 2015.1 linked Jul  9 2018 13:16:40


 **********************************************************************************************************************************
 LABEL *   hno CCSD(T)/TZ-F12 QFF                                                        
  64 bit serial version                                                                  DATE: 08-Feb-20          TIME: 17:53:58  
 **********************************************************************************************************************************

 SHA1:             d5ffa45e93fdbca01ffc919aa182cfdae0147319
 **********************************************************************************************************************************

 THRESHOLDS:

 ZERO    =  1.00D-22  ONEINT  =  1.00D-22  TWOINT  =  1.00D-22  PREFAC  =  1.00D-14  LOCALI  =  1.00D-09  EORDER  =  1.00D-04
 ENERGY  =  1.00D-12  ETEST   =  0.00D+00  EDENS   =  0.00D+00  THRDEDEF=  1.00D-06  GRADIENT=  1.00D-02  STEP    =  1.00D-03
 ORBITAL =  1.00D-05  CIVEC   =  1.00D-05  COEFF   =  1.00D-04  PRINTCI =  5.00D-02  PUNCHCI =  9.90D+01  OPTGRAD =  3.00D-04
 OPTENERG=  1.00D-06  OPTSTEP =  3.00D-04  THRGRAD =  1.00D-10  COMPRESS=  1.00D-11  VARMIN  =  1.00D-07  VARMAX  =  1.00D-03
 THRDOUB =  0.00D+00  THRDIV  =  1.00D-05  THRRED  =  1.00D-07  THRPSP  =  1.00D+00  THRDC   =  1.00D-10  THRCS   =  1.00D-10
 THRNRM  =  1.00D-08  THREQ   =  0.00D+00  THRDE   =  1.00D+00  THRREF  =  1.00D-05  SPARFAC =  1.00D+00  THRDLP  =  1.00D-07
 THRDIA  =  1.00D-10  THRDLS  =  1.00D-07  THRGPS  =  0.00D+00  THRKEX  =  0.00D+00  THRDIS  =  2.00D-01  THRVAR  =  1.00D-10
 THRLOC  =  1.00D-06  THRGAP  =  1.00D-06  THRLOCT = -1.00D+00  THRGAPT = -1.00D+00  THRORB  =  1.00D-06  THRMLTP =  0.00D+00
 THRCPQCI=  1.00D-10  KEXTA   =  0.00D+00  THRCOARS=  0.00D+00  SYMTOL  =  1.00D-06  GRADTOL =  1.00D-06  THROVL  =  1.00D-08
 THRORTH =  1.00D-08  GRID    =  1.00D-06  GRIDMAX =  1.00D-03  DTMAX   =  0.00D+00  THROCCDE=  1.00D-01  THROCCDE=  1.00D-01



 THRESHOLDS:

 ZERO    =  1.00D-22  ONEINT  =  1.00D-22  TWOINT  =  1.00D-22  PREFAC  =  1.00D-14  LOCALI  =  1.00D-09  EORDER  =  1.00D-04
 ENERGY  =  1.00D-12  ETEST   =  0.00D+00  EDENS   =  0.00D+00  THRDEDEF=  1.00D-06  GRADIENT=  1.00D-02  STEP    =  1.00D-03
 ORBITAL =  1.00D-05  CIVEC   =  1.00D-05  COEFF   =  1.00D-04  PRINTCI =  5.00D-02  PUNCHCI =  9.90D+01  OPTGRAD =  1.00D-08
 OPTENERG=  1.00D-06  OPTSTEP =  1.00D-08  THRGRAD =  1.00D-10  COMPRESS=  1.00D-11  VARMIN  =  1.00D-07  VARMAX  =  1.00D-03
 THRDOUB =  0.00D+00  THRDIV  =  1.00D-05  THRRED  =  1.00D-07  THRPSP  =  1.00D+00  THRDC   =  1.00D-10  THRCS   =  1.00D-10
 THRNRM  =  1.00D-08  THREQ   =  0.00D+00  THRDE   =  1.00D+00  THRREF  =  1.00D-05  SPARFAC =  1.00D+00  THRDLP  =  1.00D-07
 THRDIA  =  1.00D-10  THRDLS  =  1.00D-07  THRGPS  =  0.00D+00  THRKEX  =  0.00D+00  THRDIS  =  2.00D-01  THRVAR  =  1.00D-10
 THRLOC  =  1.00D-06  THRGAP  =  1.00D-06  THRLOCT = -1.00D+00  THRGAPT = -1.00D+00  THRORB  =  1.00D-06  THRMLTP =  0.00D+00
 THRCPQCI=  1.00D-10  KEXTA   =  0.00D+00  THRCOARS=  0.00D+00  SYMTOL  =  1.00D-06  GRADTOL =  1.00D-06  THROVL  =  1.00D-08
 THRORTH =  1.00D-08  GRID    =  1.00D-06  GRIDMAX =  1.00D-03  DTMAX   =  0.00D+00  THROCCDE=  1.00D-01  THROCCDE=  1.00D-01



 Input parameters for SORTINT:

 COMPRESS =    0.000000
 C_FINAL  =    1.000000
 DEBUG    =   -1.000000
 C_SORT1  =    0.000000
 C_SEWARD =    0.000000
 THRESH   =    0.000000
 IO       =  molpro                                                          
 SPRI     =    0.000000
 SETTING GEOMTYP        =    XYZ
 ZUNIT=BOHR
 

 Variable memory set to  995000000 words,  buffer space   230000 words

 SETTING BASIS          =    AVQZ


 Recomputing integrals since basis changed


 Using spherical harmonics

 Library entry N      S aug-cc-pVQZ          selected for orbital group  1
 Library entry N      P aug-cc-pVQZ          selected for orbital group  1
 Library entry N      D aug-cc-pVQZ          selected for orbital group  1
 Library entry N      F aug-cc-pVQZ          selected for orbital group  1
 Library entry N      G aug-cc-pVQZ          selected for orbital group  1
 Library entry H      S aug-cc-pVQZ          selected for orbital group  2
 Library entry H      P aug-cc-pVQZ          selected for orbital group  2
 Library entry H      D aug-cc-pVQZ          selected for orbital group  2
 Library entry H      F aug-cc-pVQZ          selected for orbital group  2
 Library entry O      S aug-cc-pVQZ          selected for orbital group  3
 Library entry O      P aug-cc-pVQZ          selected for orbital group  3
 Library entry O      D aug-cc-pVQZ          selected for orbital group  3
 Library entry O      F aug-cc-pVQZ          selected for orbital group  3
 Library entry O      G aug-cc-pVQZ          selected for orbital group  3


 PROGRAM * SEWARD (Integral evaluation for generally contracted gaussian basis sets)     Author: Roland Lindh, 1990

 Geometry written to block  1 of record 700


 Point group  Cs  



 ATOMIC COORDINATES

 NR  ATOM    CHARGE       X              Y              Z

   1  N       7.00    0.000000000   -0.170117182   -1.138707389
   2  H       1.00    0.000000000    1.668668528   -1.919023496
   3  O       8.00    0.000000000    0.043216443    1.107141294

 Bond lengths in Bohr (Angstrom)

 1-2  1.997504972  1-3  2.255958231
     ( 1.057034110)     ( 1.193801685)

 Bond angles

  2-1-3  107.56840709

 NUCLEAR CHARGE:                   16
 NUMBER OF PRIMITIVE AOS:         293
 NUMBER OF SYMMETRY AOS:          234
 NUMBER OF CONTRACTIONS:          206   ( 130A'  +  76A"  )
 NUMBER OF CORE ORBITALS:           2   (   2A'  +   0A"  )
 NUMBER OF VALENCE ORBITALS:        9   (   7A'  +   2A"  )


 NUCLEAR REPULSION ENERGY   30.65643933

 Eigenvalues of metric

         1 0.587E-04 0.144E-03 0.313E-03 0.433E-03 0.569E-03 0.682E-03 0.996E-03 0.106E-02
         2 0.789E-03 0.165E-02 0.482E-02 0.887E-02 0.102E-01 0.119E-01 0.123E-01 0.185E-01


 Contracted 2-electron integrals neglected if value below      1.0D-22

      109945077. INTEGRALS WRITTEN OUT IN   26849 BLOCKS ON RECORD 1290 OF FILE 1


 NUMBER OF SORTED TWO-ELECTRON INTEGRALS:  115283741.     BUFFER LENGTH:  32768
 NUMBER OF SEGMENTS:   8  SEGMENT LENGTH:   15998004      RECORD LENGTH: 524288

 Memory used in sort:      16.56 MW

 SORT1 READ   109945077. AND WROTE   110865244. INTEGRALS IN    322 RECORDS. CPU TIME:     1.94 SEC, REAL TIME:     2.69 SEC
 SORT2 READ   110865244. AND WROTE   115283741. INTEGRALS IN      8 RECORDS. CPU TIME:     1.25 SEC, REAL TIME:     1.84 SEC

 FILE SIZES:   FILE 1:  1780.6 MBYTE,  FILE 4:  1350.6 MBYTE,   TOTAL:   3131.2 MBYTE

 OPERATOR DM      FOR CENTER  0  COORDINATES:    0.000000    0.000000    0.000000


 **********************************************************************************************************************************
 DATASETS  * FILE   NREC   LENGTH (MB)   RECORD NAMES
              1      19      944.14       500      610      700      900      950      970     1000      129      960     1100   
                                          VAR    BASINP    GEOM    SYMINP    ZMAT    AOBASIS   BASIS     P2S    ABASIS      S 
                                         1400     1410     1200     1210     1080     1600     1650     1300     1700   
                                           T        V       H0       H01     AOSYM     SMH    MOLCAS    ERIS     OPER   

 PROGRAMS   *        TOTAL       INT
 CPU TIMES  *        11.00     10.90
 REAL TIME  *        13.85 SEC
 DISK USED  *         3.13 GB      
 **********************************************************************************************************************************


 PROGRAM * RHF-SCF (CLOSED SHELL)       Authors: W. Meyer, H.-J. Werner


 NUMBER OF ELECTRONS:       8+    8-
 CONVERGENCE THRESHOLDS:    1.00E-10 (Density)    1.00E-13 (Energy)
 MAX. NUMBER OF ITERATIONS:      500
 INTERPOLATION TYPE:            DIIS
 INTERPOLATION STEPS:              2 (START)      1 (STEP)
 LEVEL SHIFTS:                  0.00 (CLOSED)  0.00 (OPEN) 



 Orbital guess generated from atomic densities. Full valence occupancy:    9   2

 Molecular orbital dump at record        2100.2

 Initial occupancy:   7   1

 ITERATION    DDIFF          GRAD             ENERGY        2-EL.EN.            DIPOLE MOMENTS         DIIS   ORB.
    1      0.000D+00      0.000D+00      -129.79987799    154.474866    0.00000    0.57936   -0.97971    0    start
    2      0.000D+00      0.801D-02      -129.82753552    155.736720    0.00000    0.60106   -0.20851    1    diag
    3      0.637D-02      0.594D-02      -129.84845393    155.827339    0.00000    0.54560   -0.56898    2    diag
    4      0.322D-02      0.952D-03      -129.84922480    155.552915    0.00000    0.55361   -0.51029    3    diag
    5      0.593D-03      0.310D-03      -129.84934653    155.645424    0.00000    0.55893   -0.51312    4    diag
    6      0.247D-03      0.900D-04      -129.84936594    155.629378    0.00000    0.55928   -0.50918    5    diag
    7      0.945D-04      0.442D-04      -129.84937140    155.632302    0.00000    0.56056   -0.50677    6    diag
    8      0.644D-04      0.148D-04      -129.84937195    155.631649    0.00000    0.56061   -0.50585    7    diag
    9      0.232D-04      0.279D-05      -129.84937197    155.631542    0.00000    0.56058   -0.50565    8    diag
   10      0.448D-05      0.650D-06      -129.84937197    155.631524    0.00000    0.56055   -0.50562    9    orth
   11      0.935D-06      0.134D-06      -129.84937197    155.631521    0.00000    0.56054   -0.50562    9    diag
   12      0.181D-06      0.270D-07      -129.84937197    155.631520    0.00000    0.56054   -0.50561    9    diag
   13      0.397D-07      0.687D-08      -129.84937197    155.631520    0.00000    0.56054   -0.50561    9    diag
   14      0.105D-07      0.139D-08      -129.84937197    155.631520    0.00000    0.56054   -0.50561    9    diag
   15      0.197D-08      0.411D-09      -129.84937197    155.631520    0.00000    0.56054   -0.50561    9    diag
   16      0.586D-09      0.129D-09      -129.84937197    155.631520    0.00000    0.56054   -0.50561    9    diag
   17      0.119D-09      0.361D-10      -129.84937197    155.631520    0.00000    0.56054   -0.50561    9    diag
   18      0.371D-10      0.120D-10      -129.84937197    155.631520    0.00000    0.56054   -0.50561    9    diag
   19      0.165D-10      0.297D-11      -129.84937197    155.631520    0.00000    0.56054   -0.50561    9    fixocc
   20      0.568D-11      0.468D-12      -129.84937197    155.631520    0.00000    0.56054   -0.50561    9    orth
   21      0.232D-11      0.231D-12      -129.84937197    155.631520    0.00000    0.56054   -0.50561    9    diag
   22      0.354D-11      0.158D-12      -129.84937197    155.631520    0.00000    0.56054   -0.50561    9    diag
   23      0.155D-11      0.134D-12      -129.84937197    155.631520    0.00000    0.56054   -0.50561    9    diag
   24      0.632D-12      0.103D-12      -129.84937197    155.631520    0.00000    0.56054   -0.50561    9    diag
   25      0.710D-12      0.116D-12      -129.84937197    155.631520    0.00000    0.56054   -0.50561    9    diag
   26      0.617D-12      0.122D-12      -129.84937197    155.631520    0.00000    0.56054   -0.50561    0    orth

 Final occupancy:   7   1

 !RHF STATE 1.1 Energy               -129.849371971406
 Nuclear energy                        30.65643933
 One-electron energy                 -238.32157135
 Two-electron energy                   77.81576005
 Virial quotient                       -1.00134816
 !RHF STATE 1.1 Dipole moment           0.00000000     0.56053854    -0.50561384
 Dipole moment /Debye                   0.00000000     1.42465355    -1.28505801

 Orbital energies:

         1.1          2.1          3.1          4.1          5.1          6.1          7.1          8.1          9.1
    -20.652271   -15.711014    -1.541638    -0.989594    -0.751120    -0.670068    -0.426233     0.026591     0.079528

         1.2          2.2          3.2
     -0.603089     0.066905     0.111311

 HOMO      7.1    -0.426233 =     -11.5984eV
 LUMO      8.1     0.026591 =       0.7236eV
 LUMO-HOMO         0.452824 =      12.3220eV


 **********************************************************************************************************************************
 DATASETS  * FILE   NREC   LENGTH (MB)   RECORD NAMES
              1      19      944.14       500      610      700      900      950      970     1000      129      960     1100   
                                          VAR    BASINP    GEOM    SYMINP    ZMAT    AOBASIS   BASIS     P2S    ABASIS      S 
                                         1400     1410     1200     1210     1080     1600     1650     1300     1700   
                                           T        V       H0       H01     AOSYM     SMH    MOLCAS    ERIS     OPER   

              2       4        3.27       700     1000      520     2100   
                                         GEOM     BASIS   MCVARS     RHF  

 PROGRAMS   *        TOTAL        HF       INT
 CPU TIMES  *        23.91     12.91     10.90
 REAL TIME  *        29.96 SEC
 DISK USED  *         3.13 GB      
 **********************************************************************************************************************************


 PROGRAM * CCSD (Closed-shell coupled cluster)     Authors: C. Hampel, H.-J. Werner, 1991, M. Deegan, P.J. Knowles, 1992


 Convergence thresholds:  THRVAR = 1.00D-08  THRDEN = 1.00D-12

 CCSD(T)     terms to be evaluated (factor= 1.000)


 Number of core orbitals:           2 (   2   0 )
 Number of closed-shell orbitals:   6 (   5   1 )
 Number of external orbitals:     198 ( 123  75 )

 Molecular orbitals read from record     2100.2  Type=RHF/CANONICAL (state 1.1)

 Number of N-1 electron functions:               6
 Number of N-2 electron functions:              21
 Number of singly external CSFs:               690
 Number of doubly external CSFs:            362646
 Total number of CSFs:                      363337

 Length of J-op  integral file:               0.00 MB
 Length of K-op  integral file:               1.60 MB
 Length of 3-ext integral record:             0.00 MB

 Memory could be reduced to 34.67 Mwords without degradation in triples

 Integral transformation finished. Total CPU:   1.54 sec, npass=  1  Memory used:   9.53 MW

 Reference energy:                   -129.84937197

 MP2 singlet pair energy:              -0.30029555
 MP2 triplet pair energy:              -0.16954764
 MP2 correlation energy:               -0.46984319
 MP2 total energy:                   -130.31921516

 SCS-MP2 correlation energy:           -0.46585097   (PS=  1.200000  PT=  0.333333)
 SCS-MP2 total energy:               -130.31522294

 ITER.      SQ.NORM     CORR.ENERGY   TOTAL ENERGY   ENERGY CHANGE        DEN1      VAR(S)    VAR(P)  DIIS     TIME  TIME/IT
   1      1.11967832    -0.47041624  -130.31978822    -0.00057305     0.01527683  0.30D-02  0.30D-02  1  1     2.85     1.43
   2      1.13005876    -0.47048802  -130.31985999    -0.00007177    -0.01216892  0.96D-04  0.47D-03  2  2     4.15     1.46
   3      1.13611040    -0.47084671  -130.32021868    -0.00035869    -0.00297011  0.45D-04  0.50D-04  3  3     5.44     1.47
   4      1.13870886    -0.47085269  -130.32022467    -0.00000599    -0.00089583  0.39D-05  0.90D-05  4  4     6.72     1.47
   5      1.13971438    -0.47087984  -130.32025181    -0.00002714    -0.00022070  0.11D-05  0.16D-05  5  5     8.05     1.48
   6      1.14004461    -0.47086661  -130.32023859     0.00001322    -0.00004713  0.11D-06  0.38D-06  6  6     9.35     1.48
   7      1.14011674    -0.47086683  -130.32023880    -0.00000021     0.00000183  0.18D-07  0.83D-07  6  1    10.67     1.48
   8      1.14013892    -0.47086725  -130.32023922    -0.00000042    -0.00000105  0.36D-08  0.16D-07  6  2    11.92     1.48
   9      1.14014707    -0.47086675  -130.32023873     0.00000049    -0.00000043  0.20D-08  0.15D-08  6  3    13.24     1.48
  10      1.14014277    -0.47086746  -130.32023943    -0.00000070     0.00000145  0.28D-09  0.24D-09  6  5    14.55     1.48
  11      1.14014429    -0.47086743  -130.32023940     0.00000003    -0.00000027  0.82D-10  0.21D-10  6  4    15.87     1.48
  12      1.14014390    -0.47086749  -130.32023946    -0.00000006     0.00000003  0.15D-10  0.52D-11  6  6    17.18     1.48
  13      1.14014374    -0.47086749  -130.32023946    -0.00000000    -0.00000004  0.29D-11  0.73D-12  6  1    18.42     1.48
  14      1.14014349    -0.47086750  -130.32023947    -0.00000001     0.00000003  0.40D-12  0.14D-12  6  3    19.73     1.47
  15      1.14014342    -0.47086750  -130.32023947    -0.00000000     0.00000001  0.11D-12  0.20D-13  6  2    20.98     1.47
  16      1.14014341    -0.47086750  -130.32023947     0.00000000     0.00000000  0.25D-13  0.87D-14  6  4    22.27     1.47
  17      1.14014341    -0.47086750  -130.32023947    -0.00000000    -0.00000000  0.12D-14  0.93D-15  6  5    23.55     1.47
  18      1.14014342    -0.47086750  -130.32023947     0.00000000    -0.00000000  0.21D-15  0.21D-15  6  6    24.83     1.47
  19      1.14014342    -0.47086750  -130.32023947     0.00000000    -0.00000000  0.43D-16  0.22D-16  6  1    26.13     1.47
  20      1.14014342    -0.47086750  -130.32023947     0.00000000    -0.00000000  0.74D-17  0.44D-17  6  2    27.44     1.47
  21      1.14014342    -0.47086750  -130.32023947    -0.00000000     0.00000000  0.96D-18  0.60D-18  6  3    28.74     1.47
  22      1.14014342    -0.47086750  -130.32023947    -0.00000000     0.00000000  0.15D-18  0.11D-18  6  5    30.06     1.47
  23      1.14014342    -0.47086750  -130.32023947    -0.00000000     0.00000000  0.20D-19  0.15D-19  6  4    31.34     1.47
  24      1.14014342    -0.47086750  -130.32023947    -0.00000000     0.00000000  0.47D-20  0.19D-20  6  1    32.65     1.47
  25      1.14014342    -0.47086750  -130.32023947     0.00000000    -0.00000000  0.11D-20  0.50D-21  6  6    33.93     1.47
  26      1.14014342    -0.47086750  -130.32023947     0.00000000    -0.00000000  0.33D-21  0.20D-21  6  2    35.19     1.47

 Norm of t1 vector:      0.07455681      S-energy:     0.00000000      T1 diagnostic:  0.01521884
                                                                       D1 diagnostic:  0.04029758

 Doubles amplitudes (print threshold =  0.500E-01):

         I         J         SYM. A    SYM. B    A         B      T(IJ, AB)

         6         6         2         2         1         1     -0.09066715


 Total CPU time for triples:     16.40 sec


 RESULTS
 =======

  Reference energy                   -129.849371971406
  CCSD singlet pair energy             -0.325206967329
  CCSD triplet pair energy             -0.145660533718
  CCSD correlation energy              -0.470867501046

  Triples (T) contribution             -0.021947245221
  Total correlation energy             -0.492814746268

  CCSD total energy                  -130.320239472452
  CCSD[T] energy                     -130.343202359123
  CCSD-T energy                      -130.341814981137
 !CCSD(T) total energy               -130.342186717673

 Timing summary (sec):

 STEP                 CPU(USER)    SYS     CPU(TOT)    WALL
 Transformation          1.55      0.30      1.85      2.11
 CCSD iterations        33.64      4.70     38.34     38.34
 Triples                16.40      0.43     16.83     16.83

 Program statistics:

 Available memory in ccsd:               994999756
 Min. memory needed in ccsd:               1265322
 Max. memory used in ccsd:                 1555950
 Max. memory used in cckext:               2415326 (26 integral passes)



 **********************************************************************************************************************************
 DATASETS  * FILE   NREC   LENGTH (MB)   RECORD NAMES
              1      20     1044.69       500      610      700      900      950      970     1000      129      960     1100   
                                          VAR    BASINP    GEOM    SYMINP    ZMAT    AOBASIS   BASIS     P2S    ABASIS      S 
                                         1400     1410     1200     1210     1080     1600     1650     1300     1700     1380   
                                           T        V       H0       H01     AOSYM     SMH    MOLCAS    ERIS     OPER     JKOP   

              2       4        3.27       700     1000      520     2100   
                                         GEOM     BASIS   MCVARS     RHF  

 PROGRAMS   *        TOTAL   CCSD(T)        HF       INT
 CPU TIMES  *        75.54     51.62     12.91     10.90
 REAL TIME  *        87.38 SEC
 DISK USED  *         3.13 GB      
 **********************************************************************************************************************************

 CCSD(T)/aug-cc-pVQZ energy=   -130.342186717673

        CCSD(T)         HF-SCF  
   -130.34218672   -129.84937197
 **********************************************************************************************************************************
 Molpro calculation terminated
 Variable memory released
