
 Primary working directories    : /tmp/r2666/234833.maple
 Secondary working directories  : /tmp/r2666/234833.maple
 Wavefunction directory         : /ddn/home4/r2666/wfu/
 Main file repository           : /tmp/r2666/234833.maple/

 SHA1      : d5ffa45e93fdbca01ffc919aa182cfdae0147319
 NAME      : 2015.1.35
 ARCHNAME  : linux/x86_64
 FC        : /opt/intel/composer_xe_2015.1.133/bin/intel64/ifort
 BLASLIB   : -Wl,-_start-group /opt/intel/mkl/lib/intel64/libmkl_intel_ilp64.a /opt/intel/mkl/lib/intel64/libmkl_intel_thread.a /opt/intel/mkl/lib/intel64/libmkl_core.a -Wl,-_end-group
 id        : olemiss

 Nodes     nprocs
 cn096        1

 Using customized tuning parameters: mindgm=1; mindgv=20; mindgc=4; mindgr=1; noblas=0; minvec=7
 default implementation of scratch files=df  

 ***,hno CCSD(T)/TZ-F12 QFF
 memory, 995, m;
 gthresh,energy=1.d-12,zero=1.d-22,oneint=1.d-22,twoint=1.d-22;
 gthresh,optgrad=1.d-8,optstep=1.d-8;
 nocompress;
 geomtyp=xyz
 bohr
 geometry={
 3
         76        76
 N        0.0000000000       -0.1685886750       -1.1672069937
 H        0.0000000000        1.6691604811       -1.9255249076
 O        0.0000000000        0.0411959839        1.1421423103
 }
 
 basis=avqz
   {hf,maxit=500;accu,20;}
 {ccsd(t),nocheck,maxit=250;orbital,IGNORE_ERROR;}

 Variables initialized (889), CPU time= 0.01 sec
 Commands  initialized (702), CPU time= 0.01 sec, 572 directives.
 Default parameters read. Elapsed time= 0.05 sec

 Checking input...
 Passed
1


                                         ***  PROGRAM SYSTEM MOLPRO  ***
                                       Copyright, TTI GmbH Stuttgart, 2015
                                    Version 2015.1 linked Jul  9 2018 13:16:40


 **********************************************************************************************************************************
 LABEL *   hno CCSD(T)/TZ-F12 QFF                                                        
  64 bit serial version                                                                  DATE: 08-Feb-20          TIME: 17:53:45  
 **********************************************************************************************************************************

 SHA1:             d5ffa45e93fdbca01ffc919aa182cfdae0147319
 **********************************************************************************************************************************

 THRESHOLDS:

 ZERO    =  1.00D-22  ONEINT  =  1.00D-22  TWOINT  =  1.00D-22  PREFAC  =  1.00D-14  LOCALI  =  1.00D-09  EORDER  =  1.00D-04
 ENERGY  =  1.00D-12  ETEST   =  0.00D+00  EDENS   =  0.00D+00  THRDEDEF=  1.00D-06  GRADIENT=  1.00D-02  STEP    =  1.00D-03
 ORBITAL =  1.00D-05  CIVEC   =  1.00D-05  COEFF   =  1.00D-04  PRINTCI =  5.00D-02  PUNCHCI =  9.90D+01  OPTGRAD =  3.00D-04
 OPTENERG=  1.00D-06  OPTSTEP =  3.00D-04  THRGRAD =  1.00D-10  COMPRESS=  1.00D-11  VARMIN  =  1.00D-07  VARMAX  =  1.00D-03
 THRDOUB =  0.00D+00  THRDIV  =  1.00D-05  THRRED  =  1.00D-07  THRPSP  =  1.00D+00  THRDC   =  1.00D-10  THRCS   =  1.00D-10
 THRNRM  =  1.00D-08  THREQ   =  0.00D+00  THRDE   =  1.00D+00  THRREF  =  1.00D-05  SPARFAC =  1.00D+00  THRDLP  =  1.00D-07
 THRDIA  =  1.00D-10  THRDLS  =  1.00D-07  THRGPS  =  0.00D+00  THRKEX  =  0.00D+00  THRDIS  =  2.00D-01  THRVAR  =  1.00D-10
 THRLOC  =  1.00D-06  THRGAP  =  1.00D-06  THRLOCT = -1.00D+00  THRGAPT = -1.00D+00  THRORB  =  1.00D-06  THRMLTP =  0.00D+00
 THRCPQCI=  1.00D-10  KEXTA   =  0.00D+00  THRCOARS=  0.00D+00  SYMTOL  =  1.00D-06  GRADTOL =  1.00D-06  THROVL  =  1.00D-08
 THRORTH =  1.00D-08  GRID    =  1.00D-06  GRIDMAX =  1.00D-03  DTMAX   =  0.00D+00  THROCCDE=  1.00D-01  THROCCDE=  1.00D-01



 THRESHOLDS:

 ZERO    =  1.00D-22  ONEINT  =  1.00D-22  TWOINT  =  1.00D-22  PREFAC  =  1.00D-14  LOCALI  =  1.00D-09  EORDER  =  1.00D-04
 ENERGY  =  1.00D-12  ETEST   =  0.00D+00  EDENS   =  0.00D+00  THRDEDEF=  1.00D-06  GRADIENT=  1.00D-02  STEP    =  1.00D-03
 ORBITAL =  1.00D-05  CIVEC   =  1.00D-05  COEFF   =  1.00D-04  PRINTCI =  5.00D-02  PUNCHCI =  9.90D+01  OPTGRAD =  1.00D-08
 OPTENERG=  1.00D-06  OPTSTEP =  1.00D-08  THRGRAD =  1.00D-10  COMPRESS=  1.00D-11  VARMIN  =  1.00D-07  VARMAX  =  1.00D-03
 THRDOUB =  0.00D+00  THRDIV  =  1.00D-05  THRRED  =  1.00D-07  THRPSP  =  1.00D+00  THRDC   =  1.00D-10  THRCS   =  1.00D-10
 THRNRM  =  1.00D-08  THREQ   =  0.00D+00  THRDE   =  1.00D+00  THRREF  =  1.00D-05  SPARFAC =  1.00D+00  THRDLP  =  1.00D-07
 THRDIA  =  1.00D-10  THRDLS  =  1.00D-07  THRGPS  =  0.00D+00  THRKEX  =  0.00D+00  THRDIS  =  2.00D-01  THRVAR  =  1.00D-10
 THRLOC  =  1.00D-06  THRGAP  =  1.00D-06  THRLOCT = -1.00D+00  THRGAPT = -1.00D+00  THRORB  =  1.00D-06  THRMLTP =  0.00D+00
 THRCPQCI=  1.00D-10  KEXTA   =  0.00D+00  THRCOARS=  0.00D+00  SYMTOL  =  1.00D-06  GRADTOL =  1.00D-06  THROVL  =  1.00D-08
 THRORTH =  1.00D-08  GRID    =  1.00D-06  GRIDMAX =  1.00D-03  DTMAX   =  0.00D+00  THROCCDE=  1.00D-01  THROCCDE=  1.00D-01



 Input parameters for SORTINT:

 COMPRESS =    0.000000
 C_FINAL  =    1.000000
 DEBUG    =   -1.000000
 C_SORT1  =    0.000000
 C_SEWARD =    0.000000
 THRESH   =    0.000000
 IO       =  molpro                                                          
 SPRI     =    0.000000
 SETTING GEOMTYP        =    XYZ
 ZUNIT=BOHR
 

 Variable memory set to  995000000 words,  buffer space   230000 words

 SETTING BASIS          =    AVQZ


 Recomputing integrals since basis changed


 Using spherical harmonics

 Library entry N      S aug-cc-pVQZ          selected for orbital group  1
 Library entry N      P aug-cc-pVQZ          selected for orbital group  1
 Library entry N      D aug-cc-pVQZ          selected for orbital group  1
 Library entry N      F aug-cc-pVQZ          selected for orbital group  1
 Library entry N      G aug-cc-pVQZ          selected for orbital group  1
 Library entry H      S aug-cc-pVQZ          selected for orbital group  2
 Library entry H      P aug-cc-pVQZ          selected for orbital group  2
 Library entry H      D aug-cc-pVQZ          selected for orbital group  2
 Library entry H      F aug-cc-pVQZ          selected for orbital group  2
 Library entry O      S aug-cc-pVQZ          selected for orbital group  3
 Library entry O      P aug-cc-pVQZ          selected for orbital group  3
 Library entry O      D aug-cc-pVQZ          selected for orbital group  3
 Library entry O      F aug-cc-pVQZ          selected for orbital group  3
 Library entry O      G aug-cc-pVQZ          selected for orbital group  3


 PROGRAM * SEWARD (Integral evaluation for generally contracted gaussian basis sets)     Author: Roland Lindh, 1990

 Geometry written to block  1 of record 700


 Point group  Cs  



 ATOMIC COORDINATES

 NR  ATOM    CHARGE       X              Y              Z

   1  N       7.00    0.000000000   -0.168588675   -1.167206994
   2  H       1.00    0.000000000    1.669160481   -1.925524908
   3  O       8.00    0.000000000    0.041195984    1.142142310

 Bond lengths in Bohr (Angstrom)

 1-2  1.988056342  1-3  2.318858299
     ( 1.052034110)     ( 1.227086967)

 Bond angles

  2-1-3  107.23212621

 NUCLEAR CHARGE:                   16
 NUMBER OF PRIMITIVE AOS:         293
 NUMBER OF SYMMETRY AOS:          234
 NUMBER OF CONTRACTIONS:          206   ( 130A'  +  76A"  )
 NUMBER OF CORE ORBITALS:           2   (   2A'  +   0A"  )
 NUMBER OF VALENCE ORBITALS:        9   (   7A'  +   2A"  )


 NUCLEAR REPULSION ENERGY   29.97441033

 Eigenvalues of metric

         1 0.611E-04 0.150E-03 0.324E-03 0.440E-03 0.623E-03 0.695E-03 0.103E-02 0.111E-02
         2 0.874E-03 0.164E-02 0.518E-02 0.902E-02 0.102E-01 0.126E-01 0.131E-01 0.195E-01


 Contracted 2-electron integrals neglected if value below      1.0D-22

      109945076. INTEGRALS WRITTEN OUT IN   26849 BLOCKS ON RECORD 1290 OF FILE 1


 NUMBER OF SORTED TWO-ELECTRON INTEGRALS:  115283741.     BUFFER LENGTH:  32768
 NUMBER OF SEGMENTS:   8  SEGMENT LENGTH:   15998004      RECORD LENGTH: 524288

 Memory used in sort:      16.56 MW

 SORT1 READ   109945076. AND WROTE   110865243. INTEGRALS IN    322 RECORDS. CPU TIME:     1.87 SEC, REAL TIME:     2.72 SEC
 SORT2 READ   110865243. AND WROTE   115283741. INTEGRALS IN      8 RECORDS. CPU TIME:     1.35 SEC, REAL TIME:     1.89 SEC

 FILE SIZES:   FILE 1:  1780.6 MBYTE,  FILE 4:  1350.6 MBYTE,   TOTAL:   3131.2 MBYTE

 OPERATOR DM      FOR CENTER  0  COORDINATES:    0.000000    0.000000    0.000000


 **********************************************************************************************************************************
 DATASETS  * FILE   NREC   LENGTH (MB)   RECORD NAMES
              1      19      944.14       500      610      700      900      950      970     1000      129      960     1100   
                                          VAR    BASINP    GEOM    SYMINP    ZMAT    AOBASIS   BASIS     P2S    ABASIS      S 
                                         1400     1410     1200     1210     1080     1600     1650     1300     1700   
                                           T        V       H0       H01     AOSYM     SMH    MOLCAS    ERIS     OPER   

 PROGRAMS   *        TOTAL       INT
 CPU TIMES  *        11.17     11.06
 REAL TIME  *        14.47 SEC
 DISK USED  *         3.13 GB      
 **********************************************************************************************************************************


 PROGRAM * RHF-SCF (CLOSED SHELL)       Authors: W. Meyer, H.-J. Werner


 NUMBER OF ELECTRONS:       8+    8-
 CONVERGENCE THRESHOLDS:    1.00E-10 (Density)    1.00E-13 (Energy)
 MAX. NUMBER OF ITERATIONS:      500
 INTERPOLATION TYPE:            DIIS
 INTERPOLATION STEPS:              2 (START)      1 (STEP)
 LEVEL SHIFTS:                  0.00 (CLOSED)  0.00 (OPEN) 



 Orbital guess generated from atomic densities. Full valence occupancy:    9   2

 Molecular orbital dump at record        2100.2

 Initial occupancy:   7   1

 ITERATION    DDIFF          GRAD             ENERGY        2-EL.EN.            DIPOLE MOMENTS         DIIS   ORB.
    1      0.000D+00      0.000D+00      -129.79052811    153.259097    0.00000    0.59387   -1.08665    0    start
    2      0.000D+00      0.830D-02      -129.81704631    154.445073    0.00000    0.62288   -0.19231    1    diag
    3      0.682D-02      0.661D-02      -129.84348078    154.613824    0.00000    0.56124   -0.61815    2    diag
    4      0.353D-02      0.991D-03      -129.84432481    154.314167    0.00000    0.56866   -0.55387    3    diag
    5      0.620D-03      0.326D-03      -129.84445945    154.409316    0.00000    0.57389   -0.55604    4    diag
    6      0.261D-03      0.943D-04      -129.84448110    154.392844    0.00000    0.57407   -0.55149    5    diag
    7      0.100D-03      0.478D-04      -129.84448772    154.395430    0.00000    0.57525   -0.54859    6    diag
    8      0.700D-04      0.177D-04      -129.84448859    154.394651    0.00000    0.57528   -0.54740    7    diag
    9      0.297D-04      0.347D-05      -129.84448863    154.394517    0.00000    0.57524   -0.54714    8    diag
   10      0.616D-05      0.752D-06      -129.84448863    154.394499    0.00000    0.57520   -0.54711    9    orth
   11      0.109D-05      0.148D-06      -129.84448863    154.394496    0.00000    0.57520   -0.54711    9    diag
   12      0.189D-06      0.316D-07      -129.84448863    154.394496    0.00000    0.57519   -0.54711    9    diag
   13      0.414D-07      0.862D-08      -129.84448863    154.394496    0.00000    0.57519   -0.54711    9    diag
   14      0.121D-07      0.169D-08      -129.84448863    154.394496    0.00000    0.57519   -0.54711    9    diag
   15      0.215D-08      0.481D-09      -129.84448863    154.394496    0.00000    0.57519   -0.54711    9    diag
   16      0.665D-09      0.140D-09      -129.84448863    154.394496    0.00000    0.57519   -0.54711    9    diag
   17      0.118D-09      0.364D-10      -129.84448863    154.394496    0.00000    0.57519   -0.54711    9    diag
   18      0.344D-10      0.123D-10      -129.84448863    154.394496    0.00000    0.57519   -0.54711    0    orth

 Final occupancy:   7   1

 !RHF STATE 1.1 Energy               -129.844488632853
 Nuclear energy                        29.97441033
 One-electron energy                 -237.01614674
 Two-electron energy                   77.19724777
 Virial quotient                       -1.00226539
 !RHF STATE 1.1 Dipole moment           0.00000000     0.57519426    -0.54710898
 Dipole moment /Debye                   0.00000000     1.46190223    -1.39052123

 Orbital energies:

         1.1          2.1          3.1          4.1          5.1          6.1          7.1          8.1          9.1
    -20.655268   -15.716115    -1.514747    -0.998417    -0.741506    -0.660535    -0.436924     0.026193     0.079439

         1.2          2.2          3.2
     -0.587314     0.058476     0.109723

 HOMO      7.1    -0.436924 =     -11.8893eV
 LUMO      8.1     0.026193 =       0.7128eV
 LUMO-HOMO         0.463117 =      12.6021eV


 **********************************************************************************************************************************
 DATASETS  * FILE   NREC   LENGTH (MB)   RECORD NAMES
              1      19      944.14       500      610      700      900      950      970     1000      129      960     1100   
                                          VAR    BASINP    GEOM    SYMINP    ZMAT    AOBASIS   BASIS     P2S    ABASIS      S 
                                         1400     1410     1200     1210     1080     1600     1650     1300     1700   
                                           T        V       H0       H01     AOSYM     SMH    MOLCAS    ERIS     OPER   

              2       4        3.27       700     1000      520     2100   
                                         GEOM     BASIS   MCVARS     RHF  

 PROGRAMS   *        TOTAL        HF       INT
 CPU TIMES  *        20.12      8.95     11.06
 REAL TIME  *        25.97 SEC
 DISK USED  *         3.13 GB      
 **********************************************************************************************************************************


 PROGRAM * CCSD (Closed-shell coupled cluster)     Authors: C. Hampel, H.-J. Werner, 1991, M. Deegan, P.J. Knowles, 1992


 Convergence thresholds:  THRVAR = 1.00D-08  THRDEN = 1.00D-12

 CCSD(T)     terms to be evaluated (factor= 1.000)


 Number of core orbitals:           2 (   2   0 )
 Number of closed-shell orbitals:   6 (   5   1 )
 Number of external orbitals:     198 ( 123  75 )

 Molecular orbitals read from record     2100.2  Type=RHF/CANONICAL (state 1.1)

 Number of N-1 electron functions:               6
 Number of N-2 electron functions:              21
 Number of singly external CSFs:               690
 Number of doubly external CSFs:            362646
 Total number of CSFs:                      363337

 Length of J-op  integral file:               0.00 MB
 Length of K-op  integral file:               1.60 MB
 Length of 3-ext integral record:             0.00 MB

 Memory could be reduced to 34.67 Mwords without degradation in triples

 Integral transformation finished. Total CPU:   1.52 sec, npass=  1  Memory used:   9.53 MW

 Reference energy:                   -129.84448863

 MP2 singlet pair energy:              -0.30360364
 MP2 triplet pair energy:              -0.17177369
 MP2 correlation energy:               -0.47537733
 MP2 total energy:                   -130.31986596

 SCS-MP2 correlation energy:           -0.47120577   (PS=  1.200000  PT=  0.333333)
 SCS-MP2 total energy:               -130.31569440

 ITER.      SQ.NORM     CORR.ENERGY   TOTAL ENERGY   ENERGY CHANGE        DEN1      VAR(S)    VAR(P)  DIIS     TIME  TIME/IT
   1      1.12308515    -0.47462480  -130.31911343     0.00075253     0.01801159  0.34D-02  0.34D-02  1  1     2.78     1.41
   2      1.13426818    -0.47441430  -130.31890294     0.00021049    -0.01300017  0.12D-03  0.52D-03  2  2     4.09     1.46
   3      1.14095709    -0.47482079  -130.31930942    -0.00040649    -0.00316684  0.54D-04  0.58D-04  3  3     5.44     1.47
   4      1.14393632    -0.47482900  -130.31931763    -0.00000821    -0.00099555  0.50D-05  0.10D-04  4  4     6.74     1.47
   5      1.14515785    -0.47486237  -130.31935100    -0.00003337    -0.00026506  0.12D-05  0.17D-05  5  5     8.06     1.48
   6      1.14554337    -0.47484519  -130.31933383     0.00001717    -0.00005613  0.12D-06  0.39D-06  6  6     9.41     1.49
   7      1.14561596    -0.47484589  -130.31933453    -0.00000070     0.00000353  0.16D-07  0.92D-07  6  1    10.75     1.49
   8      1.14563904    -0.47484599  -130.31933462    -0.00000010    -0.00000127  0.31D-08  0.19D-07  6  2    12.08     1.49
   9      1.14564384    -0.47484556  -130.31933419     0.00000043     0.00000113  0.26D-08  0.24D-08  6  4    13.40     1.49
  10      1.14564651    -0.47484594  -130.31933457    -0.00000038    -0.00000082  0.52D-09  0.30D-09  6  3    14.71     1.49
  11      1.14564634    -0.47484600  -130.31933463    -0.00000006    -0.00000017  0.17D-09  0.41D-10  6  5    16.04     1.49
  12      1.14564535    -0.47484615  -130.31933479    -0.00000016     0.00000038  0.21D-10  0.12D-10  6  6    17.37     1.49
  13      1.14564442    -0.47484620  -130.31933483    -0.00000004     0.00000023  0.64D-11  0.27D-11  6  1    18.68     1.49
  14      1.14564367    -0.47484624  -130.31933487    -0.00000004     0.00000017  0.35D-12  0.60D-12  6  4    19.91     1.49
  15      1.14564344    -0.47484624  -130.31933488    -0.00000001     0.00000004  0.82D-13  0.47D-13  6  2    21.26     1.49
  16      1.14564338    -0.47484625  -130.31933488    -0.00000000     0.00000001  0.21D-13  0.84D-14  6  3    22.61     1.49
  17      1.14564334    -0.47484625  -130.31933488    -0.00000000     0.00000001  0.41D-14  0.11D-14  6  5    23.90     1.49
  18      1.14564334    -0.47484625  -130.31933488    -0.00000000     0.00000000  0.91D-15  0.26D-15  6  6    25.21     1.49
  19      1.14564334    -0.47484625  -130.31933488    -0.00000000     0.00000000  0.13D-15  0.53D-16  6  1    26.49     1.49
  20      1.14564334    -0.47484625  -130.31933488     0.00000000    -0.00000000  0.11D-16  0.79D-17  6  4    27.82     1.49
  21      1.14564334    -0.47484625  -130.31933488     0.00000000    -0.00000000  0.56D-18  0.59D-18  6  3    29.13     1.49
  22      1.14564334    -0.47484625  -130.31933488     0.00000000    -0.00000000  0.14D-18  0.78D-19  6  2    30.48     1.49
  23      1.14564334    -0.47484625  -130.31933488     0.00000000     0.00000000  0.42D-19  0.28D-19  6  5    31.83     1.49
  24      1.14564334    -0.47484625  -130.31933488    -0.00000000     0.00000000  0.44D-20  0.63D-20  6  1    33.11     1.49

 Norm of t1 vector:      0.07980748      S-energy:     0.00000000      T1 diagnostic:  0.01629063
                                                                       D1 diagnostic:  0.04467301

 Doubles amplitudes (print threshold =  0.500E-01):

         I         J         SYM. A    SYM. B    A         B      T(IJ, AB)

         6         6         2         2         1         1     -0.10863219


 Total CPU time for triples:     17.60 sec


 RESULTS
 =======

  Reference energy                   -129.844488632853
  CCSD singlet pair energy             -0.328655429071
  CCSD triplet pair energy             -0.146190818447
  CCSD correlation energy              -0.474846247517

  Triples (T) contribution             -0.022972345250
  Total correlation energy             -0.497818592767

  CCSD total energy                  -130.319334880370
  CCSD[T] energy                     -130.343464076320
  CCSD-T energy                      -130.341902646021
 !CCSD(T) total energy               -130.342307225620

 Timing summary (sec):

 STEP                 CPU(USER)    SYS     CPU(TOT)    WALL
 Transformation          1.53      0.28      1.81      1.82
 CCSD iterations        31.58      4.21     35.79     35.82
 Triples                17.60      0.43     18.03     18.03

 Program statistics:

 Available memory in ccsd:               994999756
 Min. memory needed in ccsd:               1265322
 Max. memory used in ccsd:                 1555950
 Max. memory used in cckext:               2415326 (24 integral passes)



 **********************************************************************************************************************************
 DATASETS  * FILE   NREC   LENGTH (MB)   RECORD NAMES
              1      20     1044.69       500      610      700      900      950      970     1000      129      960     1100   
                                          VAR    BASINP    GEOM    SYMINP    ZMAT    AOBASIS   BASIS     P2S    ABASIS      S 
                                         1400     1410     1200     1210     1080     1600     1650     1300     1700     1380   
                                           T        V       H0       H01     AOSYM     SMH    MOLCAS    ERIS     OPER     JKOP   

              2       4        3.27       700     1000      520     2100   
                                         GEOM     BASIS   MCVARS     RHF  

 PROGRAMS   *        TOTAL   CCSD(T)        HF       INT
 CPU TIMES  *        70.84     50.71      8.95     11.06
 REAL TIME  *        81.67 SEC
 DISK USED  *         3.13 GB      
 **********************************************************************************************************************************

 CCSD(T)/aug-cc-pVQZ energy=   -130.342307225620

        CCSD(T)         HF-SCF  
   -130.34230723   -129.84448863
 **********************************************************************************************************************************
 Molpro calculation terminated
 Variable memory released
