
 Primary working directories    : /tmp/r2666/234858.maple
 Secondary working directories  : /tmp/r2666/234858.maple
 Wavefunction directory         : /ddn/home4/r2666/wfu/
 Main file repository           : /tmp/r2666/234858.maple/

 SHA1      : d5ffa45e93fdbca01ffc919aa182cfdae0147319
 NAME      : 2015.1.35
 ARCHNAME  : linux/x86_64
 FC        : /opt/intel/composer_xe_2015.1.133/bin/intel64/ifort
 BLASLIB   : -Wl,-_start-group /opt/intel/mkl/lib/intel64/libmkl_intel_ilp64.a /opt/intel/mkl/lib/intel64/libmkl_intel_thread.a /opt/intel/mkl/lib/intel64/libmkl_core.a -Wl,-_end-group
 id        : olemiss

 Nodes     nprocs
 cn033        1

 Using customized tuning parameters: mindgm=1; mindgv=20; mindgc=4; mindgr=1; noblas=0; minvec=7
 default implementation of scratch files=df  

 ***,hno CCSD(T)/TZ-F12 QFF
 memory, 995, m;
 gthresh,energy=1.d-12,zero=1.d-22,oneint=1.d-22,twoint=1.d-22;
 gthresh,optgrad=1.d-8,optstep=1.d-8;
 nocompress;
 geomtyp=xyz
 bohr
 geometry={
 3
        101       101
 N        0.0000000000       -0.1751165026       -1.1630602634
 H        0.0000000000        1.6725120167       -1.9222012041
 O        0.0000000000        0.0443722760        1.1346718765
 }
 
 basis=avqz
   {hf,maxit=500;accu,20;}
 {ccsd(t),nocheck,maxit=250;orbital,IGNORE_ERROR;}

 Variables initialized (889), CPU time= 0.01 sec
 Commands  initialized (702), CPU time= 0.01 sec, 572 directives.
 Default parameters read. Elapsed time= 0.06 sec

 Checking input...
 Passed
1


                                         ***  PROGRAM SYSTEM MOLPRO  ***
                                       Copyright, TTI GmbH Stuttgart, 2015
                                    Version 2015.1 linked Jul  9 2018 13:16:40


 **********************************************************************************************************************************
 LABEL *   hno CCSD(T)/TZ-F12 QFF                                                        
  64 bit serial version                                                                  DATE: 08-Feb-20          TIME: 17:54:42  
 **********************************************************************************************************************************

 SHA1:             d5ffa45e93fdbca01ffc919aa182cfdae0147319
 **********************************************************************************************************************************

 THRESHOLDS:

 ZERO    =  1.00D-22  ONEINT  =  1.00D-22  TWOINT  =  1.00D-22  PREFAC  =  1.00D-14  LOCALI  =  1.00D-09  EORDER  =  1.00D-04
 ENERGY  =  1.00D-12  ETEST   =  0.00D+00  EDENS   =  0.00D+00  THRDEDEF=  1.00D-06  GRADIENT=  1.00D-02  STEP    =  1.00D-03
 ORBITAL =  1.00D-05  CIVEC   =  1.00D-05  COEFF   =  1.00D-04  PRINTCI =  5.00D-02  PUNCHCI =  9.90D+01  OPTGRAD =  3.00D-04
 OPTENERG=  1.00D-06  OPTSTEP =  3.00D-04  THRGRAD =  1.00D-10  COMPRESS=  1.00D-11  VARMIN  =  1.00D-07  VARMAX  =  1.00D-03
 THRDOUB =  0.00D+00  THRDIV  =  1.00D-05  THRRED  =  1.00D-07  THRPSP  =  1.00D+00  THRDC   =  1.00D-10  THRCS   =  1.00D-10
 THRNRM  =  1.00D-08  THREQ   =  0.00D+00  THRDE   =  1.00D+00  THRREF  =  1.00D-05  SPARFAC =  1.00D+00  THRDLP  =  1.00D-07
 THRDIA  =  1.00D-10  THRDLS  =  1.00D-07  THRGPS  =  0.00D+00  THRKEX  =  0.00D+00  THRDIS  =  2.00D-01  THRVAR  =  1.00D-10
 THRLOC  =  1.00D-06  THRGAP  =  1.00D-06  THRLOCT = -1.00D+00  THRGAPT = -1.00D+00  THRORB  =  1.00D-06  THRMLTP =  0.00D+00
 THRCPQCI=  1.00D-10  KEXTA   =  0.00D+00  THRCOARS=  0.00D+00  SYMTOL  =  1.00D-06  GRADTOL =  1.00D-06  THROVL  =  1.00D-08
 THRORTH =  1.00D-08  GRID    =  1.00D-06  GRIDMAX =  1.00D-03  DTMAX   =  0.00D+00  THROCCDE=  1.00D-01  THROCCDE=  1.00D-01



 THRESHOLDS:

 ZERO    =  1.00D-22  ONEINT  =  1.00D-22  TWOINT  =  1.00D-22  PREFAC  =  1.00D-14  LOCALI  =  1.00D-09  EORDER  =  1.00D-04
 ENERGY  =  1.00D-12  ETEST   =  0.00D+00  EDENS   =  0.00D+00  THRDEDEF=  1.00D-06  GRADIENT=  1.00D-02  STEP    =  1.00D-03
 ORBITAL =  1.00D-05  CIVEC   =  1.00D-05  COEFF   =  1.00D-04  PRINTCI =  5.00D-02  PUNCHCI =  9.90D+01  OPTGRAD =  1.00D-08
 OPTENERG=  1.00D-06  OPTSTEP =  1.00D-08  THRGRAD =  1.00D-10  COMPRESS=  1.00D-11  VARMIN  =  1.00D-07  VARMAX  =  1.00D-03
 THRDOUB =  0.00D+00  THRDIV  =  1.00D-05  THRRED  =  1.00D-07  THRPSP  =  1.00D+00  THRDC   =  1.00D-10  THRCS   =  1.00D-10
 THRNRM  =  1.00D-08  THREQ   =  0.00D+00  THRDE   =  1.00D+00  THRREF  =  1.00D-05  SPARFAC =  1.00D+00  THRDLP  =  1.00D-07
 THRDIA  =  1.00D-10  THRDLS  =  1.00D-07  THRGPS  =  0.00D+00  THRKEX  =  0.00D+00  THRDIS  =  2.00D-01  THRVAR  =  1.00D-10
 THRLOC  =  1.00D-06  THRGAP  =  1.00D-06  THRLOCT = -1.00D+00  THRGAPT = -1.00D+00  THRORB  =  1.00D-06  THRMLTP =  0.00D+00
 THRCPQCI=  1.00D-10  KEXTA   =  0.00D+00  THRCOARS=  0.00D+00  SYMTOL  =  1.00D-06  GRADTOL =  1.00D-06  THROVL  =  1.00D-08
 THRORTH =  1.00D-08  GRID    =  1.00D-06  GRIDMAX =  1.00D-03  DTMAX   =  0.00D+00  THROCCDE=  1.00D-01  THROCCDE=  1.00D-01



 Input parameters for SORTINT:

 COMPRESS =    0.000000
 C_FINAL  =    1.000000
 DEBUG    =   -1.000000
 C_SORT1  =    0.000000
 C_SEWARD =    0.000000
 THRESH   =    0.000000
 IO       =  molpro                                                          
 SPRI     =    0.000000
 SETTING GEOMTYP        =    XYZ
 ZUNIT=BOHR
 

 Variable memory set to  995000000 words,  buffer space   230000 words

 SETTING BASIS          =    AVQZ


 Recomputing integrals since basis changed


 Using spherical harmonics

 Library entry N      S aug-cc-pVQZ          selected for orbital group  1
 Library entry N      P aug-cc-pVQZ          selected for orbital group  1
 Library entry N      D aug-cc-pVQZ          selected for orbital group  1
 Library entry N      F aug-cc-pVQZ          selected for orbital group  1
 Library entry N      G aug-cc-pVQZ          selected for orbital group  1
 Library entry H      S aug-cc-pVQZ          selected for orbital group  2
 Library entry H      P aug-cc-pVQZ          selected for orbital group  2
 Library entry H      D aug-cc-pVQZ          selected for orbital group  2
 Library entry H      F aug-cc-pVQZ          selected for orbital group  2
 Library entry O      S aug-cc-pVQZ          selected for orbital group  3
 Library entry O      P aug-cc-pVQZ          selected for orbital group  3
 Library entry O      D aug-cc-pVQZ          selected for orbital group  3
 Library entry O      F aug-cc-pVQZ          selected for orbital group  3
 Library entry O      G aug-cc-pVQZ          selected for orbital group  3


 PROGRAM * SEWARD (Integral evaluation for generally contracted gaussian basis sets)     Author: Roland Lindh, 1990

 Geometry written to block  1 of record 700


 Point group  Cs  



 ATOMIC COORDINATES

 NR  ATOM    CHARGE       X              Y              Z

   1  N       7.00    0.000000000   -0.175116503   -1.163060263
   2  H       1.00    0.000000000    1.672512017   -1.922201204
   3  O       8.00    0.000000000    0.044372276    1.134671876

 Bond lengths in Bohr (Angstrom)

 1-2  1.997504972  1-3  2.308191567
     ( 1.057034110)     ( 1.221442376)

 Bond angles

  2-1-3  106.87987339

 NUCLEAR CHARGE:                   16
 NUMBER OF PRIMITIVE AOS:         293
 NUMBER OF SYMMETRY AOS:          234
 NUMBER OF CONTRACTIONS:          206   ( 130A'  +  76A"  )
 NUMBER OF CORE ORBITALS:           2   (   2A'  +   0A"  )
 NUMBER OF VALENCE ORBITALS:        9   (   7A'  +   2A"  )


 NUCLEAR REPULSION ENERGY   30.07564187

 Eigenvalues of metric

         1 0.611E-04 0.150E-03 0.323E-03 0.439E-03 0.617E-03 0.699E-03 0.103E-02 0.110E-02
         2 0.861E-03 0.166E-02 0.516E-02 0.901E-02 0.102E-01 0.126E-01 0.130E-01 0.195E-01


 Contracted 2-electron integrals neglected if value below      1.0D-22

      109945100. INTEGRALS WRITTEN OUT IN   26849 BLOCKS ON RECORD 1290 OF FILE 1


 NUMBER OF SORTED TWO-ELECTRON INTEGRALS:  115283741.     BUFFER LENGTH:  32768
 NUMBER OF SEGMENTS:   8  SEGMENT LENGTH:   15998004      RECORD LENGTH: 524288

 Memory used in sort:      16.56 MW

 SORT1 READ   109945100. AND WROTE   110865267. INTEGRALS IN    322 RECORDS. CPU TIME:     3.15 SEC, REAL TIME:     3.98 SEC
 SORT2 READ   110865267. AND WROTE   115283741. INTEGRALS IN      8 RECORDS. CPU TIME:     1.44 SEC, REAL TIME:     2.04 SEC

 FILE SIZES:   FILE 1:  1780.6 MBYTE,  FILE 4:  1350.6 MBYTE,   TOTAL:   3131.2 MBYTE

 OPERATOR DM      FOR CENTER  0  COORDINATES:    0.000000    0.000000    0.000000


 **********************************************************************************************************************************
 DATASETS  * FILE   NREC   LENGTH (MB)   RECORD NAMES
              1      19      944.14       500      610      700      900      950      970     1000      129      960     1100   
                                          VAR    BASINP    GEOM    SYMINP    ZMAT    AOBASIS   BASIS     P2S    ABASIS      S 
                                         1400     1410     1200     1210     1080     1600     1650     1300     1700   
                                           T        V       H0       H01     AOSYM     SMH    MOLCAS    ERIS     OPER   

 PROGRAMS   *        TOTAL       INT
 CPU TIMES  *        15.59     15.49
 REAL TIME  *        18.73 SEC
 DISK USED  *         3.13 GB      
 **********************************************************************************************************************************


 PROGRAM * RHF-SCF (CLOSED SHELL)       Authors: W. Meyer, H.-J. Werner


 NUMBER OF ELECTRONS:       8+    8-
 CONVERGENCE THRESHOLDS:    1.00E-10 (Density)    1.00E-13 (Energy)
 MAX. NUMBER OF ITERATIONS:      500
 INTERPOLATION TYPE:            DIIS
 INTERPOLATION STEPS:              2 (START)      1 (STEP)
 LEVEL SHIFTS:                  0.00 (CLOSED)  0.00 (OPEN) 



 Orbital guess generated from atomic densities. Full valence occupancy:    9   2

 Molecular orbital dump at record        2100.2

 Initial occupancy:   7   1

 ITERATION    DDIFF          GRAD             ENERGY        2-EL.EN.            DIPOLE MOMENTS         DIIS   ORB.
    1      0.000D+00      0.000D+00      -129.79190598    153.439019    0.00000    0.58537   -1.06823    0    start
    2      0.000D+00      0.827D-02      -129.81867983    154.641978    0.00000    0.61963   -0.19270    1    diag
    3      0.676D-02      0.652D-02      -129.84433073    154.796208    0.00000    0.55589   -0.60811    2    diag
    4      0.349D-02      0.984D-03      -129.84516240    154.500343    0.00000    0.56359   -0.54487    3    diag
    5      0.615D-03      0.324D-03      -129.84529586    154.595242    0.00000    0.56885   -0.54712    4    diag
    6      0.260D-03      0.941D-04      -129.84531738    154.578764    0.00000    0.56904   -0.54265    5    diag
    7      0.997D-04      0.474D-04      -129.84532386    154.581428    0.00000    0.57025   -0.53982    6    diag
    8      0.695D-04      0.173D-04      -129.84532468    154.580664    0.00000    0.57028   -0.53868    7    diag
    9      0.287D-04      0.336D-05      -129.84532472    154.580535    0.00000    0.57024   -0.53843    8    diag
   10      0.586D-05      0.736D-06      -129.84532472    154.580517    0.00000    0.57021   -0.53840    9    orth
   11      0.106D-05      0.145D-06      -129.84532472    154.580513    0.00000    0.57020   -0.53840    9    diag
   12      0.188D-06      0.306D-07      -129.84532472    154.580513    0.00000    0.57020   -0.53840    9    diag
   13      0.413D-07      0.820D-08      -129.84532472    154.580513    0.00000    0.57020   -0.53840    9    diag
   14      0.118D-07      0.160D-08      -129.84532472    154.580513    0.00000    0.57020   -0.53840    9    diag
   15      0.209D-08      0.451D-09      -129.84532472    154.580513    0.00000    0.57020   -0.53840    9    diag
   16      0.635D-09      0.130D-09      -129.84532472    154.580513    0.00000    0.57020   -0.53840    9    diag
   17      0.112D-09      0.332D-10      -129.84532472    154.580513    0.00000    0.57020   -0.53840    9    diag
   18      0.305D-10      0.109D-10      -129.84532472    154.580513    0.00000    0.57020   -0.53840    9    diag
   19      0.144D-10      0.245D-11      -129.84532472    154.580513    0.00000    0.57020   -0.53840    9    fixocc
   20      0.398D-11      0.393D-12      -129.84532472    154.580513    0.00000    0.57020   -0.53840    0    orth

 Final occupancy:   7   1

 !RHF STATE 1.1 Energy               -129.845324718679
 Nuclear energy                        30.07564187
 One-electron energy                 -237.21122317
 Two-electron energy                   77.29025658
 Virial quotient                       -1.00215752
 !RHF STATE 1.1 Dipole moment           0.00000000     0.57020082    -0.53840235
 Dipole moment /Debye                   0.00000000     1.44921099    -1.36839265

 Orbital energies:

         1.1          2.1          3.1          4.1          5.1          6.1          7.1          8.1          9.1
    -20.654720   -15.715863    -1.519312    -0.995629    -0.742633    -0.662040    -0.435156     0.026286     0.079466

         1.2          2.2          3.2
     -0.590002     0.060028     0.110050

 HOMO      7.1    -0.435156 =     -11.8412eV
 LUMO      8.1     0.026286 =       0.7153eV
 LUMO-HOMO         0.461442 =      12.5565eV


 **********************************************************************************************************************************
 DATASETS  * FILE   NREC   LENGTH (MB)   RECORD NAMES
              1      19      944.14       500      610      700      900      950      970     1000      129      960     1100   
                                          VAR    BASINP    GEOM    SYMINP    ZMAT    AOBASIS   BASIS     P2S    ABASIS      S 
                                         1400     1410     1200     1210     1080     1600     1650     1300     1700   
                                           T        V       H0       H01     AOSYM     SMH    MOLCAS    ERIS     OPER   

              2       4        3.27       700     1000      520     2100   
                                         GEOM     BASIS   MCVARS     RHF  

 PROGRAMS   *        TOTAL        HF       INT
 CPU TIMES  *        26.89     11.30     15.49
 REAL TIME  *        33.67 SEC
 DISK USED  *         3.13 GB      
 **********************************************************************************************************************************


 PROGRAM * CCSD (Closed-shell coupled cluster)     Authors: C. Hampel, H.-J. Werner, 1991, M. Deegan, P.J. Knowles, 1992


 Convergence thresholds:  THRVAR = 1.00D-08  THRDEN = 1.00D-12

 CCSD(T)     terms to be evaluated (factor= 1.000)


 Number of core orbitals:           2 (   2   0 )
 Number of closed-shell orbitals:   6 (   5   1 )
 Number of external orbitals:     198 ( 123  75 )

 Molecular orbitals read from record     2100.2  Type=RHF/CANONICAL (state 1.1)

 Number of N-1 electron functions:               6
 Number of N-2 electron functions:              21
 Number of singly external CSFs:               690
 Number of doubly external CSFs:            362646
 Total number of CSFs:                      363337

 Length of J-op  integral file:               0.00 MB
 Length of K-op  integral file:               1.60 MB
 Length of 3-ext integral record:             0.00 MB

 Memory could be reduced to 34.67 Mwords without degradation in triples

 Integral transformation finished. Total CPU:   1.81 sec, npass=  1  Memory used:   9.53 MW

 Reference energy:                   -129.84532472

 MP2 singlet pair energy:              -0.30312467
 MP2 triplet pair energy:              -0.17144252
 MP2 correlation energy:               -0.47456719
 MP2 total energy:                   -130.31989191

 SCS-MP2 correlation energy:           -0.47042495   (PS=  1.200000  PT=  0.333333)
 SCS-MP2 total energy:               -130.31574966

 ITER.      SQ.NORM     CORR.ENERGY   TOTAL ENERGY   ENERGY CHANGE        DEN1      VAR(S)    VAR(P)  DIIS     TIME  TIME/IT
   1      1.12262437    -0.47403655  -130.31936127     0.00053063     0.01756541  0.33D-02  0.34D-02  1  1     3.38     1.72
   2      1.13368336    -0.47387695  -130.31920167     0.00015960    -0.01287049  0.11D-03  0.51D-03  2  2     4.97     1.75
   3      1.14027396    -0.47427650  -130.31960122    -0.00039954    -0.00314052  0.52D-04  0.57D-04  3  3     6.57     1.77
   4      1.14318624    -0.47428399  -130.31960871    -0.00000749    -0.00097955  0.48D-05  0.10D-04  4  4     8.19     1.77
   5      1.14436672    -0.47431634  -130.31964106    -0.00003235    -0.00025699  0.12D-05  0.16D-05  5  5     9.83     1.78
   6      1.14474075    -0.47429989  -130.31962461     0.00001645    -0.00005438  0.12D-06  0.38D-06  6  6    11.43     1.78
   7      1.14481291    -0.47430044  -130.31962516    -0.00000055     0.00000320  0.17D-07  0.89D-07  6  1    13.07     1.78
   8      1.14483584    -0.47430057  -130.31962529    -0.00000014    -0.00000125  0.31D-08  0.19D-07  6  2    14.69     1.78
   9      1.14484075    -0.47430015  -130.31962486     0.00000043     0.00000107  0.25D-08  0.22D-08  6  4    16.33     1.79
  10      1.14484336    -0.47430052  -130.31962524    -0.00000038    -0.00000079  0.49D-09  0.28D-09  6  3    17.91     1.79
  11      1.14484316    -0.47430058  -130.31962530    -0.00000006    -0.00000015  0.16D-09  0.38D-10  6  5    19.56     1.79
  12      1.14484218    -0.47430073  -130.31962545    -0.00000015     0.00000037  0.20D-10  0.12D-10  6  6    21.17     1.79
  13      1.14484129    -0.47430078  -130.31962549    -0.00000004     0.00000022  0.61D-11  0.25D-11  6  1    22.82     1.79
  14      1.14484058    -0.47430081  -130.31962553    -0.00000004     0.00000017  0.36D-12  0.55D-12  6  4    24.47     1.80
  15      1.14484035    -0.47430082  -130.31962554    -0.00000001     0.00000004  0.85D-13  0.42D-13  6  2    26.11     1.80
  16      1.14484030    -0.47430082  -130.31962554    -0.00000000     0.00000001  0.23D-13  0.77D-14  6  3    27.75     1.80
  17      1.14484027    -0.47430082  -130.31962554    -0.00000000     0.00000001  0.42D-14  0.10D-14  6  5    29.40     1.80
  18      1.14484026    -0.47430082  -130.31962554    -0.00000000     0.00000000  0.90D-15  0.27D-15  6  6    30.99     1.80
  19      1.14484026    -0.47430082  -130.31962554    -0.00000000     0.00000000  0.12D-15  0.53D-16  6  1    32.61     1.80
  20      1.14484026    -0.47430082  -130.31962554     0.00000000    -0.00000000  0.10D-16  0.78D-17  6  4    34.24     1.80
  21      1.14484027    -0.47430082  -130.31962554     0.00000000    -0.00000000  0.54D-18  0.58D-18  6  3    35.98     1.81
  22      1.14484027    -0.47430082  -130.31962554     0.00000000    -0.00000000  0.13D-18  0.90D-19  6  2    37.70     1.81
  23      1.14484027    -0.47430082  -130.31962554     0.00000000     0.00000000  0.41D-19  0.33D-19  6  5    39.37     1.81
  24      1.14484027    -0.47430082  -130.31962554    -0.00000000     0.00000000  0.38D-20  0.75D-20  6  1    41.08     1.81

 Norm of t1 vector:      0.07891431      S-energy:    -0.00000000      T1 diagnostic:  0.01610832
                                                                       D1 diagnostic:  0.04387081

 Doubles amplitudes (print threshold =  0.500E-01):

         I         J         SYM. A    SYM. B    A         B      T(IJ, AB)

         6         6         2         2         1         1     -0.10572217


 Total CPU time for triples:     17.70 sec


 RESULTS
 =======

  Reference energy                   -129.845324718679
  CCSD singlet pair energy             -0.328178718619
  CCSD triplet pair energy             -0.146122103240
  CCSD correlation energy              -0.474300821860

  Triples (T) contribution             -0.022816288498
  Total correlation energy             -0.497117110357

  CCSD total energy                  -130.319625540539
  CCSD[T] energy                     -130.343574940624
  CCSD-T energy                      -130.342041880076
 !CCSD(T) total energy               -130.342441829036

 Timing summary (sec):

 STEP                 CPU(USER)    SYS     CPU(TOT)    WALL
 Transformation          1.83      0.33      2.16      2.49
 CCSD iterations        39.25      4.28     43.53     43.54
 Triples                17.70      0.49     18.19     18.19

 Program statistics:

 Available memory in ccsd:               994999756
 Min. memory needed in ccsd:               1265322
 Max. memory used in ccsd:                 1555950
 Max. memory used in cckext:               2415326 (24 integral passes)



 **********************************************************************************************************************************
 DATASETS  * FILE   NREC   LENGTH (MB)   RECORD NAMES
              1      20     1044.69       500      610      700      900      950      970     1000      129      960     1100   
                                          VAR    BASINP    GEOM    SYMINP    ZMAT    AOBASIS   BASIS     P2S    ABASIS      S 
                                         1400     1410     1200     1210     1080     1600     1650     1300     1700     1380   
                                           T        V       H0       H01     AOSYM     SMH    MOLCAS    ERIS     OPER     JKOP   

              2       4        3.27       700     1000      520     2100   
                                         GEOM     BASIS   MCVARS     RHF  

 PROGRAMS   *        TOTAL   CCSD(T)        HF       INT
 CPU TIMES  *        85.69     58.80     11.30     15.49
 REAL TIME  *        97.97 SEC
 DISK USED  *         3.13 GB      
 **********************************************************************************************************************************

 CCSD(T)/aug-cc-pVQZ energy=   -130.342441829036

        CCSD(T)         HF-SCF  
   -130.34244183   -129.84532472
 **********************************************************************************************************************************
 Molpro calculation terminated
 Variable memory released
