
 Primary working directories    : /tmp/r2666/234855.maple
 Secondary working directories  : /tmp/r2666/234855.maple
 Wavefunction directory         : /ddn/home4/r2666/wfu/
 Main file repository           : /tmp/r2666/234855.maple/

 SHA1      : d5ffa45e93fdbca01ffc919aa182cfdae0147319
 NAME      : 2015.1.35
 ARCHNAME  : linux/x86_64
 FC        : /opt/intel/composer_xe_2015.1.133/bin/intel64/ifort
 BLASLIB   : -Wl,-_start-group /opt/intel/mkl/lib/intel64/libmkl_intel_ilp64.a /opt/intel/mkl/lib/intel64/libmkl_intel_thread.a /opt/intel/mkl/lib/intel64/libmkl_core.a -Wl,-_end-group
 id        : olemiss

 Nodes     nprocs
 cn037        1

 Using customized tuning parameters: mindgm=1; mindgv=20; mindgc=4; mindgr=1; noblas=0; minvec=7
 default implementation of scratch files=df  

 ***,hno CCSD(T)/TZ-F12 QFF
 memory, 995, m;
 gthresh,energy=1.d-12,zero=1.d-22,oneint=1.d-22,twoint=1.d-22;
 gthresh,optgrad=1.d-8,optstep=1.d-8;
 nocompress;
 geomtyp=xyz
 bohr
 geometry={
 3
         98        98
 N        0.0000000000       -0.1664826883       -1.1458850272
 H        0.0000000000        1.6709850702       -1.9292995724
 O        0.0000000000        0.0372654081        1.1245950087
 }
 
 basis=avqz
   {hf,maxit=500;accu,20;}
 {ccsd(t),nocheck,maxit=250;orbital,IGNORE_ERROR;}

 Variables initialized (889), CPU time= 0.00 sec
 Commands  initialized (702), CPU time= 0.01 sec, 572 directives.
 Default parameters read. Elapsed time= 0.05 sec

 Checking input...
 Passed
1


                                         ***  PROGRAM SYSTEM MOLPRO  ***
                                       Copyright, TTI GmbH Stuttgart, 2015
                                    Version 2015.1 linked Jul  9 2018 13:16:40


 **********************************************************************************************************************************
 LABEL *   hno CCSD(T)/TZ-F12 QFF                                                        
  64 bit serial version                                                                  DATE: 08-Feb-20          TIME: 17:54:31  
 **********************************************************************************************************************************

 SHA1:             d5ffa45e93fdbca01ffc919aa182cfdae0147319
 **********************************************************************************************************************************

 THRESHOLDS:

 ZERO    =  1.00D-22  ONEINT  =  1.00D-22  TWOINT  =  1.00D-22  PREFAC  =  1.00D-14  LOCALI  =  1.00D-09  EORDER  =  1.00D-04
 ENERGY  =  1.00D-12  ETEST   =  0.00D+00  EDENS   =  0.00D+00  THRDEDEF=  1.00D-06  GRADIENT=  1.00D-02  STEP    =  1.00D-03
 ORBITAL =  1.00D-05  CIVEC   =  1.00D-05  COEFF   =  1.00D-04  PRINTCI =  5.00D-02  PUNCHCI =  9.90D+01  OPTGRAD =  3.00D-04
 OPTENERG=  1.00D-06  OPTSTEP =  3.00D-04  THRGRAD =  1.00D-10  COMPRESS=  1.00D-11  VARMIN  =  1.00D-07  VARMAX  =  1.00D-03
 THRDOUB =  0.00D+00  THRDIV  =  1.00D-05  THRRED  =  1.00D-07  THRPSP  =  1.00D+00  THRDC   =  1.00D-10  THRCS   =  1.00D-10
 THRNRM  =  1.00D-08  THREQ   =  0.00D+00  THRDE   =  1.00D+00  THRREF  =  1.00D-05  SPARFAC =  1.00D+00  THRDLP  =  1.00D-07
 THRDIA  =  1.00D-10  THRDLS  =  1.00D-07  THRGPS  =  0.00D+00  THRKEX  =  0.00D+00  THRDIS  =  2.00D-01  THRVAR  =  1.00D-10
 THRLOC  =  1.00D-06  THRGAP  =  1.00D-06  THRLOCT = -1.00D+00  THRGAPT = -1.00D+00  THRORB  =  1.00D-06  THRMLTP =  0.00D+00
 THRCPQCI=  1.00D-10  KEXTA   =  0.00D+00  THRCOARS=  0.00D+00  SYMTOL  =  1.00D-06  GRADTOL =  1.00D-06  THROVL  =  1.00D-08
 THRORTH =  1.00D-08  GRID    =  1.00D-06  GRIDMAX =  1.00D-03  DTMAX   =  0.00D+00  THROCCDE=  1.00D-01  THROCCDE=  1.00D-01



 THRESHOLDS:

 ZERO    =  1.00D-22  ONEINT  =  1.00D-22  TWOINT  =  1.00D-22  PREFAC  =  1.00D-14  LOCALI  =  1.00D-09  EORDER  =  1.00D-04
 ENERGY  =  1.00D-12  ETEST   =  0.00D+00  EDENS   =  0.00D+00  THRDEDEF=  1.00D-06  GRADIENT=  1.00D-02  STEP    =  1.00D-03
 ORBITAL =  1.00D-05  CIVEC   =  1.00D-05  COEFF   =  1.00D-04  PRINTCI =  5.00D-02  PUNCHCI =  9.90D+01  OPTGRAD =  1.00D-08
 OPTENERG=  1.00D-06  OPTSTEP =  1.00D-08  THRGRAD =  1.00D-10  COMPRESS=  1.00D-11  VARMIN  =  1.00D-07  VARMAX  =  1.00D-03
 THRDOUB =  0.00D+00  THRDIV  =  1.00D-05  THRRED  =  1.00D-07  THRPSP  =  1.00D+00  THRDC   =  1.00D-10  THRCS   =  1.00D-10
 THRNRM  =  1.00D-08  THREQ   =  0.00D+00  THRDE   =  1.00D+00  THRREF  =  1.00D-05  SPARFAC =  1.00D+00  THRDLP  =  1.00D-07
 THRDIA  =  1.00D-10  THRDLS  =  1.00D-07  THRGPS  =  0.00D+00  THRKEX  =  0.00D+00  THRDIS  =  2.00D-01  THRVAR  =  1.00D-10
 THRLOC  =  1.00D-06  THRGAP  =  1.00D-06  THRLOCT = -1.00D+00  THRGAPT = -1.00D+00  THRORB  =  1.00D-06  THRMLTP =  0.00D+00
 THRCPQCI=  1.00D-10  KEXTA   =  0.00D+00  THRCOARS=  0.00D+00  SYMTOL  =  1.00D-06  GRADTOL =  1.00D-06  THROVL  =  1.00D-08
 THRORTH =  1.00D-08  GRID    =  1.00D-06  GRIDMAX =  1.00D-03  DTMAX   =  0.00D+00  THROCCDE=  1.00D-01  THROCCDE=  1.00D-01



 Input parameters for SORTINT:

 COMPRESS =    0.000000
 C_FINAL  =    1.000000
 DEBUG    =   -1.000000
 C_SORT1  =    0.000000
 C_SEWARD =    0.000000
 THRESH   =    0.000000
 IO       =  molpro                                                          
 SPRI     =    0.000000
 SETTING GEOMTYP        =    XYZ
 ZUNIT=BOHR
 

 Variable memory set to  995000000 words,  buffer space   230000 words

 SETTING BASIS          =    AVQZ


 Recomputing integrals since basis changed


 Using spherical harmonics

 Library entry N      S aug-cc-pVQZ          selected for orbital group  1
 Library entry N      P aug-cc-pVQZ          selected for orbital group  1
 Library entry N      D aug-cc-pVQZ          selected for orbital group  1
 Library entry N      F aug-cc-pVQZ          selected for orbital group  1
 Library entry N      G aug-cc-pVQZ          selected for orbital group  1
 Library entry H      S aug-cc-pVQZ          selected for orbital group  2
 Library entry H      P aug-cc-pVQZ          selected for orbital group  2
 Library entry H      D aug-cc-pVQZ          selected for orbital group  2
 Library entry H      F aug-cc-pVQZ          selected for orbital group  2
 Library entry O      S aug-cc-pVQZ          selected for orbital group  3
 Library entry O      P aug-cc-pVQZ          selected for orbital group  3
 Library entry O      D aug-cc-pVQZ          selected for orbital group  3
 Library entry O      F aug-cc-pVQZ          selected for orbital group  3
 Library entry O      G aug-cc-pVQZ          selected for orbital group  3


 PROGRAM * SEWARD (Integral evaluation for generally contracted gaussian basis sets)     Author: Roland Lindh, 1990

 Geometry written to block  1 of record 700


 Point group  Cs  



 ATOMIC COORDINATES

 NR  ATOM    CHARGE       X              Y              Z

   1  N       7.00    0.000000000   -0.166482688   -1.145885027
   2  H       1.00    0.000000000    1.670985070   -1.929299572
   3  O       8.00    0.000000000    0.037265408    1.124595009

 Bond lengths in Bohr (Angstrom)

 1-2  1.997504972  1-3  2.279603667
     ( 1.057034110)     ( 1.206314311)

 Bond angles

  2-1-3  107.96337666

 NUCLEAR CHARGE:                   16
 NUMBER OF PRIMITIVE AOS:         293
 NUMBER OF SYMMETRY AOS:          234
 NUMBER OF CONTRACTIONS:          206   ( 130A'  +  76A"  )
 NUMBER OF CORE ORBITALS:           2   (   2A'  +   0A"  )
 NUMBER OF VALENCE ORBITALS:        9   (   7A'  +   2A"  )


 NUCLEAR REPULSION ENERGY   30.37989782

 Eigenvalues of metric

         1 0.597E-04 0.146E-03 0.318E-03 0.435E-03 0.587E-03 0.688E-03 0.101E-02 0.108E-02
         2 0.820E-03 0.165E-02 0.495E-02 0.894E-02 0.102E-01 0.123E-01 0.125E-01 0.189E-01


 Contracted 2-electron integrals neglected if value below      1.0D-22

      109945087. INTEGRALS WRITTEN OUT IN   26849 BLOCKS ON RECORD 1290 OF FILE 1


 NUMBER OF SORTED TWO-ELECTRON INTEGRALS:  115283741.     BUFFER LENGTH:  32768
 NUMBER OF SEGMENTS:   8  SEGMENT LENGTH:   15998004      RECORD LENGTH: 524288

 Memory used in sort:      16.56 MW

 SORT1 READ   109945087. AND WROTE   110865254. INTEGRALS IN    322 RECORDS. CPU TIME:     3.11 SEC, REAL TIME:     4.07 SEC
 SORT2 READ   110865254. AND WROTE   115283741. INTEGRALS IN      8 RECORDS. CPU TIME:     1.56 SEC, REAL TIME:     2.08 SEC

 FILE SIZES:   FILE 1:  1780.6 MBYTE,  FILE 4:  1350.6 MBYTE,   TOTAL:   3131.2 MBYTE

 OPERATOR DM      FOR CENTER  0  COORDINATES:    0.000000    0.000000    0.000000


 **********************************************************************************************************************************
 DATASETS  * FILE   NREC   LENGTH (MB)   RECORD NAMES
              1      19      944.14       500      610      700      900      950      970     1000      129      960     1100   
                                          VAR    BASINP    GEOM    SYMINP    ZMAT    AOBASIS   BASIS     P2S    ABASIS      S 
                                         1400     1410     1200     1210     1080     1600     1650     1300     1700   
                                           T        V       H0       H01     AOSYM     SMH    MOLCAS    ERIS     OPER   

 PROGRAMS   *        TOTAL       INT
 CPU TIMES  *        15.54     15.45
 REAL TIME  *        20.63 SEC
 DISK USED  *         3.13 GB      
 **********************************************************************************************************************************


 PROGRAM * RHF-SCF (CLOSED SHELL)       Authors: W. Meyer, H.-J. Werner


 NUMBER OF ELECTRONS:       8+    8-
 CONVERGENCE THRESHOLDS:    1.00E-10 (Density)    1.00E-13 (Energy)
 MAX. NUMBER OF ITERATIONS:      500
 INTERPOLATION TYPE:            DIIS
 INTERPOLATION STEPS:              2 (START)      1 (STEP)
 LEVEL SHIFTS:                  0.00 (CLOSED)  0.00 (OPEN) 



 Orbital guess generated from atomic densities. Full valence occupancy:    9   2

 Molecular orbital dump at record        2100.2

 Initial occupancy:   7   1

 ITERATION    DDIFF          GRAD             ENERGY        2-EL.EN.            DIPOLE MOMENTS         DIIS   ORB.
    1      0.000D+00      0.000D+00      -129.79669006    153.977884    0.00000    0.58851   -1.02116    0    start
    2      0.000D+00      0.812D-02      -129.82402086    155.218803    0.00000    0.60906   -0.20558    1    diag
    3      0.654D-02      0.619D-02      -129.84689380    155.336742    0.00000    0.55318   -0.58984    2    diag
    4      0.333D-02      0.969D-03      -129.84769471    155.052063    0.00000    0.56070   -0.52884    3    diag
    5      0.605D-03      0.316D-03      -129.84782158    155.145869    0.00000    0.56607   -0.53146    4    diag
    6      0.253D-03      0.917D-04      -129.84784189    155.129644    0.00000    0.56636   -0.52729    5    diag
    7      0.967D-04      0.456D-04      -129.84784777    155.132448    0.00000    0.56762   -0.52470    6    diag
    8      0.666D-04      0.158D-04      -129.84784842    155.131752    0.00000    0.56766   -0.52369    7    diag
    9      0.255D-04      0.304D-05      -129.84784845    155.131636    0.00000    0.56762   -0.52346    8    diag
   10      0.506D-05      0.693D-06      -129.84784845    155.131617    0.00000    0.56759   -0.52343    9    orth
   11      0.100D-05      0.139D-06      -129.84784845    155.131614    0.00000    0.56758   -0.52343    9    diag
   12      0.185D-06      0.283D-07      -129.84784845    155.131614    0.00000    0.56758   -0.52343    9    diag
   13      0.402D-07      0.731D-08      -129.84784845    155.131614    0.00000    0.56758   -0.52343    9    diag
   14      0.109D-07      0.145D-08      -129.84784845    155.131613    0.00000    0.56758   -0.52343    9    diag
   15      0.201D-08      0.416D-09      -129.84784845    155.131614    0.00000    0.56758   -0.52343    9    diag
   16      0.597D-09      0.126D-09      -129.84784845    155.131613    0.00000    0.56758   -0.52343    9    diag
   17      0.115D-09      0.339D-10      -129.84784845    155.131613    0.00000    0.56758   -0.52343    9    diag
   18      0.325D-10      0.116D-10      -129.84784845    155.131613    0.00000    0.56758   -0.52343    0    orth

 Final occupancy:   7   1

 !RHF STATE 1.1 Energy               -129.847848453719
 Nuclear energy                        30.37989782
 One-electron energy                 -237.79355301
 Two-electron energy                   77.56580674
 Virial quotient                       -1.00174969
 !RHF STATE 1.1 Dipole moment           0.00000000     0.56757850    -0.52343099
 Dipole moment /Debye                   0.00000000     1.44254615    -1.33034174

 Orbital energies:

         1.1          2.1          3.1          4.1          5.1          6.1          7.1          8.1          9.1
    -20.653564   -15.713082    -1.531006    -0.992751    -0.747181    -0.666538    -0.429882     0.026395     0.079486

         1.2          2.2          3.2
     -0.596965     0.063754     0.110641

 HOMO      7.1    -0.429882 =     -11.6977eV
 LUMO      8.1     0.026395 =       0.7182eV
 LUMO-HOMO         0.456277 =      12.4159eV


 **********************************************************************************************************************************
 DATASETS  * FILE   NREC   LENGTH (MB)   RECORD NAMES
              1      19      944.14       500      610      700      900      950      970     1000      129      960     1100   
                                          VAR    BASINP    GEOM    SYMINP    ZMAT    AOBASIS   BASIS     P2S    ABASIS      S 
                                         1400     1410     1200     1210     1080     1600     1650     1300     1700   
                                           T        V       H0       H01     AOSYM     SMH    MOLCAS    ERIS     OPER   

              2       4        3.27       700     1000      520     2100   
                                         GEOM     BASIS   MCVARS     RHF  

 PROGRAMS   *        TOTAL        HF       INT
 CPU TIMES  *        25.74     10.20     15.45
 REAL TIME  *        34.11 SEC
 DISK USED  *         3.13 GB      
 **********************************************************************************************************************************


 PROGRAM * CCSD (Closed-shell coupled cluster)     Authors: C. Hampel, H.-J. Werner, 1991, M. Deegan, P.J. Knowles, 1992


 Convergence thresholds:  THRVAR = 1.00D-08  THRDEN = 1.00D-12

 CCSD(T)     terms to be evaluated (factor= 1.000)


 Number of core orbitals:           2 (   2   0 )
 Number of closed-shell orbitals:   6 (   5   1 )
 Number of external orbitals:     198 ( 123  75 )

 Molecular orbitals read from record     2100.2  Type=RHF/CANONICAL (state 1.1)

 Number of N-1 electron functions:               6
 Number of N-2 electron functions:              21
 Number of singly external CSFs:               690
 Number of doubly external CSFs:            362646
 Total number of CSFs:                      363337

 Length of J-op  integral file:               0.00 MB
 Length of K-op  integral file:               1.60 MB
 Length of 3-ext integral record:             0.00 MB

 Memory could be reduced to 34.67 Mwords without degradation in triples

 Integral transformation finished. Total CPU:   1.85 sec, npass=  1  Memory used:   9.53 MW

 Reference energy:                   -129.84784845

 MP2 singlet pair energy:              -0.30156058
 MP2 triplet pair energy:              -0.17039088
 MP2 correlation energy:               -0.47195145
 MP2 total energy:                   -130.31979991

 SCS-MP2 correlation energy:           -0.46789368   (PS=  1.200000  PT=  0.333333)
 SCS-MP2 total energy:               -130.31574214

 ITER.      SQ.NORM     CORR.ENERGY   TOTAL ENERGY   ENERGY CHANGE        DEN1      VAR(S)    VAR(P)  DIIS     TIME  TIME/IT
   1      1.12101834    -0.47203566  -130.31988411    -0.00008421     0.01630033  0.31D-02  0.32D-02  1  1     3.48     1.72
   2      1.13170842    -0.47200499  -130.31985345     0.00003067    -0.01248541  0.10D-03  0.49D-03  2  2     5.07     1.76
   3      1.13800976    -0.47238321  -130.32023166    -0.00037822    -0.00304763  0.49D-04  0.53D-04  3  3     6.65     1.77
   4      1.14075327    -0.47238941  -130.32023787    -0.00000620    -0.00093467  0.44D-05  0.96D-05  4  4     8.24     1.78
   5      1.14184190    -0.47241886  -130.32026731    -0.00002945    -0.00023780  0.11D-05  0.16D-05  5  5     9.86     1.79
   6      1.14219397    -0.47240421  -130.32025266     0.00001465    -0.00005055  0.11D-06  0.39D-06  6  6    11.44     1.79
   7      1.14226723    -0.47240455  -130.32025300    -0.00000034     0.00000237  0.18D-07  0.88D-07  6  1    13.06     1.79
   8      1.14229006    -0.47240487  -130.32025333    -0.00000033    -0.00000117  0.35D-08  0.18D-07  6  2    14.69     1.80
   9      1.14229523    -0.47240447  -130.32025293     0.00000040     0.00000094  0.25D-08  0.20D-08  6  4    16.35     1.80
  10      1.14229768    -0.47240485  -130.32025330    -0.00000037    -0.00000074  0.45D-09  0.24D-09  6  3    17.99     1.80
  11      1.14229740    -0.47240491  -130.32025336    -0.00000006    -0.00000010  0.15D-09  0.34D-10  6  5    19.76     1.81
  12      1.14229644    -0.47240505  -130.32025350    -0.00000014     0.00000035  0.18D-10  0.10D-10  6  6    21.41     1.81
  13      1.14229560    -0.47240509  -130.32025354    -0.00000004     0.00000021  0.57D-11  0.22D-11  6  1    23.05     1.81
  14      1.14229495    -0.47240512  -130.32025357    -0.00000003     0.00000015  0.38D-12  0.45D-12  6  4    24.67     1.81
  15      1.14229474    -0.47240513  -130.32025358    -0.00000001     0.00000003  0.87D-13  0.35D-13  6  2    26.27     1.81
  16      1.14229470    -0.47240513  -130.32025358    -0.00000000     0.00000001  0.24D-13  0.68D-14  6  3    27.94     1.81
  17      1.14229467    -0.47240513  -130.32025358    -0.00000000     0.00000001  0.42D-14  0.11D-14  6  5    29.55     1.81
  18      1.14229467    -0.47240513  -130.32025358     0.00000000     0.00000000  0.83D-15  0.27D-15  6  6    31.16     1.81
  19      1.14229467    -0.47240513  -130.32025358     0.00000000     0.00000000  0.92D-16  0.54D-16  6  1    32.71     1.81
  20      1.14229467    -0.47240513  -130.32025358     0.00000000    -0.00000000  0.95D-17  0.77D-17  6  4    34.35     1.81
  21      1.14229467    -0.47240513  -130.32025358     0.00000000    -0.00000000  0.52D-18  0.63D-18  6  3    36.01     1.81
  22      1.14229467    -0.47240513  -130.32025358     0.00000000    -0.00000000  0.13D-18  0.14D-18  6  2    37.61     1.81
  23      1.14229467    -0.47240513  -130.32025358     0.00000000    -0.00000000  0.10D-19  0.32D-19  6  1    39.21     1.81
  24      1.14229467    -0.47240513  -130.32025358    -0.00000000     0.00000000  0.13D-20  0.64D-20  6  5    40.84     1.81
  25      1.14229467    -0.47240513  -130.32025358     0.00000000     0.00000000  0.10D-20  0.17D-20  6  6    42.46     1.81

 Norm of t1 vector:      0.07665792      S-energy:     0.00000000      T1 diagnostic:  0.01564773
                                                                       D1 diagnostic:  0.04194005

 Doubles amplitudes (print threshold =  0.500E-01):

         I         J         SYM. A    SYM. B    A         B      T(IJ, AB)

         6         6         2         2         1         1     -0.09770009


 Total CPU time for triples:     19.53 sec


 RESULTS
 =======

  Reference energy                   -129.847848453719
  CCSD singlet pair energy             -0.326540033699
  CCSD triplet pair energy             -0.145865095856
  CCSD correlation energy              -0.472405129553

  Triples (T) contribution             -0.022341604071
  Total correlation energy             -0.494746733624

  CCSD total energy                  -130.320253583272
  CCSD[T] energy                     -130.343665616210
  CCSD-T energy                      -130.342209870340
 !CCSD(T) total energy               -130.342595187343

 Timing summary (sec):

 STEP                 CPU(USER)    SYS     CPU(TOT)    WALL
 Transformation          1.87      0.29      2.16      2.17
 CCSD iterations        40.60      4.60     45.20     45.20
 Triples                19.53      0.49     20.02     20.02

 Program statistics:

 Available memory in ccsd:               994999756
 Min. memory needed in ccsd:               1265322
 Max. memory used in ccsd:                 1555950
 Max. memory used in cckext:               2415326 (25 integral passes)



 **********************************************************************************************************************************
 DATASETS  * FILE   NREC   LENGTH (MB)   RECORD NAMES
              1      20     1044.69       500      610      700      900      950      970     1000      129      960     1100   
                                          VAR    BASINP    GEOM    SYMINP    ZMAT    AOBASIS   BASIS     P2S    ABASIS      S 
                                         1400     1410     1200     1210     1080     1600     1650     1300     1700     1380   
                                           T        V       H0       H01     AOSYM     SMH    MOLCAS    ERIS     OPER     JKOP   

              2       4        3.27       700     1000      520     2100   
                                         GEOM     BASIS   MCVARS     RHF  

 PROGRAMS   *        TOTAL   CCSD(T)        HF       INT
 CPU TIMES  *        87.77     62.03     10.20     15.45
 REAL TIME  *       101.54 SEC
 DISK USED  *         3.13 GB      
 **********************************************************************************************************************************

 CCSD(T)/aug-cc-pVQZ energy=   -130.342595187343

        CCSD(T)         HF-SCF  
   -130.34259519   -129.84784845
 **********************************************************************************************************************************
 Molpro calculation terminated
 Variable memory released
