
 Primary working directories    : /tmp/r2666/234774.maple
 Secondary working directories  : /tmp/r2666/234774.maple
 Wavefunction directory         : /ddn/home4/r2666/wfu/
 Main file repository           : /tmp/r2666/234774.maple/

 SHA1      : d5ffa45e93fdbca01ffc919aa182cfdae0147319
 NAME      : 2015.1.35
 ARCHNAME  : linux/x86_64
 FC        : /opt/intel/composer_xe_2015.1.133/bin/intel64/ifort
 BLASLIB   : -Wl,-_start-group /opt/intel/mkl/lib/intel64/libmkl_intel_ilp64.a /opt/intel/mkl/lib/intel64/libmkl_intel_thread.a /opt/intel/mkl/lib/intel64/libmkl_core.a -Wl,-_end-group
 id        : olemiss

 Nodes     nprocs
 cn089        1

 Using customized tuning parameters: mindgm=1; mindgv=20; mindgc=4; mindgr=1; noblas=0; minvec=7
 default implementation of scratch files=df  

 ***,hno CCSD(T)/TZ-F12 QFF
 memory, 995, m;
 gthresh,energy=1.d-12,zero=1.d-22,oneint=1.d-22,twoint=1.d-22;
 gthresh,optgrad=1.d-8,optstep=1.d-8;
 nocompress;
 geomtyp=xyz
 bohr
 geometry={
 3
         17        17
 N        0.0000000000       -0.1464555679       -1.1481497132
 H        0.0000000000        1.6588043523       -1.9346763253
 O        0.0000000000        0.0294190057        1.1322364475
 }
 
 basis=avqz
   {hf,maxit=500;accu,20;}
 {ccsd(t),nocheck,maxit=250;orbital,IGNORE_ERROR;}

 Variables initialized (889), CPU time= 0.01 sec
 Commands  initialized (702), CPU time= 0.01 sec, 572 directives.
 Default parameters read. Elapsed time= 0.04 sec

 Checking input...
 Passed
1


                                         ***  PROGRAM SYSTEM MOLPRO  ***
                                       Copyright, TTI GmbH Stuttgart, 2015
                                    Version 2015.1 linked Jul  9 2018 13:16:40


 **********************************************************************************************************************************
 LABEL *   hno CCSD(T)/TZ-F12 QFF                                                        
  64 bit serial version                                                                  DATE: 08-Feb-20          TIME: 17:49:40  
 **********************************************************************************************************************************

 SHA1:             d5ffa45e93fdbca01ffc919aa182cfdae0147319
 **********************************************************************************************************************************

 THRESHOLDS:

 ZERO    =  1.00D-22  ONEINT  =  1.00D-22  TWOINT  =  1.00D-22  PREFAC  =  1.00D-14  LOCALI  =  1.00D-09  EORDER  =  1.00D-04
 ENERGY  =  1.00D-12  ETEST   =  0.00D+00  EDENS   =  0.00D+00  THRDEDEF=  1.00D-06  GRADIENT=  1.00D-02  STEP    =  1.00D-03
 ORBITAL =  1.00D-05  CIVEC   =  1.00D-05  COEFF   =  1.00D-04  PRINTCI =  5.00D-02  PUNCHCI =  9.90D+01  OPTGRAD =  3.00D-04
 OPTENERG=  1.00D-06  OPTSTEP =  3.00D-04  THRGRAD =  1.00D-10  COMPRESS=  1.00D-11  VARMIN  =  1.00D-07  VARMAX  =  1.00D-03
 THRDOUB =  0.00D+00  THRDIV  =  1.00D-05  THRRED  =  1.00D-07  THRPSP  =  1.00D+00  THRDC   =  1.00D-10  THRCS   =  1.00D-10
 THRNRM  =  1.00D-08  THREQ   =  0.00D+00  THRDE   =  1.00D+00  THRREF  =  1.00D-05  SPARFAC =  1.00D+00  THRDLP  =  1.00D-07
 THRDIA  =  1.00D-10  THRDLS  =  1.00D-07  THRGPS  =  0.00D+00  THRKEX  =  0.00D+00  THRDIS  =  2.00D-01  THRVAR  =  1.00D-10
 THRLOC  =  1.00D-06  THRGAP  =  1.00D-06  THRLOCT = -1.00D+00  THRGAPT = -1.00D+00  THRORB  =  1.00D-06  THRMLTP =  0.00D+00
 THRCPQCI=  1.00D-10  KEXTA   =  0.00D+00  THRCOARS=  0.00D+00  SYMTOL  =  1.00D-06  GRADTOL =  1.00D-06  THROVL  =  1.00D-08
 THRORTH =  1.00D-08  GRID    =  1.00D-06  GRIDMAX =  1.00D-03  DTMAX   =  0.00D+00  THROCCDE=  1.00D-01  THROCCDE=  1.00D-01



 THRESHOLDS:

 ZERO    =  1.00D-22  ONEINT  =  1.00D-22  TWOINT  =  1.00D-22  PREFAC  =  1.00D-14  LOCALI  =  1.00D-09  EORDER  =  1.00D-04
 ENERGY  =  1.00D-12  ETEST   =  0.00D+00  EDENS   =  0.00D+00  THRDEDEF=  1.00D-06  GRADIENT=  1.00D-02  STEP    =  1.00D-03
 ORBITAL =  1.00D-05  CIVEC   =  1.00D-05  COEFF   =  1.00D-04  PRINTCI =  5.00D-02  PUNCHCI =  9.90D+01  OPTGRAD =  1.00D-08
 OPTENERG=  1.00D-06  OPTSTEP =  1.00D-08  THRGRAD =  1.00D-10  COMPRESS=  1.00D-11  VARMIN  =  1.00D-07  VARMAX  =  1.00D-03
 THRDOUB =  0.00D+00  THRDIV  =  1.00D-05  THRRED  =  1.00D-07  THRPSP  =  1.00D+00  THRDC   =  1.00D-10  THRCS   =  1.00D-10
 THRNRM  =  1.00D-08  THREQ   =  0.00D+00  THRDE   =  1.00D+00  THRREF  =  1.00D-05  SPARFAC =  1.00D+00  THRDLP  =  1.00D-07
 THRDIA  =  1.00D-10  THRDLS  =  1.00D-07  THRGPS  =  0.00D+00  THRKEX  =  0.00D+00  THRDIS  =  2.00D-01  THRVAR  =  1.00D-10
 THRLOC  =  1.00D-06  THRGAP  =  1.00D-06  THRLOCT = -1.00D+00  THRGAPT = -1.00D+00  THRORB  =  1.00D-06  THRMLTP =  0.00D+00
 THRCPQCI=  1.00D-10  KEXTA   =  0.00D+00  THRCOARS=  0.00D+00  SYMTOL  =  1.00D-06  GRADTOL =  1.00D-06  THROVL  =  1.00D-08
 THRORTH =  1.00D-08  GRID    =  1.00D-06  GRIDMAX =  1.00D-03  DTMAX   =  0.00D+00  THROCCDE=  1.00D-01  THROCCDE=  1.00D-01



 Input parameters for SORTINT:

 COMPRESS =    0.000000
 C_FINAL  =    1.000000
 DEBUG    =   -1.000000
 C_SORT1  =    0.000000
 C_SEWARD =    0.000000
 THRESH   =    0.000000
 IO       =  molpro                                                          
 SPRI     =    0.000000
 SETTING GEOMTYP        =    XYZ
 ZUNIT=BOHR
 

 Variable memory set to  995000000 words,  buffer space   230000 words

 SETTING BASIS          =    AVQZ


 Recomputing integrals since basis changed


 Using spherical harmonics

 Library entry N      S aug-cc-pVQZ          selected for orbital group  1
 Library entry N      P aug-cc-pVQZ          selected for orbital group  1
 Library entry N      D aug-cc-pVQZ          selected for orbital group  1
 Library entry N      F aug-cc-pVQZ          selected for orbital group  1
 Library entry N      G aug-cc-pVQZ          selected for orbital group  1
 Library entry H      S aug-cc-pVQZ          selected for orbital group  2
 Library entry H      P aug-cc-pVQZ          selected for orbital group  2
 Library entry H      D aug-cc-pVQZ          selected for orbital group  2
 Library entry H      F aug-cc-pVQZ          selected for orbital group  2
 Library entry O      S aug-cc-pVQZ          selected for orbital group  3
 Library entry O      P aug-cc-pVQZ          selected for orbital group  3
 Library entry O      D aug-cc-pVQZ          selected for orbital group  3
 Library entry O      F aug-cc-pVQZ          selected for orbital group  3
 Library entry O      G aug-cc-pVQZ          selected for orbital group  3


 PROGRAM * SEWARD (Integral evaluation for generally contracted gaussian basis sets)     Author: Roland Lindh, 1990

 Geometry written to block  1 of record 700


 Point group  Cs  



 ATOMIC COORDINATES

 NR  ATOM    CHARGE       X              Y              Z

   1  N       7.00    0.000000000   -0.146455568   -1.148149713
   2  H       1.00    0.000000000    1.658804352   -1.934676325
   3  O       8.00    0.000000000    0.029419006    1.132236447

 Bond lengths in Bohr (Angstrom)

 1-2  1.969159082  1-3  2.287158260
     ( 1.042034111)     ( 1.210312029)

 Bond angles

  2-1-3  109.13188524

 NUCLEAR CHARGE:                   16
 NUMBER OF PRIMITIVE AOS:         293
 NUMBER OF SYMMETRY AOS:          234
 NUMBER OF CONTRACTIONS:          206   ( 130A'  +  76A"  )
 NUMBER OF CORE ORBITALS:           2   (   2A'  +   0A"  )
 NUMBER OF VALENCE ORBITALS:        9   (   7A'  +   2A"  )


 NUCLEAR REPULSION ENERGY   30.34291698

 Eigenvalues of metric

         1 0.586E-04 0.143E-03 0.317E-03 0.434E-03 0.585E-03 0.666E-03 0.994E-03 0.108E-02
         2 0.824E-03 0.157E-02 0.488E-02 0.893E-02 0.996E-02 0.123E-01 0.125E-01 0.184E-01


 Contracted 2-electron integrals neglected if value below      1.0D-22

      109945055. INTEGRALS WRITTEN OUT IN   26849 BLOCKS ON RECORD 1290 OF FILE 1


 NUMBER OF SORTED TWO-ELECTRON INTEGRALS:  115283741.     BUFFER LENGTH:  32768
 NUMBER OF SEGMENTS:   8  SEGMENT LENGTH:   15998004      RECORD LENGTH: 524288

 Memory used in sort:      16.56 MW

 SORT1 READ   109945055. AND WROTE   110865222. INTEGRALS IN    322 RECORDS. CPU TIME:     1.93 SEC, REAL TIME:     2.66 SEC
 SORT2 READ   110865222. AND WROTE   115283741. INTEGRALS IN      8 RECORDS. CPU TIME:     1.26 SEC, REAL TIME:     1.78 SEC

 FILE SIZES:   FILE 1:  1780.6 MBYTE,  FILE 4:  1350.6 MBYTE,   TOTAL:   3131.2 MBYTE

 OPERATOR DM      FOR CENTER  0  COORDINATES:    0.000000    0.000000    0.000000


 **********************************************************************************************************************************
 DATASETS  * FILE   NREC   LENGTH (MB)   RECORD NAMES
              1      19      944.14       500      610      700      900      950      970     1000      129      960     1100   
                                          VAR    BASINP    GEOM    SYMINP    ZMAT    AOBASIS   BASIS     P2S    ABASIS      S 
                                         1400     1410     1200     1210     1080     1600     1650     1300     1700   
                                           T        V       H0       H01     AOSYM     SMH    MOLCAS    ERIS     OPER   

 PROGRAMS   *        TOTAL       INT
 CPU TIMES  *        11.01     10.91
 REAL TIME  *        13.90 SEC
 DISK USED  *         3.13 GB      
 **********************************************************************************************************************************


 PROGRAM * RHF-SCF (CLOSED SHELL)       Authors: W. Meyer, H.-J. Werner


 NUMBER OF ELECTRONS:       8+    8-
 CONVERGENCE THRESHOLDS:    1.00E-10 (Density)    1.00E-13 (Energy)
 MAX. NUMBER OF ITERATIONS:      500
 INTERPOLATION TYPE:            DIIS
 INTERPOLATION STEPS:              2 (START)      1 (STEP)
 LEVEL SHIFTS:                  0.00 (CLOSED)  0.00 (OPEN) 



 Orbital guess generated from atomic densities. Full valence occupancy:    9   2

 Molecular orbital dump at record        2100.2

 Initial occupancy:   7   1

 ITERATION    DDIFF          GRAD             ENERGY        2-EL.EN.            DIPOLE MOMENTS         DIIS   ORB.
    1      0.000D+00      0.000D+00      -129.79680168    153.916901    0.00000    0.60986   -1.03453    0    start
    2      0.000D+00      0.809D-02      -129.82400417    155.138219    0.00000    0.61194   -0.21478    1    diag
    3      0.652D-02      0.617D-02      -129.84674958    155.267995    0.00000    0.56459   -0.60202    2    diag
    4      0.333D-02      0.978D-03      -129.84756008    154.981703    0.00000    0.57153   -0.53998    3    diag
    5      0.610D-03      0.315D-03      -129.84768534    155.075021    0.00000    0.57680   -0.54255    4    diag
    6      0.252D-03      0.905D-04      -129.84770515    155.058972    0.00000    0.57710   -0.53836    5    diag
    7      0.955D-04      0.453D-04      -129.84771096    155.061655    0.00000    0.57830   -0.53573    6    diag
    8      0.660D-04      0.159D-04      -129.84771163    155.060965    0.00000    0.57834   -0.53469    7    diag
    9      0.258D-04      0.307D-05      -129.84771166    155.060850    0.00000    0.57830   -0.53446    8    diag
   10      0.517D-05      0.698D-06      -129.84771166    155.060832    0.00000    0.57827   -0.53443    9    orth
   11      0.101D-05      0.138D-06      -129.84771166    155.060829    0.00000    0.57826   -0.53443    9    diag
   12      0.183D-06      0.281D-07      -129.84771166    155.060829    0.00000    0.57826   -0.53443    9    diag
   13      0.387D-07      0.726D-08      -129.84771166    155.060829    0.00000    0.57826   -0.53443    9    diag
   14      0.106D-07      0.142D-08      -129.84771166    155.060829    0.00000    0.57826   -0.53443    9    diag
   15      0.193D-08      0.405D-09      -129.84771166    155.060829    0.00000    0.57826   -0.53443    9    diag
   16      0.577D-09      0.121D-09      -129.84771166    155.060829    0.00000    0.57826   -0.53443    9    diag
   17      0.107D-09      0.301D-10      -129.84771166    155.060829    0.00000    0.57826   -0.53443    9    diag
   18      0.281D-10      0.990D-11      -129.84771166    155.060829    0.00000    0.57826   -0.53443    9    diag
   19      0.140D-10      0.231D-11      -129.84771166    155.060829    0.00000    0.57826   -0.53443    0    orth

 Final occupancy:   7   1

 !RHF STATE 1.1 Energy               -129.847711663157
 Nuclear energy                        30.34291698
 One-electron energy                 -237.72104314
 Two-electron energy                   77.53041450
 Virial quotient                       -1.00172209
 !RHF STATE 1.1 Dipole moment           0.00000000     0.57825716    -0.53443204
 Dipole moment /Debye                   0.00000000     1.46968682    -1.35830180

 Orbital energies:

         1.1          2.1          3.1          4.1          5.1          6.1          7.1          8.1          9.1
    -20.653958   -15.711523    -1.527323    -0.998232    -0.747566    -0.665621    -0.431183     0.026261     0.079451

         1.2          2.2          3.2
     -0.594701     0.062537     0.110086

 HOMO      7.1    -0.431183 =     -11.7331eV
 LUMO      8.1     0.026261 =       0.7146eV
 LUMO-HOMO         0.457444 =      12.4477eV


 **********************************************************************************************************************************
 DATASETS  * FILE   NREC   LENGTH (MB)   RECORD NAMES
              1      19      944.14       500      610      700      900      950      970     1000      129      960     1100   
                                          VAR    BASINP    GEOM    SYMINP    ZMAT    AOBASIS   BASIS     P2S    ABASIS      S 
                                         1400     1410     1200     1210     1080     1600     1650     1300     1700   
                                           T        V       H0       H01     AOSYM     SMH    MOLCAS    ERIS     OPER   

              2       4        3.27       700     1000      520     2100   
                                         GEOM     BASIS   MCVARS     RHF  

 PROGRAMS   *        TOTAL        HF       INT
 CPU TIMES  *        20.61      9.60     10.91
 REAL TIME  *        25.68 SEC
 DISK USED  *         3.13 GB      
 **********************************************************************************************************************************


 PROGRAM * CCSD (Closed-shell coupled cluster)     Authors: C. Hampel, H.-J. Werner, 1991, M. Deegan, P.J. Knowles, 1992


 Convergence thresholds:  THRVAR = 1.00D-08  THRDEN = 1.00D-12

 CCSD(T)     terms to be evaluated (factor= 1.000)


 Number of core orbitals:           2 (   2   0 )
 Number of closed-shell orbitals:   6 (   5   1 )
 Number of external orbitals:     198 ( 123  75 )

 Molecular orbitals read from record     2100.2  Type=RHF/CANONICAL (state 1.1)

 Number of N-1 electron functions:               6
 Number of N-2 electron functions:              21
 Number of singly external CSFs:               690
 Number of doubly external CSFs:            362646
 Total number of CSFs:                      363337

 Length of J-op  integral file:               0.00 MB
 Length of K-op  integral file:               1.60 MB
 Length of 3-ext integral record:             0.00 MB

 Memory could be reduced to 34.67 Mwords without degradation in triples

 Integral transformation finished. Total CPU:   1.41 sec, npass=  1  Memory used:   9.53 MW

 Reference energy:                   -129.84771166

 MP2 singlet pair energy:              -0.30163616
 MP2 triplet pair energy:              -0.17046284
 MP2 correlation energy:               -0.47209900
 MP2 total energy:                   -130.31981066

 SCS-MP2 correlation energy:           -0.46802916   (PS=  1.200000  PT=  0.333333)
 SCS-MP2 total energy:               -130.31574082

 ITER.      SQ.NORM     CORR.ENERGY   TOTAL ENERGY   ENERGY CHANGE        DEN1      VAR(S)    VAR(P)  DIIS     TIME  TIME/IT
   1      1.12097978    -0.47206307  -130.31977474     0.00003593     0.01648587  0.32D-02  0.32D-02  1  1     2.59     1.28
   2      1.13169551    -0.47200460  -130.31971627     0.00005847    -0.01251840  0.11D-03  0.49D-03  2  2     3.81     1.36
   3      1.13801575    -0.47238252  -130.32009418    -0.00037791    -0.00304415  0.49D-04  0.54D-04  3  3     5.04     1.38
   4      1.14079479    -0.47239038  -130.32010204    -0.00000786    -0.00094020  0.43D-05  0.98D-05  4  4     6.33     1.39
   5      1.14190380    -0.47241992  -130.32013158    -0.00002954    -0.00024119  0.11D-05  0.17D-05  5  5     7.58     1.40
   6      1.14226327    -0.47240487  -130.32011653     0.00001505    -0.00005160  0.10D-06  0.41D-06  6  6     8.82     1.41
   7      1.14233672    -0.47240552  -130.32011719    -0.00000066     0.00000270  0.16D-07  0.93D-07  6  1    10.09     1.41
   8      1.14235945    -0.47240590  -130.32011756    -0.00000037    -0.00000109  0.36D-08  0.18D-07  6  2    11.35     1.41
   9      1.14236439    -0.47240552  -130.32011718     0.00000038     0.00000097  0.27D-08  0.21D-08  6  4    12.64     1.41
  10      1.14236687    -0.47240590  -130.32011756    -0.00000038    -0.00000076  0.50D-09  0.25D-09  6  3    13.91     1.42
  11      1.14236659    -0.47240596  -130.32011763    -0.00000006    -0.00000012  0.16D-09  0.36D-10  6  5    15.22     1.42
  12      1.14236562    -0.47240611  -130.32011777    -0.00000014     0.00000036  0.19D-10  0.11D-10  6  6    16.46     1.42
  13      1.14236476    -0.47240615  -130.32011781    -0.00000004     0.00000022  0.59D-11  0.25D-11  6  1    17.72     1.42
  14      1.14236408    -0.47240618  -130.32011784    -0.00000003     0.00000016  0.39D-12  0.51D-12  6  4    19.02     1.42
  15      1.14236386    -0.47240619  -130.32011785    -0.00000001     0.00000004  0.80D-13  0.40D-13  6  2    20.29     1.42
  16      1.14236381    -0.47240619  -130.32011785    -0.00000000     0.00000001  0.22D-13  0.73D-14  6  3    21.54     1.42
  17      1.14236378    -0.47240619  -130.32011786    -0.00000000     0.00000001  0.40D-14  0.10D-14  6  5    22.80     1.42
  18      1.14236378    -0.47240619  -130.32011786    -0.00000000     0.00000000  0.85D-15  0.25D-15  6  6    24.08     1.42
  19      1.14236378    -0.47240619  -130.32011786    -0.00000000     0.00000000  0.11D-15  0.51D-16  6  1    25.36     1.42
  20      1.14236378    -0.47240619  -130.32011786     0.00000000    -0.00000000  0.10D-16  0.77D-17  6  4    26.59     1.42
  21      1.14236378    -0.47240619  -130.32011785     0.00000000    -0.00000000  0.47D-18  0.69D-18  6  3    27.89     1.42
  22      1.14236378    -0.47240619  -130.32011785     0.00000000    -0.00000000  0.12D-18  0.16D-18  6  2    29.15     1.42
  23      1.14236378    -0.47240619  -130.32011785     0.00000000     0.00000000  0.33D-19  0.58D-19  6  5    30.40     1.42
  24      1.14236378    -0.47240619  -130.32011785    -0.00000000     0.00000000  0.26D-20  0.12D-19  6  1    31.64     1.42

 Norm of t1 vector:      0.07701826      S-energy:    -0.00000000      T1 diagnostic:  0.01572129
                                                                       D1 diagnostic:  0.04254601

 Doubles amplitudes (print threshold =  0.500E-01):

         I         J         SYM. A    SYM. B    A         B      T(IJ, AB)

         6         6         2         2         1         1     -0.09993439


 Total CPU time for triples:     16.34 sec


 RESULTS
 =======

  Reference energy                   -129.847711663157
  CCSD singlet pair energy             -0.326551644776
  CCSD triplet pair energy             -0.145854547046
  CCSD correlation energy              -0.472406191823

  Triples (T) contribution             -0.022381250581
  Total correlation energy             -0.494787442403

  CCSD total energy                  -130.320117854979
  CCSD[T] energy                     -130.343577890420
  CCSD-T energy                      -130.342113777082
 !CCSD(T) total energy               -130.342499105560

 Timing summary (sec):

 STEP                 CPU(USER)    SYS     CPU(TOT)    WALL
 Transformation          1.42      0.29      1.71      1.98
 CCSD iterations        30.22      3.93     34.15     34.17
 Triples                16.34      0.42     16.76     16.75

 Program statistics:

 Available memory in ccsd:               994999756
 Min. memory needed in ccsd:               1265322
 Max. memory used in ccsd:                 1555950
 Max. memory used in cckext:               2415326 (24 integral passes)



 **********************************************************************************************************************************
 DATASETS  * FILE   NREC   LENGTH (MB)   RECORD NAMES
              1      20     1044.69       500      610      700      900      950      970     1000      129      960     1100   
                                          VAR    BASINP    GEOM    SYMINP    ZMAT    AOBASIS   BASIS     P2S    ABASIS      S 
                                         1400     1410     1200     1210     1080     1600     1650     1300     1700     1380   
                                           T        V       H0       H01     AOSYM     SMH    MOLCAS    ERIS     OPER     JKOP   

              2       4        3.27       700     1000      520     2100   
                                         GEOM     BASIS   MCVARS     RHF  

 PROGRAMS   *        TOTAL   CCSD(T)        HF       INT
 CPU TIMES  *        68.62     48.01      9.60     10.91
 REAL TIME  *        78.61 SEC
 DISK USED  *         3.13 GB      
 **********************************************************************************************************************************

 CCSD(T)/aug-cc-pVQZ energy=   -130.342499105560

        CCSD(T)         HF-SCF  
   -130.34249911   -129.84771166
 **********************************************************************************************************************************
 Molpro calculation terminated
 Variable memory released
