
 Primary working directories    : /tmp/r2666/234818.maple
 Secondary working directories  : /tmp/r2666/234818.maple
 Wavefunction directory         : /ddn/home4/r2666/wfu/
 Main file repository           : /tmp/r2666/234818.maple/

 SHA1      : d5ffa45e93fdbca01ffc919aa182cfdae0147319
 NAME      : 2015.1.35
 ARCHNAME  : linux/x86_64
 FC        : /opt/intel/composer_xe_2015.1.133/bin/intel64/ifort
 BLASLIB   : -Wl,-_start-group /opt/intel/mkl/lib/intel64/libmkl_intel_ilp64.a /opt/intel/mkl/lib/intel64/libmkl_intel_thread.a /opt/intel/mkl/lib/intel64/libmkl_core.a -Wl,-_end-group
 id        : olemiss

 Nodes     nprocs
 cn029        1

 Using customized tuning parameters: mindgm=1; mindgv=20; mindgc=4; mindgr=1; noblas=0; minvec=7
 default implementation of scratch files=df  

 ***,hno CCSD(T)/TZ-F12 QFF
 memory, 995, m;
 gthresh,energy=1.d-12,zero=1.d-22,oneint=1.d-22,twoint=1.d-22;
 gthresh,optgrad=1.d-8,optstep=1.d-8;
 nocompress;
 geomtyp=xyz
 bohr
 geometry={
 3
         61        61
 N        0.0000000000       -0.1709786642       -1.1623963049
 H        0.0000000000        1.6676032371       -1.9186929475
 O        0.0000000000        0.0451432172        1.1304996614
 }
 
 basis=avqz
   {hf,maxit=500;accu,20;}
 {ccsd(t),nocheck,maxit=250;orbital,IGNORE_ERROR;}

 Variables initialized (889), CPU time= 0.00 sec
 Commands  initialized (702), CPU time= 0.01 sec, 572 directives.
 Default parameters read. Elapsed time= 0.05 sec

 Checking input...
 Passed
1


                                         ***  PROGRAM SYSTEM MOLPRO  ***
                                       Copyright, TTI GmbH Stuttgart, 2015
                                    Version 2015.1 linked Jul  9 2018 13:16:40


 **********************************************************************************************************************************
 LABEL *   hno CCSD(T)/TZ-F12 QFF                                                        
  64 bit serial version                                                                  DATE: 08-Feb-20          TIME: 17:53:07  
 **********************************************************************************************************************************

 SHA1:             d5ffa45e93fdbca01ffc919aa182cfdae0147319
 **********************************************************************************************************************************

 THRESHOLDS:

 ZERO    =  1.00D-22  ONEINT  =  1.00D-22  TWOINT  =  1.00D-22  PREFAC  =  1.00D-14  LOCALI  =  1.00D-09  EORDER  =  1.00D-04
 ENERGY  =  1.00D-12  ETEST   =  0.00D+00  EDENS   =  0.00D+00  THRDEDEF=  1.00D-06  GRADIENT=  1.00D-02  STEP    =  1.00D-03
 ORBITAL =  1.00D-05  CIVEC   =  1.00D-05  COEFF   =  1.00D-04  PRINTCI =  5.00D-02  PUNCHCI =  9.90D+01  OPTGRAD =  3.00D-04
 OPTENERG=  1.00D-06  OPTSTEP =  3.00D-04  THRGRAD =  1.00D-10  COMPRESS=  1.00D-11  VARMIN  =  1.00D-07  VARMAX  =  1.00D-03
 THRDOUB =  0.00D+00  THRDIV  =  1.00D-05  THRRED  =  1.00D-07  THRPSP  =  1.00D+00  THRDC   =  1.00D-10  THRCS   =  1.00D-10
 THRNRM  =  1.00D-08  THREQ   =  0.00D+00  THRDE   =  1.00D+00  THRREF  =  1.00D-05  SPARFAC =  1.00D+00  THRDLP  =  1.00D-07
 THRDIA  =  1.00D-10  THRDLS  =  1.00D-07  THRGPS  =  0.00D+00  THRKEX  =  0.00D+00  THRDIS  =  2.00D-01  THRVAR  =  1.00D-10
 THRLOC  =  1.00D-06  THRGAP  =  1.00D-06  THRLOCT = -1.00D+00  THRGAPT = -1.00D+00  THRORB  =  1.00D-06  THRMLTP =  0.00D+00
 THRCPQCI=  1.00D-10  KEXTA   =  0.00D+00  THRCOARS=  0.00D+00  SYMTOL  =  1.00D-06  GRADTOL =  1.00D-06  THROVL  =  1.00D-08
 THRORTH =  1.00D-08  GRID    =  1.00D-06  GRIDMAX =  1.00D-03  DTMAX   =  0.00D+00  THROCCDE=  1.00D-01  THROCCDE=  1.00D-01



 THRESHOLDS:

 ZERO    =  1.00D-22  ONEINT  =  1.00D-22  TWOINT  =  1.00D-22  PREFAC  =  1.00D-14  LOCALI  =  1.00D-09  EORDER  =  1.00D-04
 ENERGY  =  1.00D-12  ETEST   =  0.00D+00  EDENS   =  0.00D+00  THRDEDEF=  1.00D-06  GRADIENT=  1.00D-02  STEP    =  1.00D-03
 ORBITAL =  1.00D-05  CIVEC   =  1.00D-05  COEFF   =  1.00D-04  PRINTCI =  5.00D-02  PUNCHCI =  9.90D+01  OPTGRAD =  1.00D-08
 OPTENERG=  1.00D-06  OPTSTEP =  1.00D-08  THRGRAD =  1.00D-10  COMPRESS=  1.00D-11  VARMIN  =  1.00D-07  VARMAX  =  1.00D-03
 THRDOUB =  0.00D+00  THRDIV  =  1.00D-05  THRRED  =  1.00D-07  THRPSP  =  1.00D+00  THRDC   =  1.00D-10  THRCS   =  1.00D-10
 THRNRM  =  1.00D-08  THREQ   =  0.00D+00  THRDE   =  1.00D+00  THRREF  =  1.00D-05  SPARFAC =  1.00D+00  THRDLP  =  1.00D-07
 THRDIA  =  1.00D-10  THRDLS  =  1.00D-07  THRGPS  =  0.00D+00  THRKEX  =  0.00D+00  THRDIS  =  2.00D-01  THRVAR  =  1.00D-10
 THRLOC  =  1.00D-06  THRGAP  =  1.00D-06  THRLOCT = -1.00D+00  THRGAPT = -1.00D+00  THRORB  =  1.00D-06  THRMLTP =  0.00D+00
 THRCPQCI=  1.00D-10  KEXTA   =  0.00D+00  THRCOARS=  0.00D+00  SYMTOL  =  1.00D-06  GRADTOL =  1.00D-06  THROVL  =  1.00D-08
 THRORTH =  1.00D-08  GRID    =  1.00D-06  GRIDMAX =  1.00D-03  DTMAX   =  0.00D+00  THROCCDE=  1.00D-01  THROCCDE=  1.00D-01



 Input parameters for SORTINT:

 COMPRESS =    0.000000
 C_FINAL  =    1.000000
 DEBUG    =   -1.000000
 C_SORT1  =    0.000000
 C_SEWARD =    0.000000
 THRESH   =    0.000000
 IO       =  molpro                                                          
 SPRI     =    0.000000
 SETTING GEOMTYP        =    XYZ
 ZUNIT=BOHR
 

 Variable memory set to  995000000 words,  buffer space   230000 words

 SETTING BASIS          =    AVQZ


 Recomputing integrals since basis changed


 Using spherical harmonics

 Library entry N      S aug-cc-pVQZ          selected for orbital group  1
 Library entry N      P aug-cc-pVQZ          selected for orbital group  1
 Library entry N      D aug-cc-pVQZ          selected for orbital group  1
 Library entry N      F aug-cc-pVQZ          selected for orbital group  1
 Library entry N      G aug-cc-pVQZ          selected for orbital group  1
 Library entry H      S aug-cc-pVQZ          selected for orbital group  2
 Library entry H      P aug-cc-pVQZ          selected for orbital group  2
 Library entry H      D aug-cc-pVQZ          selected for orbital group  2
 Library entry H      F aug-cc-pVQZ          selected for orbital group  2
 Library entry O      S aug-cc-pVQZ          selected for orbital group  3
 Library entry O      P aug-cc-pVQZ          selected for orbital group  3
 Library entry O      D aug-cc-pVQZ          selected for orbital group  3
 Library entry O      F aug-cc-pVQZ          selected for orbital group  3
 Library entry O      G aug-cc-pVQZ          selected for orbital group  3


 PROGRAM * SEWARD (Integral evaluation for generally contracted gaussian basis sets)     Author: Roland Lindh, 1990

 Geometry written to block  1 of record 700


 Point group  Cs  



 ATOMIC COORDINATES

 NR  ATOM    CHARGE       X              Y              Z

   1  N       7.00    0.000000000   -0.170978664   -1.162396305
   2  H       1.00    0.000000000    1.667603237   -1.918692948
   3  O       8.00    0.000000000    0.045143217    1.130499661

 Bond lengths in Bohr (Angstrom)

 1-2  1.988056342  1-3  2.303058961
     ( 1.052034110)     ( 1.218726318)

 Bond angles

  2-1-3  106.97507948

 NUCLEAR CHARGE:                   16
 NUMBER OF PRIMITIVE AOS:         293
 NUMBER OF SYMMETRY AOS:          234
 NUMBER OF CONTRACTIONS:          206   ( 130A'  +  76A"  )
 NUMBER OF CORE ORBITALS:           2   (   2A'  +   0A"  )
 NUMBER OF VALENCE ORBITALS:        9   (   7A'  +   2A"  )


 NUCLEAR REPULSION ENERGY   30.15268496

 Eigenvalues of metric

         1 0.604E-04 0.149E-03 0.321E-03 0.438E-03 0.610E-03 0.691E-03 0.102E-02 0.110E-02
         2 0.852E-03 0.164E-02 0.510E-02 0.898E-02 0.102E-01 0.125E-01 0.128E-01 0.191E-01


 Contracted 2-electron integrals neglected if value below      1.0D-22

      109944325. INTEGRALS WRITTEN OUT IN   26849 BLOCKS ON RECORD 1290 OF FILE 1


 NUMBER OF SORTED TWO-ELECTRON INTEGRALS:  115283741.     BUFFER LENGTH:  32768
 NUMBER OF SEGMENTS:   8  SEGMENT LENGTH:   15998004      RECORD LENGTH: 524288

 Memory used in sort:      16.56 MW

 SORT1 READ   109944325. AND WROTE   110864472. INTEGRALS IN    322 RECORDS. CPU TIME:     2.64 SEC, REAL TIME:     3.47 SEC
 SORT2 READ   110864472. AND WROTE   115283741. INTEGRALS IN      8 RECORDS. CPU TIME:     1.47 SEC, REAL TIME:     2.04 SEC

 FILE SIZES:   FILE 1:  1780.6 MBYTE,  FILE 4:  1350.6 MBYTE,   TOTAL:   3131.2 MBYTE

 OPERATOR DM      FOR CENTER  0  COORDINATES:    0.000000    0.000000    0.000000


 **********************************************************************************************************************************
 DATASETS  * FILE   NREC   LENGTH (MB)   RECORD NAMES
              1      19      944.13       500      610      700      900      950      970     1000      129      960     1100   
                                          VAR    BASINP    GEOM    SYMINP    ZMAT    AOBASIS   BASIS     P2S    ABASIS      S 
                                         1400     1410     1200     1210     1080     1600     1650     1300     1700   
                                           T        V       H0       H01     AOSYM     SMH    MOLCAS    ERIS     OPER   

 PROGRAMS   *        TOTAL       INT
 CPU TIMES  *        14.47     14.37
 REAL TIME  *        17.34 SEC
 DISK USED  *         3.13 GB      
 **********************************************************************************************************************************


 PROGRAM * RHF-SCF (CLOSED SHELL)       Authors: W. Meyer, H.-J. Werner


 NUMBER OF ELECTRONS:       8+    8-
 CONVERGENCE THRESHOLDS:    1.00E-10 (Density)    1.00E-13 (Energy)
 MAX. NUMBER OF ITERATIONS:      500
 INTERPOLATION TYPE:            DIIS
 INTERPOLATION STEPS:              2 (START)      1 (STEP)
 LEVEL SHIFTS:                  0.00 (CLOSED)  0.00 (OPEN) 



 Orbital guess generated from atomic densities. Full valence occupancy:    9   2

 Molecular orbital dump at record        2100.2

 Initial occupancy:   7   1

 ITERATION    DDIFF          GRAD             ENERGY        2-EL.EN.            DIPOLE MOMENTS         DIIS   ORB.
    1      0.000D+00      0.000D+00      -129.79325204    153.579657    0.00000    0.58829   -1.05869    0    start
    2      0.000D+00      0.822D-02      -129.82016029    154.783766    0.00000    0.61800   -0.19693    1    diag
    3      0.670D-02      0.643D-02      -129.84504645    154.932870    0.00000    0.55664   -0.60499    2    diag
    4      0.345D-02      0.981D-03      -129.84587170    154.639702    0.00000    0.56439   -0.54215    3    diag
    5      0.613D-03      0.322D-03      -129.84600304    154.733965    0.00000    0.56960   -0.54443    4    diag
    6      0.258D-03      0.933D-04      -129.84602413    154.717607    0.00000    0.56981   -0.54003    5    diag
    7      0.986D-04      0.469D-04      -129.84603045    154.720272    0.00000    0.57101   -0.53724    6    diag
    8      0.687D-04      0.169D-04      -129.84603123    154.719525    0.00000    0.57104   -0.53612    7    diag
    9      0.279D-04      0.328D-05      -129.84603127    154.719400    0.00000    0.57100   -0.53588    8    diag
   10      0.567D-05      0.722D-06      -129.84603127    154.719382    0.00000    0.57097   -0.53585    9    orth
   11      0.104D-05      0.143D-06      -129.84603127    154.719379    0.00000    0.57096   -0.53585    9    diag
   12      0.185D-06      0.299D-07      -129.84603127    154.719379    0.00000    0.57096   -0.53585    9    diag
   13      0.405D-07      0.793D-08      -129.84603127    154.719379    0.00000    0.57096   -0.53585    9    diag
   14      0.114D-07      0.154D-08      -129.84603127    154.719379    0.00000    0.57096   -0.53585    9    diag
   15      0.203D-08      0.436D-09      -129.84603127    154.719379    0.00000    0.57096   -0.53585    9    diag
   16      0.615D-09      0.127D-09      -129.84603127    154.719379    0.00000    0.57096   -0.53585    9    diag
   17      0.110D-09      0.322D-10      -129.84603127    154.719379    0.00000    0.57096   -0.53585    9    diag
   18      0.291D-10      0.105D-10      -129.84603127    154.719379    0.00000    0.57096   -0.53585    9    diag
   19      0.142D-10      0.236D-11      -129.84603127    154.719379    0.00000    0.57096   -0.53585    0    orth

 Final occupancy:   7   1

 !RHF STATE 1.1 Energy               -129.846031267967
 Nuclear energy                        30.15268496
 One-electron energy                 -237.35840573
 Two-electron energy                   77.35968950
 Virial quotient                       -1.00202475
 !RHF STATE 1.1 Dipole moment           0.00000000     0.57096145    -0.53585032
 Dipole moment /Debye                   0.00000000     1.45114419    -1.36190646

 Orbital energies:

         1.1          2.1          3.1          4.1          5.1          6.1          7.1          8.1          9.1
    -20.654401   -15.714712    -1.521509    -0.996289    -0.744008    -0.662823    -0.434590     0.026319     0.079474

         1.2          2.2          3.2
     -0.591181     0.060712     0.110047

 HOMO      7.1    -0.434590 =     -11.8258eV
 LUMO      8.1     0.026319 =       0.7162eV
 LUMO-HOMO         0.460909 =      12.5420eV


 **********************************************************************************************************************************
 DATASETS  * FILE   NREC   LENGTH (MB)   RECORD NAMES
              1      19      944.13       500      610      700      900      950      970     1000      129      960     1100   
                                          VAR    BASINP    GEOM    SYMINP    ZMAT    AOBASIS   BASIS     P2S    ABASIS      S 
                                         1400     1410     1200     1210     1080     1600     1650     1300     1700   
                                           T        V       H0       H01     AOSYM     SMH    MOLCAS    ERIS     OPER   

              2       4        3.27       700     1000      520     2100   
                                         GEOM     BASIS   MCVARS     RHF  

 PROGRAMS   *        TOTAL        HF       INT
 CPU TIMES  *        26.46     11.99     14.37
 REAL TIME  *        31.48 SEC
 DISK USED  *         3.13 GB      
 **********************************************************************************************************************************


 PROGRAM * CCSD (Closed-shell coupled cluster)     Authors: C. Hampel, H.-J. Werner, 1991, M. Deegan, P.J. Knowles, 1992


 Convergence thresholds:  THRVAR = 1.00D-08  THRDEN = 1.00D-12

 CCSD(T)     terms to be evaluated (factor= 1.000)


 Number of core orbitals:           2 (   2   0 )
 Number of closed-shell orbitals:   6 (   5   1 )
 Number of external orbitals:     198 ( 123  75 )

 Molecular orbitals read from record     2100.2  Type=RHF/CANONICAL (state 1.1)

 Number of N-1 electron functions:               6
 Number of N-2 electron functions:              21
 Number of singly external CSFs:               690
 Number of doubly external CSFs:            362646
 Total number of CSFs:                      363337

 Length of J-op  integral file:               0.00 MB
 Length of K-op  integral file:               1.60 MB
 Length of 3-ext integral record:             0.00 MB

 Memory could be reduced to 34.67 Mwords without degradation in triples

 Integral transformation finished. Total CPU:   1.99 sec, npass=  1  Memory used:   9.53 MW

 Reference energy:                   -129.84603127

 MP2 singlet pair energy:              -0.30272867
 MP2 triplet pair energy:              -0.17118274
 MP2 correlation energy:               -0.47391141
 MP2 total energy:                   -130.31994268

 SCS-MP2 correlation energy:           -0.46978811   (PS=  1.200000  PT=  0.333333)
 SCS-MP2 total energy:               -130.31581937

 ITER.      SQ.NORM     CORR.ENERGY   TOTAL ENERGY   ENERGY CHANGE        DEN1      VAR(S)    VAR(P)  DIIS     TIME  TIME/IT
   1      1.12216253    -0.47350656  -130.31953783     0.00040485     0.01727319  0.33D-02  0.33D-02  1  1     3.77     1.90
   2      1.13312092    -0.47337522  -130.31940649     0.00013134    -0.01277113  0.11D-03  0.51D-03  2  2     5.64     1.93
   3      1.13962849    -0.47376733  -130.31979859    -0.00039211    -0.00311313  0.51D-04  0.56D-04  3  3     7.51     1.95
   4      1.14249904    -0.47377532  -130.31980659    -0.00000800    -0.00096745  0.46D-05  0.10D-04  4  4     9.32     1.95
   5      1.14365278    -0.47380676  -130.31983803    -0.00003144    -0.00025138  0.12D-05  0.16D-05  5  5    11.21     1.96
   6      1.14401985    -0.47379071  -130.31982198     0.00001605    -0.00005334  0.11D-06  0.39D-06  6  6    13.02     1.96
   7      1.14409113    -0.47379131  -130.31982258    -0.00000061     0.00000315  0.16D-07  0.89D-07  6  1    14.82     1.96
   8      1.14411369    -0.47379150  -130.31982276    -0.00000018    -0.00000117  0.31D-08  0.18D-07  6  2    16.67     1.96
   9      1.14411846    -0.47379109  -130.31982236     0.00000040     0.00000103  0.25D-08  0.22D-08  6  4    18.51     1.96
  10      1.14412100    -0.47379146  -130.31982273    -0.00000037    -0.00000077  0.48D-09  0.27D-09  6  3    20.37     1.97
  11      1.14412079    -0.47379152  -130.31982279    -0.00000006    -0.00000014  0.16D-09  0.37D-10  6  5    22.23     1.97
  12      1.14411983    -0.47379167  -130.31982294    -0.00000015     0.00000036  0.19D-10  0.11D-10  6  6    24.07     1.97
  13      1.14411896    -0.47379171  -130.31982298    -0.00000004     0.00000022  0.59D-11  0.24D-11  6  1    25.95     1.97
  14      1.14411826    -0.47379175  -130.31982302    -0.00000004     0.00000016  0.35D-12  0.53D-12  6  4    27.81     1.97
  15      1.14411804    -0.47379175  -130.31982302    -0.00000001     0.00000003  0.81D-13  0.41D-13  6  2    29.69     1.97
  16      1.14411799    -0.47379176  -130.31982302    -0.00000000     0.00000001  0.22D-13  0.75D-14  6  3    31.53     1.97
  17      1.14411796    -0.47379176  -130.31982303    -0.00000000     0.00000001  0.40D-14  0.10D-14  6  5    33.35     1.97
  18      1.14411796    -0.47379176  -130.31982303    -0.00000000     0.00000000  0.86D-15  0.25D-15  6  6    35.17     1.97
  19      1.14411796    -0.47379176  -130.31982303    -0.00000000     0.00000000  0.11D-15  0.50D-16  6  1    37.03     1.97
  20      1.14411796    -0.47379176  -130.31982303     0.00000000    -0.00000000  0.99D-17  0.74D-17  6  4    38.88     1.97
  21      1.14411796    -0.47379176  -130.31982303     0.00000000    -0.00000000  0.50D-18  0.57D-18  6  3    40.72     1.97
  22      1.14411796    -0.47379176  -130.31982303     0.00000000    -0.00000000  0.12D-18  0.92D-19  6  2    42.54     1.97
  23      1.14411796    -0.47379176  -130.31982303     0.00000000     0.00000000  0.38D-19  0.34D-19  6  5    44.41     1.97
  24      1.14411796    -0.47379176  -130.31982303    -0.00000000     0.00000000  0.34D-20  0.77D-20  6  1    46.28     1.97

 Norm of t1 vector:      0.07826883      S-energy:    -0.00000000      T1 diagnostic:  0.01597656
                                                                       D1 diagnostic:  0.04349691

 Doubles amplitudes (print threshold =  0.500E-01):

         I         J         SYM. A    SYM. B    A         B      T(IJ, AB)

         6         6         2         2         1         1     -0.10433578


 Total CPU time for triples:     22.23 sec


 RESULTS
 =======

  Reference energy                   -129.846031267967
  CCSD singlet pair energy             -0.327740055535
  CCSD triplet pair energy             -0.146051701578
  CCSD correlation energy              -0.473791757114

  Triples (T) contribution             -0.022695019639
  Total correlation energy             -0.496486776753

  CCSD total energy                  -130.319823025081
  CCSD[T] energy                     -130.343633887421
  CCSD-T energy                      -130.342122712637
 !CCSD(T) total energy               -130.342518044720

 Timing summary (sec):

 STEP                 CPU(USER)    SYS     CPU(TOT)    WALL
 Transformation          2.01      0.24      2.25      2.58
 CCSD iterations        44.27      3.13     47.40     47.42
 Triples                22.23      0.42     22.65     22.65

 Program statistics:

 Available memory in ccsd:               994999756
 Min. memory needed in ccsd:               1265322
 Max. memory used in ccsd:                 1555950
 Max. memory used in cckext:               2415326 (24 integral passes)



 **********************************************************************************************************************************
 DATASETS  * FILE   NREC   LENGTH (MB)   RECORD NAMES
              1      20     1044.68       500      610      700      900      950      970     1000      129      960     1100   
                                          VAR    BASINP    GEOM    SYMINP    ZMAT    AOBASIS   BASIS     P2S    ABASIS      S 
                                         1400     1410     1200     1210     1080     1600     1650     1300     1700     1380   
                                           T        V       H0       H01     AOSYM     SMH    MOLCAS    ERIS     OPER     JKOP   

              2       4        3.27       700     1000      520     2100   
                                         GEOM     BASIS   MCVARS     RHF  

 PROGRAMS   *        TOTAL   CCSD(T)        HF       INT
 CPU TIMES  *        95.01     68.55     11.99     14.37
 REAL TIME  *       104.16 SEC
 DISK USED  *         3.13 GB      
 **********************************************************************************************************************************

 CCSD(T)/aug-cc-pVQZ energy=   -130.342518044720

        CCSD(T)         HF-SCF  
   -130.34251804   -129.84603127
 **********************************************************************************************************************************
 Molpro calculation terminated
 Variable memory released
