
 Primary working directories    : /tmp/r2666/234862.maple
 Secondary working directories  : /tmp/r2666/234862.maple
 Wavefunction directory         : /ddn/home4/r2666/wfu/
 Main file repository           : /tmp/r2666/234862.maple/

 SHA1      : d5ffa45e93fdbca01ffc919aa182cfdae0147319
 NAME      : 2015.1.35
 ARCHNAME  : linux/x86_64
 FC        : /opt/intel/composer_xe_2015.1.133/bin/intel64/ifort
 BLASLIB   : -Wl,-_start-group /opt/intel/mkl/lib/intel64/libmkl_intel_ilp64.a /opt/intel/mkl/lib/intel64/libmkl_intel_thread.a /opt/intel/mkl/lib/intel64/libmkl_core.a -Wl,-_end-group
 id        : olemiss

 Nodes     nprocs
 cn091        1

 Using customized tuning parameters: mindgm=1; mindgv=20; mindgc=4; mindgr=1; noblas=0; minvec=7
 default implementation of scratch files=df  

 ***,hno CCSD(T)/TZ-F12 QFF
 memory, 995, m;
 gthresh,energy=1.d-12,zero=1.d-22,oneint=1.d-22,twoint=1.d-22;
 gthresh,optgrad=1.d-8,optstep=1.d-8;
 nocompress;
 geomtyp=xyz
 bohr
 geometry={
 3
        105       105
 N        0.0000000000       -0.1681775965       -1.1540031467
 H        0.0000000000        1.6722854812       -1.9303547247
 O        0.0000000000        0.0376599054        1.1337682804
 }
 
 basis=avqz
   {hf,maxit=500;accu,20;}
 {ccsd(t),nocheck,maxit=250;orbital,IGNORE_ERROR;}

 Variables initialized (889), CPU time= 0.01 sec
 Commands  initialized (702), CPU time= 0.00 sec, 572 directives.
 Default parameters read. Elapsed time= 0.05 sec

 Checking input...
 Passed
1


                                         ***  PROGRAM SYSTEM MOLPRO  ***
                                       Copyright, TTI GmbH Stuttgart, 2015
                                    Version 2015.1 linked Jul  9 2018 13:16:40


 **********************************************************************************************************************************
 LABEL *   hno CCSD(T)/TZ-F12 QFF                                                        
  64 bit serial version                                                                  DATE: 08-Feb-20          TIME: 17:54:51  
 **********************************************************************************************************************************

 SHA1:             d5ffa45e93fdbca01ffc919aa182cfdae0147319
 **********************************************************************************************************************************

 THRESHOLDS:

 ZERO    =  1.00D-22  ONEINT  =  1.00D-22  TWOINT  =  1.00D-22  PREFAC  =  1.00D-14  LOCALI  =  1.00D-09  EORDER  =  1.00D-04
 ENERGY  =  1.00D-12  ETEST   =  0.00D+00  EDENS   =  0.00D+00  THRDEDEF=  1.00D-06  GRADIENT=  1.00D-02  STEP    =  1.00D-03
 ORBITAL =  1.00D-05  CIVEC   =  1.00D-05  COEFF   =  1.00D-04  PRINTCI =  5.00D-02  PUNCHCI =  9.90D+01  OPTGRAD =  3.00D-04
 OPTENERG=  1.00D-06  OPTSTEP =  3.00D-04  THRGRAD =  1.00D-10  COMPRESS=  1.00D-11  VARMIN  =  1.00D-07  VARMAX  =  1.00D-03
 THRDOUB =  0.00D+00  THRDIV  =  1.00D-05  THRRED  =  1.00D-07  THRPSP  =  1.00D+00  THRDC   =  1.00D-10  THRCS   =  1.00D-10
 THRNRM  =  1.00D-08  THREQ   =  0.00D+00  THRDE   =  1.00D+00  THRREF  =  1.00D-05  SPARFAC =  1.00D+00  THRDLP  =  1.00D-07
 THRDIA  =  1.00D-10  THRDLS  =  1.00D-07  THRGPS  =  0.00D+00  THRKEX  =  0.00D+00  THRDIS  =  2.00D-01  THRVAR  =  1.00D-10
 THRLOC  =  1.00D-06  THRGAP  =  1.00D-06  THRLOCT = -1.00D+00  THRGAPT = -1.00D+00  THRORB  =  1.00D-06  THRMLTP =  0.00D+00
 THRCPQCI=  1.00D-10  KEXTA   =  0.00D+00  THRCOARS=  0.00D+00  SYMTOL  =  1.00D-06  GRADTOL =  1.00D-06  THROVL  =  1.00D-08
 THRORTH =  1.00D-08  GRID    =  1.00D-06  GRIDMAX =  1.00D-03  DTMAX   =  0.00D+00  THROCCDE=  1.00D-01  THROCCDE=  1.00D-01



 THRESHOLDS:

 ZERO    =  1.00D-22  ONEINT  =  1.00D-22  TWOINT  =  1.00D-22  PREFAC  =  1.00D-14  LOCALI  =  1.00D-09  EORDER  =  1.00D-04
 ENERGY  =  1.00D-12  ETEST   =  0.00D+00  EDENS   =  0.00D+00  THRDEDEF=  1.00D-06  GRADIENT=  1.00D-02  STEP    =  1.00D-03
 ORBITAL =  1.00D-05  CIVEC   =  1.00D-05  COEFF   =  1.00D-04  PRINTCI =  5.00D-02  PUNCHCI =  9.90D+01  OPTGRAD =  1.00D-08
 OPTENERG=  1.00D-06  OPTSTEP =  1.00D-08  THRGRAD =  1.00D-10  COMPRESS=  1.00D-11  VARMIN  =  1.00D-07  VARMAX  =  1.00D-03
 THRDOUB =  0.00D+00  THRDIV  =  1.00D-05  THRRED  =  1.00D-07  THRPSP  =  1.00D+00  THRDC   =  1.00D-10  THRCS   =  1.00D-10
 THRNRM  =  1.00D-08  THREQ   =  0.00D+00  THRDE   =  1.00D+00  THRREF  =  1.00D-05  SPARFAC =  1.00D+00  THRDLP  =  1.00D-07
 THRDIA  =  1.00D-10  THRDLS  =  1.00D-07  THRGPS  =  0.00D+00  THRKEX  =  0.00D+00  THRDIS  =  2.00D-01  THRVAR  =  1.00D-10
 THRLOC  =  1.00D-06  THRGAP  =  1.00D-06  THRLOCT = -1.00D+00  THRGAPT = -1.00D+00  THRORB  =  1.00D-06  THRMLTP =  0.00D+00
 THRCPQCI=  1.00D-10  KEXTA   =  0.00D+00  THRCOARS=  0.00D+00  SYMTOL  =  1.00D-06  GRADTOL =  1.00D-06  THROVL  =  1.00D-08
 THRORTH =  1.00D-08  GRID    =  1.00D-06  GRIDMAX =  1.00D-03  DTMAX   =  0.00D+00  THROCCDE=  1.00D-01  THROCCDE=  1.00D-01



 Input parameters for SORTINT:

 COMPRESS =    0.000000
 C_FINAL  =    1.000000
 DEBUG    =   -1.000000
 C_SORT1  =    0.000000
 C_SEWARD =    0.000000
 THRESH   =    0.000000
 IO       =  molpro                                                          
 SPRI     =    0.000000
 SETTING GEOMTYP        =    XYZ
 ZUNIT=BOHR
 

 Variable memory set to  995000000 words,  buffer space   230000 words

 SETTING BASIS          =    AVQZ


 Recomputing integrals since basis changed


 Using spherical harmonics

 Library entry N      S aug-cc-pVQZ          selected for orbital group  1
 Library entry N      P aug-cc-pVQZ          selected for orbital group  1
 Library entry N      D aug-cc-pVQZ          selected for orbital group  1
 Library entry N      F aug-cc-pVQZ          selected for orbital group  1
 Library entry N      G aug-cc-pVQZ          selected for orbital group  1
 Library entry H      S aug-cc-pVQZ          selected for orbital group  2
 Library entry H      P aug-cc-pVQZ          selected for orbital group  2
 Library entry H      D aug-cc-pVQZ          selected for orbital group  2
 Library entry H      F aug-cc-pVQZ          selected for orbital group  2
 Library entry O      S aug-cc-pVQZ          selected for orbital group  3
 Library entry O      P aug-cc-pVQZ          selected for orbital group  3
 Library entry O      D aug-cc-pVQZ          selected for orbital group  3
 Library entry O      F aug-cc-pVQZ          selected for orbital group  3
 Library entry O      G aug-cc-pVQZ          selected for orbital group  3


 PROGRAM * SEWARD (Integral evaluation for generally contracted gaussian basis sets)     Author: Roland Lindh, 1990

 Geometry written to block  1 of record 700


 Point group  Cs  



 ATOMIC COORDINATES

 NR  ATOM    CHARGE       X              Y              Z

   1  N       7.00    0.000000000   -0.168177596   -1.154003147
   2  H       1.00    0.000000000    1.672285481   -1.930354725
   3  O       8.00    0.000000000    0.037659905    1.133768280

 Bond lengths in Bohr (Angstrom)

 1-2  1.997504972  1-3  2.297012664
     ( 1.057034110)     ( 1.215526755)

 Bond angles

  2-1-3  107.72996058

 NUCLEAR CHARGE:                   16
 NUMBER OF PRIMITIVE AOS:         293
 NUMBER OF SYMMETRY AOS:          234
 NUMBER OF CONTRACTIONS:          206   ( 130A'  +  76A"  )
 NUMBER OF CORE ORBITALS:           2   (   2A'  +   0A"  )
 NUMBER OF VALENCE ORBITALS:        9   (   7A'  +   2A"  )


 NUCLEAR REPULSION ENERGY   30.18743084

 Eigenvalues of metric

         1 0.605E-04 0.148E-03 0.321E-03 0.437E-03 0.603E-03 0.693E-03 0.103E-02 0.109E-02
         2 0.845E-03 0.166E-02 0.506E-02 0.898E-02 0.102E-01 0.125E-01 0.128E-01 0.193E-01


 Contracted 2-electron integrals neglected if value below      1.0D-22

      109945091. INTEGRALS WRITTEN OUT IN   26849 BLOCKS ON RECORD 1290 OF FILE 1


 NUMBER OF SORTED TWO-ELECTRON INTEGRALS:  115283741.     BUFFER LENGTH:  32768
 NUMBER OF SEGMENTS:   8  SEGMENT LENGTH:   15998004      RECORD LENGTH: 524288

 Memory used in sort:      16.56 MW

 SORT1 READ   109945091. AND WROTE   110865258. INTEGRALS IN    322 RECORDS. CPU TIME:     1.94 SEC, REAL TIME:     2.75 SEC
 SORT2 READ   110865258. AND WROTE   115283741. INTEGRALS IN      8 RECORDS. CPU TIME:     1.36 SEC, REAL TIME:     1.90 SEC

 FILE SIZES:   FILE 1:  1780.6 MBYTE,  FILE 4:  1350.6 MBYTE,   TOTAL:   3131.2 MBYTE

 OPERATOR DM      FOR CENTER  0  COORDINATES:    0.000000    0.000000    0.000000


 **********************************************************************************************************************************
 DATASETS  * FILE   NREC   LENGTH (MB)   RECORD NAMES
              1      19      944.14       500      610      700      900      950      970     1000      129      960     1100   
                                          VAR    BASINP    GEOM    SYMINP    ZMAT    AOBASIS   BASIS     P2S    ABASIS      S 
                                         1400     1410     1200     1210     1080     1600     1650     1300     1700   
                                           T        V       H0       H01     AOSYM     SMH    MOLCAS    ERIS     OPER   

 PROGRAMS   *        TOTAL       INT
 CPU TIMES  *        11.13     11.06
 REAL TIME  *        14.01 SEC
 DISK USED  *         3.13 GB      
 **********************************************************************************************************************************


 PROGRAM * RHF-SCF (CLOSED SHELL)       Authors: W. Meyer, H.-J. Werner


 NUMBER OF ELECTRONS:       8+    8-
 CONVERGENCE THRESHOLDS:    1.00E-10 (Density)    1.00E-13 (Energy)
 MAX. NUMBER OF ITERATIONS:      500
 INTERPOLATION TYPE:            DIIS
 INTERPOLATION STEPS:              2 (START)      1 (STEP)
 LEVEL SHIFTS:                  0.00 (CLOSED)  0.00 (OPEN) 



 Orbital guess generated from atomic densities. Full valence occupancy:    9   2

 Molecular orbital dump at record        2100.2

 Initial occupancy:   7   1

 ITERATION    DDIFF          GRAD             ENERGY        2-EL.EN.            DIPOLE MOMENTS         DIIS   ORB.
    1      0.000D+00      0.000D+00      -129.79392733    153.634671    0.00000    0.59052   -1.05074    0    start
    2      0.000D+00      0.821D-02      -129.82093937    154.855221    0.00000    0.61514   -0.19992    1    diag
    3      0.667D-02      0.638D-02      -129.84542514    154.994636    0.00000    0.55657   -0.60279    2    diag
    4      0.342D-02      0.979D-03      -129.84624617    154.702852    0.00000    0.56398   -0.54029    3    diag
    5      0.612D-03      0.321D-03      -129.84637692    154.797458    0.00000    0.56933   -0.54272    4    diag
    6      0.257D-03      0.930D-04      -129.84639791    154.781092    0.00000    0.56957   -0.53837    5    diag
    7      0.985D-04      0.466D-04      -129.84640414    154.783809    0.00000    0.57080   -0.53564    6    diag
    8      0.683D-04      0.167D-04      -129.84640488    154.783077    0.00000    0.57084   -0.53455    7    diag
    9      0.273D-04      0.323D-05      -129.84640492    154.782952    0.00000    0.57080   -0.53431    8    diag
   10      0.554D-05      0.722D-06      -129.84640492    154.782933    0.00000    0.57077   -0.53428    9    orth
   11      0.104D-05      0.143D-06      -129.84640492    154.782930    0.00000    0.57076   -0.53428    9    diag
   12      0.188D-06      0.296D-07      -129.84640492    154.782930    0.00000    0.57076   -0.53428    9    diag
   13      0.408D-07      0.780D-08      -129.84640492    154.782930    0.00000    0.57076   -0.53428    9    diag
   14      0.114D-07      0.153D-08      -129.84640492    154.782929    0.00000    0.57076   -0.53428    9    diag
   15      0.205D-08      0.433D-09      -129.84640492    154.782930    0.00000    0.57076   -0.53428    9    diag
   16      0.616D-09      0.127D-09      -129.84640492    154.782929    0.00000    0.57076   -0.53428    9    diag
   17      0.111D-09      0.326D-10      -129.84640492    154.782930    0.00000    0.57076   -0.53428    9    diag
   18      0.313D-10      0.108D-10      -129.84640492    154.782930    0.00000    0.57076   -0.53428    9    diag
   19      0.142D-10      0.249D-11      -129.84640492    154.782930    0.00000    0.57076   -0.53428    9    fixocc
   20      0.399D-11      0.412D-12      -129.84640492    154.782930    0.00000    0.57076   -0.53428    9    orth
   21      0.298D-11      0.186D-12      -129.84640492    154.782930    0.00000    0.57076   -0.53428    9    diag
   22      0.210D-11      0.161D-12      -129.84640492    154.782930    0.00000    0.57076   -0.53428    9    diag
   23      0.143D-11      0.119D-12      -129.84640492    154.782930    0.00000    0.57076   -0.53428    9    diag
   24      0.857D-12      0.911D-13      -129.84640492    154.782930    0.00000    0.57076   -0.53428    9    diag
   25      0.532D-12      0.711D-13      -129.84640492    154.782930    0.00000    0.57076   -0.53428    9    diag
   26      0.354D-12      0.984D-13      -129.84640492    154.782930    0.00000    0.57076   -0.53428    9    diag
   27      0.359D-12      0.107D-12      -129.84640492    154.782930    0.00000    0.57076   -0.53428    9    diag
   28      0.133D-12      0.131D-12      -129.84640492    154.782930    0.00000    0.57076   -0.53428    9    diag
   29      0.236D-12      0.107D-12      -129.84640492    154.782930    0.00000    0.57076   -0.53428    9    diag
   30      0.664D-13      0.922D-13      -129.84640492    154.782930    0.00000    0.57076   -0.53428    9    orth
   31      0.956D-13      0.701D-13      -129.84640492    154.782930    0.00000    0.57076   -0.53428    9    diag
   32      0.212D-12      0.978D-13      -129.84640492    154.782930    0.00000    0.57076   -0.53428    9    diag
   33      0.174D-12      0.690D-13      -129.84640492    154.782930    0.00000    0.57076   -0.53428    0    orth

 Final occupancy:   7   1

 !RHF STATE 1.1 Energy               -129.846404920616
 Nuclear energy                        30.18743084
 One-electron energy                 -237.42530051
 Two-electron energy                   77.39146475
 Virial quotient                       -1.00201457
 !RHF STATE 1.1 Dipole moment           0.00000000     0.57075597    -0.53428201
 Dipole moment /Debye                   0.00000000     1.45062196    -1.35792046

 Orbital energies:

         1.1          2.1          3.1          4.1          5.1          6.1          7.1          8.1          9.1
    -20.654377   -15.714701    -1.523619    -0.994762    -0.744380    -0.663862    -0.432845     0.026293     0.079465

         1.2          2.2          3.2
     -0.592639     0.061440     0.110245

 HOMO      7.1    -0.432845 =     -11.7783eV
 LUMO      8.1     0.026293 =       0.7155eV
 LUMO-HOMO         0.459139 =      12.4938eV


 **********************************************************************************************************************************
 DATASETS  * FILE   NREC   LENGTH (MB)   RECORD NAMES
              1      19      944.14       500      610      700      900      950      970     1000      129      960     1100   
                                          VAR    BASINP    GEOM    SYMINP    ZMAT    AOBASIS   BASIS     P2S    ABASIS      S 
                                         1400     1410     1200     1210     1080     1600     1650     1300     1700   
                                           T        V       H0       H01     AOSYM     SMH    MOLCAS    ERIS     OPER   

              2       4        3.27       700     1000      520     2100   
                                         GEOM     BASIS   MCVARS     RHF  

 PROGRAMS   *        TOTAL        HF       INT
 CPU TIMES  *        27.32     16.19     11.06
 REAL TIME  *        34.69 SEC
 DISK USED  *         3.13 GB      
 **********************************************************************************************************************************


 PROGRAM * CCSD (Closed-shell coupled cluster)     Authors: C. Hampel, H.-J. Werner, 1991, M. Deegan, P.J. Knowles, 1992


 Convergence thresholds:  THRVAR = 1.00D-08  THRDEN = 1.00D-12

 CCSD(T)     terms to be evaluated (factor= 1.000)


 Number of core orbitals:           2 (   2   0 )
 Number of closed-shell orbitals:   6 (   5   1 )
 Number of external orbitals:     198 ( 123  75 )

 Molecular orbitals read from record     2100.2  Type=RHF/CANONICAL (state 1.1)

 Number of N-1 electron functions:               6
 Number of N-2 electron functions:              21
 Number of singly external CSFs:               690
 Number of doubly external CSFs:            362646
 Total number of CSFs:                      363337

 Length of J-op  integral file:               0.00 MB
 Length of K-op  integral file:               1.60 MB
 Length of 3-ext integral record:             0.00 MB

 Memory could be reduced to 34.67 Mwords without degradation in triples

 Integral transformation finished. Total CPU:   1.49 sec, npass=  1  Memory used:   9.53 MW

 Reference energy:                   -129.84640492

 MP2 singlet pair energy:              -0.30250760
 MP2 triplet pair energy:              -0.17102553
 MP2 correlation energy:               -0.47353312
 MP2 total energy:                   -130.31993804

 SCS-MP2 correlation energy:           -0.46942500   (PS=  1.200000  PT=  0.333333)
 SCS-MP2 total energy:               -130.31582992

 ITER.      SQ.NORM     CORR.ENERGY   TOTAL ENERGY   ENERGY CHANGE        DEN1      VAR(S)    VAR(P)  DIIS     TIME  TIME/IT
   1      1.12200433    -0.47324700  -130.31965192     0.00028612     0.01707059  0.33D-02  0.33D-02  1  1     2.77     1.41
   2      1.13292332    -0.47313767  -130.31954259     0.00010933    -0.01272184  0.11D-03  0.50D-03  2  2     4.02     1.42
   3      1.13940680    -0.47352975  -130.31993467    -0.00039208    -0.00310478  0.51D-04  0.55D-04  3  3     5.30     1.42
   4      1.14225690    -0.47353646  -130.31994138    -0.00000671    -0.00096294  0.47D-05  0.10D-04  4  4     6.58     1.43
   5      1.14340580    -0.47356770  -130.31997262    -0.00003124    -0.00025025  0.12D-05  0.16D-05  5  5     7.88     1.44
   6      1.14377305    -0.47355194  -130.31995686     0.00001576    -0.00005305  0.12D-06  0.39D-06  6  6     9.17     1.44
   7      1.14384637    -0.47355240  -130.31995732    -0.00000045     0.00000284  0.17D-07  0.90D-07  6  1    10.46     1.44
   8      1.14386945    -0.47355263  -130.31995755    -0.00000023    -0.00000124  0.33D-08  0.18D-07  6  2    11.72     1.44
   9      1.14387457    -0.47355220  -130.31995712     0.00000042     0.00000103  0.25D-08  0.22D-08  6  4    12.93     1.44
  10      1.14387714    -0.47355258  -130.31995750    -0.00000038    -0.00000078  0.48D-09  0.26D-09  6  3    14.20     1.44
  11      1.14387691    -0.47355265  -130.31995757    -0.00000006    -0.00000013  0.16D-09  0.37D-10  6  5    15.45     1.44
  12      1.14387592    -0.47355279  -130.31995771    -0.00000015     0.00000036  0.20D-10  0.11D-10  6  6    16.74     1.43
  13      1.14387505    -0.47355283  -130.31995776    -0.00000004     0.00000022  0.61D-11  0.25D-11  6  1    18.00     1.43
  14      1.14387434    -0.47355287  -130.31995779    -0.00000003     0.00000016  0.38D-12  0.51D-12  6  4    19.29     1.43
  15      1.14387413    -0.47355288  -130.31995780    -0.00000001     0.00000003  0.88D-13  0.40D-13  6  2    20.54     1.44
  16      1.14387407    -0.47355288  -130.31995780    -0.00000000     0.00000001  0.24D-13  0.75D-14  6  3    21.87     1.44
  17      1.14387404    -0.47355288  -130.31995780    -0.00000000     0.00000001  0.43D-14  0.11D-14  6  5    23.14     1.44
  18      1.14387404    -0.47355288  -130.31995780    -0.00000000     0.00000000  0.89D-15  0.27D-15  6  6    24.47     1.44
  19      1.14387404    -0.47355288  -130.31995780    -0.00000000     0.00000000  0.11D-15  0.55D-16  6  1    25.78     1.44
  20      1.14387404    -0.47355288  -130.31995780     0.00000000    -0.00000000  0.10D-16  0.79D-17  6  4    27.09     1.44
  21      1.14387404    -0.47355288  -130.31995780     0.00000000    -0.00000000  0.54D-18  0.63D-18  6  3    28.39     1.45
  22      1.14387404    -0.47355288  -130.31995780     0.00000000    -0.00000000  0.14D-18  0.13D-18  6  2    29.67     1.45
  23      1.14387404    -0.47355288  -130.31995780     0.00000000     0.00000000  0.41D-19  0.47D-19  6  5    31.02     1.45
  24      1.14387404    -0.47355288  -130.31995780    -0.00000000     0.00000000  0.34D-20  0.10D-19  6  1    32.33     1.45

 Norm of t1 vector:      0.07813174      S-energy:    -0.00000000      T1 diagnostic:  0.01594858
                                                                       D1 diagnostic:  0.04314549

 Doubles amplitudes (print threshold =  0.500E-01):

         I         J         SYM. A    SYM. B    A         B      T(IJ, AB)

         6         6         2         2         1         1     -0.10264870


 Total CPU time for triples:     16.72 sec


 RESULTS
 =======

  Reference energy                   -129.846404920616
  CCSD singlet pair energy             -0.327534278142
  CCSD triplet pair energy             -0.146018601298
  CCSD correlation energy              -0.473552879442

  Triples (T) contribution             -0.022633218948
  Total correlation energy             -0.496186098390

  CCSD total energy                  -130.319957800058
  CCSD[T] energy                     -130.343701317696
  CCSD-T energy                      -130.342196270360
 !CCSD(T) total energy               -130.342591019006

 Timing summary (sec):

 STEP                 CPU(USER)    SYS     CPU(TOT)    WALL
 Transformation          1.51      0.30      1.81      2.19
 CCSD iterations        30.83      4.09     34.92     34.90
 Triples                16.72      0.43     17.15     17.17

 Program statistics:

 Available memory in ccsd:               994999756
 Min. memory needed in ccsd:               1265322
 Max. memory used in ccsd:                 1555950
 Max. memory used in cckext:               2415326 (24 integral passes)



 **********************************************************************************************************************************
 DATASETS  * FILE   NREC   LENGTH (MB)   RECORD NAMES
              1      20     1044.69       500      610      700      900      950      970     1000      129      960     1100   
                                          VAR    BASINP    GEOM    SYMINP    ZMAT    AOBASIS   BASIS     P2S    ABASIS      S 
                                         1400     1410     1200     1210     1080     1600     1650     1300     1700     1380   
                                           T        V       H0       H01     AOSYM     SMH    MOLCAS    ERIS     OPER     JKOP   

              2       4        3.27       700     1000      520     2100   
                                         GEOM     BASIS   MCVARS     RHF  

 PROGRAMS   *        TOTAL   CCSD(T)        HF       INT
 CPU TIMES  *        76.40     49.07     16.19     11.06
 REAL TIME  *        88.98 SEC
 DISK USED  *         3.13 GB      
 **********************************************************************************************************************************

 CCSD(T)/aug-cc-pVQZ energy=   -130.342591019006

        CCSD(T)         HF-SCF  
   -130.34259102   -129.84640492
 **********************************************************************************************************************************
 Molpro calculation terminated
 Variable memory released
