
 Primary working directories    : /tmp/r2666/234772.maple
 Secondary working directories  : /tmp/r2666/234772.maple
 Wavefunction directory         : /ddn/home4/r2666/wfu/
 Main file repository           : /tmp/r2666/234772.maple/

 SHA1      : d5ffa45e93fdbca01ffc919aa182cfdae0147319
 NAME      : 2015.1.35
 ARCHNAME  : linux/x86_64
 FC        : /opt/intel/composer_xe_2015.1.133/bin/intel64/ifort
 BLASLIB   : -Wl,-_start-group /opt/intel/mkl/lib/intel64/libmkl_intel_ilp64.a /opt/intel/mkl/lib/intel64/libmkl_intel_thread.a /opt/intel/mkl/lib/intel64/libmkl_core.a -Wl,-_end-group
 id        : olemiss

 Nodes     nprocs
 cn091        1

 Using customized tuning parameters: mindgm=1; mindgv=20; mindgc=4; mindgr=1; noblas=0; minvec=7
 default implementation of scratch files=df  

 ***,hno CCSD(T)/TZ-F12 QFF
 memory, 995, m;
 gthresh,energy=1.d-12,zero=1.d-22,oneint=1.d-22,twoint=1.d-22;
 gthresh,optgrad=1.d-8,optstep=1.d-8;
 nocompress;
 geomtyp=xyz
 bohr
 geometry={
 3
         15        15
 N        0.0000000000       -0.1534371825       -1.1570074303
 H        0.0000000000        1.6591112312       -1.9265889652
 O        0.0000000000        0.0360937414        1.1330068045
 }
 
 basis=avqz
   {hf,maxit=500;accu,20;}
 {ccsd(t),nocheck,maxit=250;orbital,IGNORE_ERROR;}

 Variables initialized (889), CPU time= 0.01 sec
 Commands  initialized (702), CPU time= 0.01 sec, 572 directives.
 Default parameters read. Elapsed time= 0.05 sec

 Checking input...
 Passed
1


                                         ***  PROGRAM SYSTEM MOLPRO  ***
                                       Copyright, TTI GmbH Stuttgart, 2015
                                    Version 2015.1 linked Jul  9 2018 13:16:40


 **********************************************************************************************************************************
 LABEL *   hno CCSD(T)/TZ-F12 QFF                                                        
  64 bit serial version                                                                  DATE: 08-Feb-20          TIME: 17:49:38  
 **********************************************************************************************************************************

 SHA1:             d5ffa45e93fdbca01ffc919aa182cfdae0147319
 **********************************************************************************************************************************

 THRESHOLDS:

 ZERO    =  1.00D-22  ONEINT  =  1.00D-22  TWOINT  =  1.00D-22  PREFAC  =  1.00D-14  LOCALI  =  1.00D-09  EORDER  =  1.00D-04
 ENERGY  =  1.00D-12  ETEST   =  0.00D+00  EDENS   =  0.00D+00  THRDEDEF=  1.00D-06  GRADIENT=  1.00D-02  STEP    =  1.00D-03
 ORBITAL =  1.00D-05  CIVEC   =  1.00D-05  COEFF   =  1.00D-04  PRINTCI =  5.00D-02  PUNCHCI =  9.90D+01  OPTGRAD =  3.00D-04
 OPTENERG=  1.00D-06  OPTSTEP =  3.00D-04  THRGRAD =  1.00D-10  COMPRESS=  1.00D-11  VARMIN  =  1.00D-07  VARMAX  =  1.00D-03
 THRDOUB =  0.00D+00  THRDIV  =  1.00D-05  THRRED  =  1.00D-07  THRPSP  =  1.00D+00  THRDC   =  1.00D-10  THRCS   =  1.00D-10
 THRNRM  =  1.00D-08  THREQ   =  0.00D+00  THRDE   =  1.00D+00  THRREF  =  1.00D-05  SPARFAC =  1.00D+00  THRDLP  =  1.00D-07
 THRDIA  =  1.00D-10  THRDLS  =  1.00D-07  THRGPS  =  0.00D+00  THRKEX  =  0.00D+00  THRDIS  =  2.00D-01  THRVAR  =  1.00D-10
 THRLOC  =  1.00D-06  THRGAP  =  1.00D-06  THRLOCT = -1.00D+00  THRGAPT = -1.00D+00  THRORB  =  1.00D-06  THRMLTP =  0.00D+00
 THRCPQCI=  1.00D-10  KEXTA   =  0.00D+00  THRCOARS=  0.00D+00  SYMTOL  =  1.00D-06  GRADTOL =  1.00D-06  THROVL  =  1.00D-08
 THRORTH =  1.00D-08  GRID    =  1.00D-06  GRIDMAX =  1.00D-03  DTMAX   =  0.00D+00  THROCCDE=  1.00D-01  THROCCDE=  1.00D-01



 THRESHOLDS:

 ZERO    =  1.00D-22  ONEINT  =  1.00D-22  TWOINT  =  1.00D-22  PREFAC  =  1.00D-14  LOCALI  =  1.00D-09  EORDER  =  1.00D-04
 ENERGY  =  1.00D-12  ETEST   =  0.00D+00  EDENS   =  0.00D+00  THRDEDEF=  1.00D-06  GRADIENT=  1.00D-02  STEP    =  1.00D-03
 ORBITAL =  1.00D-05  CIVEC   =  1.00D-05  COEFF   =  1.00D-04  PRINTCI =  5.00D-02  PUNCHCI =  9.90D+01  OPTGRAD =  1.00D-08
 OPTENERG=  1.00D-06  OPTSTEP =  1.00D-08  THRGRAD =  1.00D-10  COMPRESS=  1.00D-11  VARMIN  =  1.00D-07  VARMAX  =  1.00D-03
 THRDOUB =  0.00D+00  THRDIV  =  1.00D-05  THRRED  =  1.00D-07  THRPSP  =  1.00D+00  THRDC   =  1.00D-10  THRCS   =  1.00D-10
 THRNRM  =  1.00D-08  THREQ   =  0.00D+00  THRDE   =  1.00D+00  THRREF  =  1.00D-05  SPARFAC =  1.00D+00  THRDLP  =  1.00D-07
 THRDIA  =  1.00D-10  THRDLS  =  1.00D-07  THRGPS  =  0.00D+00  THRKEX  =  0.00D+00  THRDIS  =  2.00D-01  THRVAR  =  1.00D-10
 THRLOC  =  1.00D-06  THRGAP  =  1.00D-06  THRLOCT = -1.00D+00  THRGAPT = -1.00D+00  THRORB  =  1.00D-06  THRMLTP =  0.00D+00
 THRCPQCI=  1.00D-10  KEXTA   =  0.00D+00  THRCOARS=  0.00D+00  SYMTOL  =  1.00D-06  GRADTOL =  1.00D-06  THROVL  =  1.00D-08
 THRORTH =  1.00D-08  GRID    =  1.00D-06  GRIDMAX =  1.00D-03  DTMAX   =  0.00D+00  THROCCDE=  1.00D-01  THROCCDE=  1.00D-01



 Input parameters for SORTINT:

 COMPRESS =    0.000000
 C_FINAL  =    1.000000
 DEBUG    =   -1.000000
 C_SORT1  =    0.000000
 C_SEWARD =    0.000000
 THRESH   =    0.000000
 IO       =  molpro                                                          
 SPRI     =    0.000000
 SETTING GEOMTYP        =    XYZ
 ZUNIT=BOHR
 

 Variable memory set to  995000000 words,  buffer space   230000 words

 SETTING BASIS          =    AVQZ


 Recomputing integrals since basis changed


 Using spherical harmonics

 Library entry N      S aug-cc-pVQZ          selected for orbital group  1
 Library entry N      P aug-cc-pVQZ          selected for orbital group  1
 Library entry N      D aug-cc-pVQZ          selected for orbital group  1
 Library entry N      F aug-cc-pVQZ          selected for orbital group  1
 Library entry N      G aug-cc-pVQZ          selected for orbital group  1
 Library entry H      S aug-cc-pVQZ          selected for orbital group  2
 Library entry H      P aug-cc-pVQZ          selected for orbital group  2
 Library entry H      D aug-cc-pVQZ          selected for orbital group  2
 Library entry H      F aug-cc-pVQZ          selected for orbital group  2
 Library entry O      S aug-cc-pVQZ          selected for orbital group  3
 Library entry O      P aug-cc-pVQZ          selected for orbital group  3
 Library entry O      D aug-cc-pVQZ          selected for orbital group  3
 Library entry O      F aug-cc-pVQZ          selected for orbital group  3
 Library entry O      G aug-cc-pVQZ          selected for orbital group  3


 PROGRAM * SEWARD (Integral evaluation for generally contracted gaussian basis sets)     Author: Roland Lindh, 1990

 Geometry written to block  1 of record 700


 Point group  Cs  



 ATOMIC COORDINATES

 NR  ATOM    CHARGE       X              Y              Z

   1  N       7.00    0.000000000   -0.153437182   -1.157007430
   2  H       1.00    0.000000000    1.659111231   -1.926588965
   3  O       8.00    0.000000000    0.036093741    1.133006804

 Bond lengths in Bohr (Angstrom)

 1-2  1.969159082  1-3  2.297844026
     ( 1.042034111)     ( 1.215966693)

 Bond angles

  2-1-3  108.27411753

 NUCLEAR CHARGE:                   16
 NUMBER OF PRIMITIVE AOS:         293
 NUMBER OF SYMMETRY AOS:          234
 NUMBER OF CONTRACTIONS:          206   ( 130A'  +  76A"  )
 NUMBER OF CORE ORBITALS:           2   (   2A'  +   0A"  )
 NUMBER OF VALENCE ORBITALS:        9   (   7A'  +   2A"  )


 NUCLEAR REPULSION ENERGY   30.23533988

 Eigenvalues of metric

         1 0.591E-04 0.145E-03 0.319E-03 0.436E-03 0.597E-03 0.672E-03 0.100E-02 0.109E-02
         2 0.840E-03 0.158E-02 0.497E-02 0.895E-02 0.100E-01 0.124E-01 0.126E-01 0.186E-01


 Contracted 2-electron integrals neglected if value below      1.0D-22

      109945073. INTEGRALS WRITTEN OUT IN   26849 BLOCKS ON RECORD 1290 OF FILE 1


 NUMBER OF SORTED TWO-ELECTRON INTEGRALS:  115283741.     BUFFER LENGTH:  32768
 NUMBER OF SEGMENTS:   8  SEGMENT LENGTH:   15998004      RECORD LENGTH: 524288

 Memory used in sort:      16.56 MW

 SORT1 READ   109945073. AND WROTE   110865240. INTEGRALS IN    322 RECORDS. CPU TIME:     1.85 SEC, REAL TIME:     2.72 SEC
 SORT2 READ   110865240. AND WROTE   115283741. INTEGRALS IN      8 RECORDS. CPU TIME:     1.36 SEC, REAL TIME:     1.89 SEC

 FILE SIZES:   FILE 1:  1780.6 MBYTE,  FILE 4:  1350.6 MBYTE,   TOTAL:   3131.2 MBYTE

 OPERATOR DM      FOR CENTER  0  COORDINATES:    0.000000    0.000000    0.000000


 **********************************************************************************************************************************
 DATASETS  * FILE   NREC   LENGTH (MB)   RECORD NAMES
              1      19      944.14       500      610      700      900      950      970     1000      129      960     1100   
                                          VAR    BASINP    GEOM    SYMINP    ZMAT    AOBASIS   BASIS     P2S    ABASIS      S 
                                         1400     1410     1200     1210     1080     1600     1650     1300     1700   
                                           T        V       H0       H01     AOSYM     SMH    MOLCAS    ERIS     OPER   

 PROGRAMS   *        TOTAL       INT
 CPU TIMES  *        11.10     11.00
 REAL TIME  *        14.09 SEC
 DISK USED  *         3.13 GB      
 **********************************************************************************************************************************


 PROGRAM * RHF-SCF (CLOSED SHELL)       Authors: W. Meyer, H.-J. Werner


 NUMBER OF ELECTRONS:       8+    8-
 CONVERGENCE THRESHOLDS:    1.00E-10 (Density)    1.00E-13 (Energy)
 MAX. NUMBER OF ITERATIONS:      500
 INTERPOLATION TYPE:            DIIS
 INTERPOLATION STEPS:              2 (START)      1 (STEP)
 LEVEL SHIFTS:                  0.00 (CLOSED)  0.00 (OPEN) 



 Orbital guess generated from atomic densities. Full valence occupancy:    9   2

 Molecular orbital dump at record        2100.2

 Initial occupancy:   7   1

 ITERATION    DDIFF          GRAD             ENERGY        2-EL.EN.            DIPOLE MOMENTS         DIIS   ORB.
    1      0.000D+00      0.000D+00      -129.79508194    153.727517    0.00000    0.60476   -1.05079    0    start
    2      0.000D+00      0.815D-02      -129.82210318    154.933254    0.00000    0.61577   -0.20812    1    diag
    3      0.661D-02      0.630D-02      -129.84588342    155.077027    0.00000    0.56368   -0.60697    2    diag
    4      0.338D-02      0.983D-03      -129.84670458    154.786692    0.00000    0.57091   -0.54418    3    diag
    5      0.613D-03      0.318D-03      -129.84683243    154.880288    0.00000    0.57611   -0.54658    4    diag
    6      0.255D-03      0.916D-04      -129.84685273    154.864147    0.00000    0.57636   -0.54228    5    diag
    7      0.967D-04      0.460D-04      -129.84685878    154.866783    0.00000    0.57755   -0.53956    6    diag
    8      0.672D-04      0.165D-04      -129.84685951    154.866066    0.00000    0.57758   -0.53847    7    diag
    9      0.270D-04      0.318D-05      -129.84685954    154.865947    0.00000    0.57754   -0.53823    8    diag
   10      0.546D-05      0.711D-06      -129.84685954    154.865930    0.00000    0.57751   -0.53821    9    orth
   11      0.103D-05      0.140D-06      -129.84685954    154.865927    0.00000    0.57750   -0.53820    9    diag
   12      0.183D-06      0.290D-07      -129.84685954    154.865927    0.00000    0.57750   -0.53820    9    diag
   13      0.391D-07      0.761D-08      -129.84685954    154.865927    0.00000    0.57750   -0.53820    9    diag
   14      0.109D-07      0.149D-08      -129.84685954    154.865927    0.00000    0.57750   -0.53820    9    diag
   15      0.196D-08      0.421D-09      -129.84685954    154.865927    0.00000    0.57750   -0.53820    9    diag
   16      0.593D-09      0.124D-09      -129.84685954    154.865927    0.00000    0.57750   -0.53820    9    diag
   17      0.108D-09      0.308D-10      -129.84685954    154.865927    0.00000    0.57750   -0.53820    9    diag
   18      0.282D-10      0.999D-11      -129.84685954    154.865927    0.00000    0.57750   -0.53820    9    diag
   19      0.133D-10      0.226D-11      -129.84685954    154.865927    0.00000    0.57750   -0.53820    9    fixocc
   20      0.584D-11      0.361D-12      -129.84685954    154.865927    0.00000    0.57750   -0.53820    9    orth
   21      0.542D-11      0.170D-12      -129.84685954    154.865927    0.00000    0.57750   -0.53820    9    diag
   22      0.226D-11      0.174D-12      -129.84685954    154.865927    0.00000    0.57750   -0.53820    9    diag
   23      0.130D-11      0.113D-12      -129.84685954    154.865927    0.00000    0.57750   -0.53820    9    diag
   24      0.818D-12      0.110D-12      -129.84685954    154.865927    0.00000    0.57750   -0.53820    9    diag
   25      0.642D-12      0.126D-12      -129.84685954    154.865927    0.00000    0.57750   -0.53820    9    diag
   26      0.735D-12      0.980D-13      -129.84685954    154.865927    0.00000    0.57750   -0.53820    9    diag
   27      0.155D-12      0.107D-12      -129.84685954    154.865927    0.00000    0.57750   -0.53820    9    diag
   28      0.750D-12      0.113D-12      -129.84685954    154.865927    0.00000    0.57750   -0.53820    9    diag
   29      0.470D-12      0.993D-13      -129.84685954    154.865927    0.00000    0.57750   -0.53820    0    orth

 Final occupancy:   7   1

 !RHF STATE 1.1 Energy               -129.846859544964
 Nuclear energy                        30.23533988
 One-electron energy                 -237.51516271
 Two-electron energy                   77.43296328
 Virial quotient                       -1.00186298
 !RHF STATE 1.1 Dipole moment           0.00000000     0.57750034    -0.53820354
 Dipole moment /Debye                   0.00000000     1.46776332    -1.36788734

 Orbital energies:

         1.1          2.1          3.1          4.1          5.1          6.1          7.1          8.1          9.1
    -20.654299   -15.712667    -1.523202    -0.999016    -0.745900    -0.663854    -0.433512     0.026259     0.079455

         1.2          2.2          3.2
     -0.592167     0.061210     0.109884

 HOMO      7.1    -0.433512 =     -11.7965eV
 LUMO      8.1     0.026259 =       0.7145eV
 LUMO-HOMO         0.459771 =      12.5110eV


 **********************************************************************************************************************************
 DATASETS  * FILE   NREC   LENGTH (MB)   RECORD NAMES
              1      19      944.14       500      610      700      900      950      970     1000      129      960     1100   
                                          VAR    BASINP    GEOM    SYMINP    ZMAT    AOBASIS   BASIS     P2S    ABASIS      S 
                                         1400     1410     1200     1210     1080     1600     1650     1300     1700   
                                           T        V       H0       H01     AOSYM     SMH    MOLCAS    ERIS     OPER   

              2       4        3.27       700     1000      520     2100   
                                         GEOM     BASIS   MCVARS     RHF  

 PROGRAMS   *        TOTAL        HF       INT
 CPU TIMES  *        25.50     14.40     11.00
 REAL TIME  *        32.01 SEC
 DISK USED  *         3.13 GB      
 **********************************************************************************************************************************


 PROGRAM * CCSD (Closed-shell coupled cluster)     Authors: C. Hampel, H.-J. Werner, 1991, M. Deegan, P.J. Knowles, 1992


 Convergence thresholds:  THRVAR = 1.00D-08  THRDEN = 1.00D-12

 CCSD(T)     terms to be evaluated (factor= 1.000)


 Number of core orbitals:           2 (   2   0 )
 Number of closed-shell orbitals:   6 (   5   1 )
 Number of external orbitals:     198 ( 123  75 )

 Molecular orbitals read from record     2100.2  Type=RHF/CANONICAL (state 1.1)

 Number of N-1 electron functions:               6
 Number of N-2 electron functions:              21
 Number of singly external CSFs:               690
 Number of doubly external CSFs:            362646
 Total number of CSFs:                      363337

 Length of J-op  integral file:               0.00 MB
 Length of K-op  integral file:               1.60 MB
 Length of 3-ext integral record:             0.00 MB

 Memory could be reduced to 34.67 Mwords without degradation in triples

 Integral transformation finished. Total CPU:   1.52 sec, npass=  1  Memory used:   9.53 MW

 Reference energy:                   -129.84685954

 MP2 singlet pair energy:              -0.30221847
 MP2 triplet pair energy:              -0.17085195
 MP2 correlation energy:               -0.47307043
 MP2 total energy:                   -130.31992997

 SCS-MP2 correlation energy:           -0.46897005   (PS=  1.200000  PT=  0.333333)
 SCS-MP2 total energy:               -130.31582959

 ITER.      SQ.NORM     CORR.ENERGY   TOTAL ENERGY   ENERGY CHANGE        DEN1      VAR(S)    VAR(P)  DIIS     TIME  TIME/IT
   1      1.12156723    -0.47280682  -130.31966636     0.00026361     0.01694639  0.32D-02  0.33D-02  1  1     2.86     1.41
   2      1.13241383    -0.47270257  -130.31956211     0.00010425    -0.01265717  0.11D-03  0.50D-03  2  2     4.17     1.45
   3      1.13883399    -0.47308721  -130.31994675    -0.00038464    -0.00307802  0.50D-04  0.55D-04  3  3     5.47     1.46
   4      1.14167011    -0.47309574  -130.31995529    -0.00000854    -0.00095556  0.45D-05  0.99D-05  4  4     6.80     1.46
   5      1.14280681    -0.47312622  -130.31998577    -0.00003048    -0.00024716  0.11D-05  0.17D-05  5  5     8.09     1.47
   6      1.14317174    -0.47311053  -130.31997007     0.00001569    -0.00005275  0.11D-06  0.40D-06  6  6     9.40     1.47
   7      1.14324378    -0.47311127  -130.31997081    -0.00000074     0.00000306  0.15D-07  0.92D-07  6  1    10.71     1.48
   8      1.14326631    -0.47311155  -130.31997109    -0.00000028    -0.00000110  0.34D-08  0.19D-07  6  2    12.06     1.48
   9      1.14327106    -0.47311117  -130.31997071     0.00000038     0.00000100  0.26D-08  0.22D-08  6  4    13.38     1.48
  10      1.14327357    -0.47311154  -130.31997109    -0.00000038    -0.00000077  0.50D-09  0.26D-09  6  3    14.70     1.48
  11      1.14327334    -0.47311161  -130.31997115    -0.00000006    -0.00000014  0.16D-09  0.37D-10  6  5    16.00     1.48
  12      1.14327237    -0.47311175  -130.31997130    -0.00000015     0.00000037  0.19D-10  0.11D-10  6  6    17.33     1.48
  13      1.14327150    -0.47311180  -130.31997134    -0.00000004     0.00000022  0.59D-11  0.25D-11  6  1    18.63     1.48
  14      1.14327081    -0.47311183  -130.31997137    -0.00000003     0.00000016  0.36D-12  0.53D-12  6  4    19.94     1.48
  15      1.14327058    -0.47311184  -130.31997138    -0.00000001     0.00000004  0.77D-13  0.42D-13  6  2    21.26     1.48
  16      1.14327053    -0.47311184  -130.31997138    -0.00000000     0.00000001  0.21D-13  0.76D-14  6  3    22.56     1.48
  17      1.14327050    -0.47311184  -130.31997139    -0.00000000     0.00000001  0.38D-14  0.98D-15  6  5    23.84     1.48
  18      1.14327050    -0.47311184  -130.31997139    -0.00000000     0.00000000  0.84D-15  0.24D-15  6  6    25.11     1.48
  19      1.14327050    -0.47311184  -130.31997139    -0.00000000     0.00000000  0.11D-15  0.49D-16  6  1    26.37     1.48
  20      1.14327050    -0.47311184  -130.31997139     0.00000000    -0.00000000  0.10D-16  0.74D-17  6  4    27.68     1.48
  21      1.14327050    -0.47311184  -130.31997139     0.00000000    -0.00000000  0.47D-18  0.63D-18  6  3    28.98     1.48
  22      1.14327050    -0.47311184  -130.31997139     0.00000000    -0.00000000  0.12D-18  0.12D-18  6  2    30.31     1.48
  23      1.14327050    -0.47311184  -130.31997139     0.00000000     0.00000000  0.33D-19  0.46D-19  6  5    31.60     1.48
  24      1.14327050    -0.47311184  -130.31997139    -0.00000000     0.00000000  0.28D-20  0.10D-19  6  1    32.87     1.48

 Norm of t1 vector:      0.07774849      S-energy:    -0.00000000      T1 diagnostic:  0.01587034
                                                                       D1 diagnostic:  0.04322186

 Doubles amplitudes (print threshold =  0.500E-01):

         I         J         SYM. A    SYM. B    A         B      T(IJ, AB)

         6         6         2         2         1         1     -0.10295248


 Total CPU time for triples:     16.62 sec


 RESULTS
 =======

  Reference energy                   -129.846859544964
  CCSD singlet pair energy             -0.327161366547
  CCSD triplet pair energy             -0.145950473562
  CCSD correlation energy              -0.473111840110

  Triples (T) contribution             -0.022553198636
  Total correlation energy             -0.495665038746

  CCSD total energy                  -130.319971385075
  CCSD[T] energy                     -130.343624465771
  CCSD-T energy                      -130.342134255953
 !CCSD(T) total energy               -130.342524583711

 Timing summary (sec):

 STEP                 CPU(USER)    SYS     CPU(TOT)    WALL
 Transformation          1.53      0.28      1.81      1.83
 CCSD iterations        31.34      4.15     35.49     35.50
 Triples                16.62      0.44     17.06     17.04

 Program statistics:

 Available memory in ccsd:               994999756
 Min. memory needed in ccsd:               1265322
 Max. memory used in ccsd:                 1555950
 Max. memory used in cckext:               2415326 (24 integral passes)



 **********************************************************************************************************************************
 DATASETS  * FILE   NREC   LENGTH (MB)   RECORD NAMES
              1      20     1044.69       500      610      700      900      950      970     1000      129      960     1100   
                                          VAR    BASINP    GEOM    SYMINP    ZMAT    AOBASIS   BASIS     P2S    ABASIS      S 
                                         1400     1410     1200     1210     1080     1600     1650     1300     1700     1380   
                                           T        V       H0       H01     AOSYM     SMH    MOLCAS    ERIS     OPER     JKOP   

              2       4        3.27       700     1000      520     2100   
                                         GEOM     BASIS   MCVARS     RHF  

 PROGRAMS   *        TOTAL   CCSD(T)        HF       INT
 CPU TIMES  *        75.02     49.51     14.40     11.00
 REAL TIME  *        86.40 SEC
 DISK USED  *         3.13 GB      
 **********************************************************************************************************************************

 CCSD(T)/aug-cc-pVQZ energy=   -130.342524583711

        CCSD(T)         HF-SCF  
   -130.34252458   -129.84685954
 **********************************************************************************************************************************
 Molpro calculation terminated
 Variable memory released
