
 Primary working directories    : /tmp/r2666/234840.maple
 Secondary working directories  : /tmp/r2666/234840.maple
 Wavefunction directory         : /ddn/home4/r2666/wfu/
 Main file repository           : /tmp/r2666/234840.maple/

 SHA1      : d5ffa45e93fdbca01ffc919aa182cfdae0147319
 NAME      : 2015.1.35
 ARCHNAME  : linux/x86_64
 FC        : /opt/intel/composer_xe_2015.1.133/bin/intel64/ifort
 BLASLIB   : -Wl,-_start-group /opt/intel/mkl/lib/intel64/libmkl_intel_ilp64.a /opt/intel/mkl/lib/intel64/libmkl_intel_thread.a /opt/intel/mkl/lib/intel64/libmkl_core.a -Wl,-_end-group
 id        : olemiss

 Nodes     nprocs
 cn034        1

 Using customized tuning parameters: mindgm=1; mindgv=20; mindgc=4; mindgr=1; noblas=0; minvec=7
 default implementation of scratch files=df  

 ***,hno CCSD(T)/TZ-F12 QFF
 memory, 995, m;
 gthresh,energy=1.d-12,zero=1.d-22,oneint=1.d-22,twoint=1.d-22;
 gthresh,optgrad=1.d-8,optstep=1.d-8;
 nocompress;
 geomtyp=xyz
 bohr
 geometry={
 3
         83        83
 N        0.0000000000       -0.1575577763       -1.1549269869
 H        0.0000000000        1.6691664896       -1.9394309548
 O        0.0000000000        0.0301590766        1.1437683507
 }
 
 basis=avqz
   {hf,maxit=500;accu,20;}
 {ccsd(t),nocheck,maxit=250;orbital,IGNORE_ERROR;}

 Variables initialized (889), CPU time= 0.00 sec
 Commands  initialized (702), CPU time= 0.01 sec, 572 directives.
 Default parameters read. Elapsed time= 0.04 sec

 Checking input...
 Passed
1


                                         ***  PROGRAM SYSTEM MOLPRO  ***
                                       Copyright, TTI GmbH Stuttgart, 2015
                                    Version 2015.1 linked Jul  9 2018 13:16:40


 **********************************************************************************************************************************
 LABEL *   hno CCSD(T)/TZ-F12 QFF                                                        
  64 bit serial version                                                                  DATE: 08-Feb-20          TIME: 17:53:55  
 **********************************************************************************************************************************

 SHA1:             d5ffa45e93fdbca01ffc919aa182cfdae0147319
 **********************************************************************************************************************************

 THRESHOLDS:

 ZERO    =  1.00D-22  ONEINT  =  1.00D-22  TWOINT  =  1.00D-22  PREFAC  =  1.00D-14  LOCALI  =  1.00D-09  EORDER  =  1.00D-04
 ENERGY  =  1.00D-12  ETEST   =  0.00D+00  EDENS   =  0.00D+00  THRDEDEF=  1.00D-06  GRADIENT=  1.00D-02  STEP    =  1.00D-03
 ORBITAL =  1.00D-05  CIVEC   =  1.00D-05  COEFF   =  1.00D-04  PRINTCI =  5.00D-02  PUNCHCI =  9.90D+01  OPTGRAD =  3.00D-04
 OPTENERG=  1.00D-06  OPTSTEP =  3.00D-04  THRGRAD =  1.00D-10  COMPRESS=  1.00D-11  VARMIN  =  1.00D-07  VARMAX  =  1.00D-03
 THRDOUB =  0.00D+00  THRDIV  =  1.00D-05  THRRED  =  1.00D-07  THRPSP  =  1.00D+00  THRDC   =  1.00D-10  THRCS   =  1.00D-10
 THRNRM  =  1.00D-08  THREQ   =  0.00D+00  THRDE   =  1.00D+00  THRREF  =  1.00D-05  SPARFAC =  1.00D+00  THRDLP  =  1.00D-07
 THRDIA  =  1.00D-10  THRDLS  =  1.00D-07  THRGPS  =  0.00D+00  THRKEX  =  0.00D+00  THRDIS  =  2.00D-01  THRVAR  =  1.00D-10
 THRLOC  =  1.00D-06  THRGAP  =  1.00D-06  THRLOCT = -1.00D+00  THRGAPT = -1.00D+00  THRORB  =  1.00D-06  THRMLTP =  0.00D+00
 THRCPQCI=  1.00D-10  KEXTA   =  0.00D+00  THRCOARS=  0.00D+00  SYMTOL  =  1.00D-06  GRADTOL =  1.00D-06  THROVL  =  1.00D-08
 THRORTH =  1.00D-08  GRID    =  1.00D-06  GRIDMAX =  1.00D-03  DTMAX   =  0.00D+00  THROCCDE=  1.00D-01  THROCCDE=  1.00D-01



 THRESHOLDS:

 ZERO    =  1.00D-22  ONEINT  =  1.00D-22  TWOINT  =  1.00D-22  PREFAC  =  1.00D-14  LOCALI  =  1.00D-09  EORDER  =  1.00D-04
 ENERGY  =  1.00D-12  ETEST   =  0.00D+00  EDENS   =  0.00D+00  THRDEDEF=  1.00D-06  GRADIENT=  1.00D-02  STEP    =  1.00D-03
 ORBITAL =  1.00D-05  CIVEC   =  1.00D-05  COEFF   =  1.00D-04  PRINTCI =  5.00D-02  PUNCHCI =  9.90D+01  OPTGRAD =  1.00D-08
 OPTENERG=  1.00D-06  OPTSTEP =  1.00D-08  THRGRAD =  1.00D-10  COMPRESS=  1.00D-11  VARMIN  =  1.00D-07  VARMAX  =  1.00D-03
 THRDOUB =  0.00D+00  THRDIV  =  1.00D-05  THRRED  =  1.00D-07  THRPSP  =  1.00D+00  THRDC   =  1.00D-10  THRCS   =  1.00D-10
 THRNRM  =  1.00D-08  THREQ   =  0.00D+00  THRDE   =  1.00D+00  THRREF  =  1.00D-05  SPARFAC =  1.00D+00  THRDLP  =  1.00D-07
 THRDIA  =  1.00D-10  THRDLS  =  1.00D-07  THRGPS  =  0.00D+00  THRKEX  =  0.00D+00  THRDIS  =  2.00D-01  THRVAR  =  1.00D-10
 THRLOC  =  1.00D-06  THRGAP  =  1.00D-06  THRLOCT = -1.00D+00  THRGAPT = -1.00D+00  THRORB  =  1.00D-06  THRMLTP =  0.00D+00
 THRCPQCI=  1.00D-10  KEXTA   =  0.00D+00  THRCOARS=  0.00D+00  SYMTOL  =  1.00D-06  GRADTOL =  1.00D-06  THROVL  =  1.00D-08
 THRORTH =  1.00D-08  GRID    =  1.00D-06  GRIDMAX =  1.00D-03  DTMAX   =  0.00D+00  THROCCDE=  1.00D-01  THROCCDE=  1.00D-01



 Input parameters for SORTINT:

 COMPRESS =    0.000000
 C_FINAL  =    1.000000
 DEBUG    =   -1.000000
 C_SORT1  =    0.000000
 C_SEWARD =    0.000000
 THRESH   =    0.000000
 IO       =  molpro                                                          
 SPRI     =    0.000000
 SETTING GEOMTYP        =    XYZ
 ZUNIT=BOHR
 

 Variable memory set to  995000000 words,  buffer space   230000 words

 SETTING BASIS          =    AVQZ


 Recomputing integrals since basis changed


 Using spherical harmonics

 Library entry N      S aug-cc-pVQZ          selected for orbital group  1
 Library entry N      P aug-cc-pVQZ          selected for orbital group  1
 Library entry N      D aug-cc-pVQZ          selected for orbital group  1
 Library entry N      F aug-cc-pVQZ          selected for orbital group  1
 Library entry N      G aug-cc-pVQZ          selected for orbital group  1
 Library entry H      S aug-cc-pVQZ          selected for orbital group  2
 Library entry H      P aug-cc-pVQZ          selected for orbital group  2
 Library entry H      D aug-cc-pVQZ          selected for orbital group  2
 Library entry H      F aug-cc-pVQZ          selected for orbital group  2
 Library entry O      S aug-cc-pVQZ          selected for orbital group  3
 Library entry O      P aug-cc-pVQZ          selected for orbital group  3
 Library entry O      D aug-cc-pVQZ          selected for orbital group  3
 Library entry O      F aug-cc-pVQZ          selected for orbital group  3
 Library entry O      G aug-cc-pVQZ          selected for orbital group  3


 PROGRAM * SEWARD (Integral evaluation for generally contracted gaussian basis sets)     Author: Roland Lindh, 1990

 Geometry written to block  1 of record 700


 Point group  Cs  



 ATOMIC COORDINATES

 NR  ATOM    CHARGE       X              Y              Z

   1  N       7.00    0.000000000   -0.157557776   -1.154926987
   2  H       1.00    0.000000000    1.669166490   -1.939430955
   3  O       8.00    0.000000000    0.030159077    1.143768351

 Bond lengths in Bohr (Angstrom)

 1-2  1.988056342  1-3  2.306347301
     ( 1.052034110)     ( 1.220466432)

 Bond angles

  2-1-3  108.57301225

 NUCLEAR CHARGE:                   16
 NUMBER OF PRIMITIVE AOS:         293
 NUMBER OF SYMMETRY AOS:          234
 NUMBER OF CONTRACTIONS:          206   ( 130A'  +  76A"  )
 NUMBER OF CORE ORBITALS:           2   (   2A'  +   0A"  )
 NUMBER OF VALENCE ORBITALS:        9   (   7A'  +   2A"  )


 NUCLEAR REPULSION ENERGY   30.09294651

 Eigenvalues of metric

         1 0.604E-04 0.147E-03 0.322E-03 0.437E-03 0.606E-03 0.687E-03 0.102E-02 0.110E-02
         2 0.856E-03 0.163E-02 0.507E-02 0.900E-02 0.101E-01 0.125E-01 0.128E-01 0.192E-01


 Contracted 2-electron integrals neglected if value below      1.0D-22

      109945082. INTEGRALS WRITTEN OUT IN   26849 BLOCKS ON RECORD 1290 OF FILE 1


 NUMBER OF SORTED TWO-ELECTRON INTEGRALS:  115283741.     BUFFER LENGTH:  32768
 NUMBER OF SEGMENTS:   8  SEGMENT LENGTH:   15998004      RECORD LENGTH: 524288

 Memory used in sort:      16.56 MW

 SORT1 READ   109945082. AND WROTE   110865249. INTEGRALS IN    322 RECORDS. CPU TIME:     3.13 SEC, REAL TIME:     4.04 SEC
 SORT2 READ   110865249. AND WROTE   115283741. INTEGRALS IN      8 RECORDS. CPU TIME:     1.36 SEC, REAL TIME:     2.00 SEC

 FILE SIZES:   FILE 1:  1780.6 MBYTE,  FILE 4:  1350.6 MBYTE,   TOTAL:   3131.2 MBYTE

 OPERATOR DM      FOR CENTER  0  COORDINATES:    0.000000    0.000000    0.000000


 **********************************************************************************************************************************
 DATASETS  * FILE   NREC   LENGTH (MB)   RECORD NAMES
              1      19      944.14       500      610      700      900      950      970     1000      129      960     1100   
                                          VAR    BASINP    GEOM    SYMINP    ZMAT    AOBASIS   BASIS     P2S    ABASIS      S 
                                         1400     1410     1200     1210     1080     1600     1650     1300     1700   
                                           T        V       H0       H01     AOSYM     SMH    MOLCAS    ERIS     OPER   

 PROGRAMS   *        TOTAL       INT
 CPU TIMES  *        15.74     15.65
 REAL TIME  *        19.78 SEC
 DISK USED  *         3.13 GB      
 **********************************************************************************************************************************


 PROGRAM * RHF-SCF (CLOSED SHELL)       Authors: W. Meyer, H.-J. Werner


 NUMBER OF ELECTRONS:       8+    8-
 CONVERGENCE THRESHOLDS:    1.00E-10 (Density)    1.00E-13 (Energy)
 MAX. NUMBER OF ITERATIONS:      500
 INTERPOLATION TYPE:            DIIS
 INTERPOLATION STEPS:              2 (START)      1 (STEP)
 LEVEL SHIFTS:                  0.00 (CLOSED)  0.00 (OPEN) 



 Orbital guess generated from atomic densities. Full valence occupancy:    9   2

 Molecular orbital dump at record        2100.2

 Initial occupancy:   7   1

 ITERATION    DDIFF          GRAD             ENERGY        2-EL.EN.            DIPOLE MOMENTS         DIIS   ORB.
    1      0.000D+00      0.000D+00      -129.79285395    153.464871    0.00000    0.60329   -1.06798    0    start
    2      0.000D+00      0.823D-02      -129.81966398    154.672930    0.00000    0.61773   -0.20257    1    diag
    3      0.671D-02      0.645D-02      -129.84471979    154.824448    0.00000    0.56371   -0.61393    2    diag
    4      0.345D-02      0.988D-03      -129.84555315    154.529110    0.00000    0.57061   -0.55035    3    diag
    5      0.617D-03      0.322D-03      -129.84568463    154.624048    0.00000    0.57597   -0.55275    4    diag
    6      0.258D-03      0.929D-04      -129.84570564    154.607705    0.00000    0.57620   -0.54834    5    diag
    7      0.985D-04      0.468D-04      -129.84571194    154.610349    0.00000    0.57741   -0.54556    6    diag
    8      0.685D-04      0.170D-04      -129.84571273    154.609608    0.00000    0.57744   -0.54443    7    diag
    9      0.282D-04      0.333D-05      -129.84571277    154.609480    0.00000    0.57740   -0.54419    8    diag
   10      0.579D-05      0.740D-06      -129.84571277    154.609460    0.00000    0.57737   -0.54416    9    orth
   11      0.107D-05      0.145D-06      -129.84571277    154.609457    0.00000    0.57736   -0.54416    9    diag
   12      0.190D-06      0.303D-07      -129.84571277    154.609457    0.00000    0.57736   -0.54415    9    diag
   13      0.407D-07      0.809D-08      -129.84571277    154.609457    0.00000    0.57736   -0.54415    9    diag
   14      0.116D-07      0.159D-08      -129.84571277    154.609457    0.00000    0.57736   -0.54415    9    diag
   15      0.208D-08      0.451D-09      -129.84571277    154.609457    0.00000    0.57736   -0.54415    9    diag
   16      0.632D-09      0.132D-09      -129.84571277    154.609457    0.00000    0.57736   -0.54415    9    diag
   17      0.113D-09      0.331D-10      -129.84571277    154.609457    0.00000    0.57736   -0.54415    9    diag
   18      0.307D-10      0.109D-10      -129.84571277    154.609457    0.00000    0.57736   -0.54415    0    orth

 Final occupancy:   7   1

 !RHF STATE 1.1 Energy               -129.845712767257
 Nuclear energy                        30.09294651
 One-electron energy                 -237.24338768
 Two-electron energy                   77.30472840
 Virial quotient                       -1.00212030
 !RHF STATE 1.1 Dipole moment           0.00000000     0.57735958    -0.54415392
 Dipole moment /Debye                   0.00000000     1.46740555    -1.38301071

 Orbital energies:

         1.1          2.1          3.1          4.1          5.1          6.1          7.1          8.1          9.1
    -20.654968   -15.714730    -1.519299    -0.997681    -0.743436    -0.662614    -0.434067     0.026167     0.079431

         1.2          2.2          3.2
     -0.590170     0.060022     0.109904

 HOMO      7.1    -0.434067 =     -11.8116eV
 LUMO      8.1     0.026167 =       0.7120eV
 LUMO-HOMO         0.460234 =      12.5236eV


 **********************************************************************************************************************************
 DATASETS  * FILE   NREC   LENGTH (MB)   RECORD NAMES
              1      19      944.14       500      610      700      900      950      970     1000      129      960     1100   
                                          VAR    BASINP    GEOM    SYMINP    ZMAT    AOBASIS   BASIS     P2S    ABASIS      S 
                                         1400     1410     1200     1210     1080     1600     1650     1300     1700   
                                           T        V       H0       H01     AOSYM     SMH    MOLCAS    ERIS     OPER   

              2       4        3.27       700     1000      520     2100   
                                         GEOM     BASIS   MCVARS     RHF  

 PROGRAMS   *        TOTAL        HF       INT
 CPU TIMES  *        25.86     10.12     15.65
 REAL TIME  *        32.96 SEC
 DISK USED  *         3.13 GB      
 **********************************************************************************************************************************


 PROGRAM * CCSD (Closed-shell coupled cluster)     Authors: C. Hampel, H.-J. Werner, 1991, M. Deegan, P.J. Knowles, 1992


 Convergence thresholds:  THRVAR = 1.00D-08  THRDEN = 1.00D-12

 CCSD(T)     terms to be evaluated (factor= 1.000)


 Number of core orbitals:           2 (   2   0 )
 Number of closed-shell orbitals:   6 (   5   1 )
 Number of external orbitals:     198 ( 123  75 )

 Molecular orbitals read from record     2100.2  Type=RHF/CANONICAL (state 1.1)

 Number of N-1 electron functions:               6
 Number of N-2 electron functions:              21
 Number of singly external CSFs:               690
 Number of doubly external CSFs:            362646
 Total number of CSFs:                      363337

 Length of J-op  integral file:               0.00 MB
 Length of K-op  integral file:               1.60 MB
 Length of 3-ext integral record:             0.00 MB

 Memory could be reduced to 34.67 Mwords without degradation in triples

 Integral transformation finished. Total CPU:   1.78 sec, npass=  1  Memory used:   9.53 MW

 Reference energy:                   -129.84571277

 MP2 singlet pair energy:              -0.30290814
 MP2 triplet pair energy:              -0.17130255
 MP2 correlation energy:               -0.47421069
 MP2 total energy:                   -130.31992345

 SCS-MP2 correlation energy:           -0.47007802   (PS=  1.200000  PT=  0.333333)
 SCS-MP2 total energy:               -130.31579079

 ITER.      SQ.NORM     CORR.ENERGY   TOTAL ENERGY   ENERGY CHANGE        DEN1      VAR(S)    VAR(P)  DIIS     TIME  TIME/IT
   1      1.12239793    -0.47373613  -130.31944890     0.00047455     0.01745512  0.33D-02  0.33D-02  1  1     3.36     1.71
   2      1.13342723    -0.47358246  -130.31929523     0.00015367    -0.01283453  0.11D-03  0.51D-03  2  2     4.96     1.76
   3      1.14000125    -0.47398146  -130.31969422    -0.00039900    -0.00312737  0.53D-04  0.57D-04  3  3     6.59     1.77
   4      1.14291420    -0.47398859  -130.31970136    -0.00000713    -0.00097782  0.48D-05  0.10D-04  4  4     8.20     1.77
   5      1.14410393    -0.47402074  -130.31973351    -0.00003215    -0.00025812  0.12D-05  0.17D-05  5  5     9.78     1.78
   6      1.14448346    -0.47400434  -130.31971711     0.00001640    -0.00005478  0.12D-06  0.40D-06  6  6    11.39     1.78
   7      1.14455806    -0.47400494  -130.31971770    -0.00000059     0.00000308  0.17D-07  0.94D-07  6  1    13.00     1.78
   8      1.14458150    -0.47400516  -130.31971792    -0.00000022    -0.00000127  0.33D-08  0.19D-07  6  2    14.62     1.78
   9      1.14458664    -0.47400472  -130.31971749     0.00000043     0.00000109  0.27D-08  0.23D-08  6  4    16.20     1.79
  10      1.14458929    -0.47400511  -130.31971788    -0.00000039    -0.00000081  0.52D-09  0.29D-09  6  3    17.85     1.79
  11      1.14458908    -0.47400518  -130.31971794    -0.00000006    -0.00000015  0.17D-09  0.41D-10  6  5    19.46     1.79
  12      1.14458806    -0.47400533  -130.31971810    -0.00000015     0.00000038  0.21D-10  0.12D-10  6  6    21.08     1.79
  13      1.14458714    -0.47400537  -130.31971814    -0.00000004     0.00000023  0.65D-11  0.27D-11  6  1    22.72     1.79
  14      1.14458640    -0.47400541  -130.31971818    -0.00000004     0.00000017  0.39D-12  0.57D-12  6  4    24.32     1.79
  15      1.14458617    -0.47400542  -130.31971819    -0.00000001     0.00000004  0.88D-13  0.45D-13  6  2    25.93     1.79
  16      1.14458611    -0.47400542  -130.31971819    -0.00000000     0.00000001  0.23D-13  0.82D-14  6  3    27.48     1.79
  17      1.14458608    -0.47400542  -130.31971819    -0.00000000     0.00000001  0.43D-14  0.11D-14  6  5    29.04     1.79
  18      1.14458608    -0.47400542  -130.31971819    -0.00000000     0.00000000  0.94D-15  0.27D-15  6  6    30.62     1.79
  19      1.14458608    -0.47400542  -130.31971819    -0.00000000     0.00000000  0.12D-15  0.56D-16  6  1    32.26     1.79
  20      1.14458608    -0.47400542  -130.31971819     0.00000000    -0.00000000  0.12D-16  0.83D-17  6  4    33.93     1.79
  21      1.14458608    -0.47400542  -130.31971819     0.00000000    -0.00000000  0.55D-18  0.69D-18  6  3    35.49     1.79
  22      1.14458608    -0.47400542  -130.31971819     0.00000000    -0.00000000  0.14D-18  0.13D-18  6  2    37.08     1.79
  23      1.14458608    -0.47400542  -130.31971819     0.00000000     0.00000000  0.40D-19  0.51D-19  6  5    38.67     1.79
  24      1.14458608    -0.47400542  -130.31971819    -0.00000000     0.00000000  0.34D-20  0.11D-19  6  1    40.25     1.79

 Norm of t1 vector:      0.07901298      S-energy:     0.00000000      T1 diagnostic:  0.01612846
                                                                       D1 diagnostic:  0.04388930

 Doubles amplitudes (print threshold =  0.500E-01):

         I         J         SYM. A    SYM. B    A         B      T(IJ, AB)

         6         6         2         2         1         1     -0.10525920


 Total CPU time for triples:     16.90 sec


 RESULTS
 =======

  Reference energy                   -129.845712767258
  CCSD singlet pair energy             -0.327931712881
  CCSD triplet pair energy             -0.146073708881
  CCSD correlation energy              -0.474005421762

  Triples (T) contribution             -0.022769356155
  Total correlation energy             -0.496774777917

  CCSD total energy                  -130.319718189020
  CCSD[T] energy                     -130.343620117088
  CCSD-T energy                      -130.342088387400
 !CCSD(T) total energy               -130.342487545175

 Timing summary (sec):

 STEP                 CPU(USER)    SYS     CPU(TOT)    WALL
 Transformation          1.80      0.30      2.10      2.11
 CCSD iterations        38.46      4.58     43.04     43.03
 Triples                16.90      0.50     17.40     17.41

 Program statistics:

 Available memory in ccsd:               994999756
 Min. memory needed in ccsd:               1265322
 Max. memory used in ccsd:                 1555950
 Max. memory used in cckext:               2415326 (24 integral passes)



 **********************************************************************************************************************************
 DATASETS  * FILE   NREC   LENGTH (MB)   RECORD NAMES
              1      20     1044.69       500      610      700      900      950      970     1000      129      960     1100   
                                          VAR    BASINP    GEOM    SYMINP    ZMAT    AOBASIS   BASIS     P2S    ABASIS      S 
                                         1400     1410     1200     1210     1080     1600     1650     1300     1700     1380   
                                           T        V       H0       H01     AOSYM     SMH    MOLCAS    ERIS     OPER     JKOP   

              2       4        3.27       700     1000      520     2100   
                                         GEOM     BASIS   MCVARS     RHF  

 PROGRAMS   *        TOTAL   CCSD(T)        HF       INT
 CPU TIMES  *        83.05     57.19     10.12     15.65
 REAL TIME  *        95.57 SEC
 DISK USED  *         3.13 GB      
 **********************************************************************************************************************************

 CCSD(T)/aug-cc-pVQZ energy=   -130.342487545175

        CCSD(T)         HF-SCF  
   -130.34248755   -129.84571277
 **********************************************************************************************************************************
 Molpro calculation terminated
 Variable memory released
