
 Primary working directories    : /tmp/r2666/234795.maple
 Secondary working directories  : /tmp/r2666/234795.maple
 Wavefunction directory         : /ddn/home4/r2666/wfu/
 Main file repository           : /tmp/r2666/234795.maple/

 SHA1      : d5ffa45e93fdbca01ffc919aa182cfdae0147319
 NAME      : 2015.1.35
 ARCHNAME  : linux/x86_64
 FC        : /opt/intel/composer_xe_2015.1.133/bin/intel64/ifort
 BLASLIB   : -Wl,-_start-group /opt/intel/mkl/lib/intel64/libmkl_intel_ilp64.a /opt/intel/mkl/lib/intel64/libmkl_intel_thread.a /opt/intel/mkl/lib/intel64/libmkl_core.a -Wl,-_end-group
 id        : olemiss

 Nodes     nprocs
 cn027        1

 Using customized tuning parameters: mindgm=1; mindgv=20; mindgc=4; mindgr=1; noblas=0; minvec=7
 default implementation of scratch files=df  

 ***,hno CCSD(T)/TZ-F12 QFF
 memory, 995, m;
 gthresh,energy=1.d-12,zero=1.d-22,oneint=1.d-22,twoint=1.d-22;
 gthresh,optgrad=1.d-8,optstep=1.d-8;
 nocompress;
 geomtyp=xyz
 bohr
 geometry={
 3
         38        38
 N        0.0000000000       -0.1517488246       -1.1462805234
 H        0.0000000000        1.6629400587       -1.9348188772
 O        0.0000000000        0.0305765559        1.1305098097
 }
 
 basis=avqz
   {hf,maxit=500;accu,20;}
 {ccsd(t),nocheck,maxit=250;orbital,IGNORE_ERROR;}

 Variables initialized (889), CPU time= 0.00 sec
 Commands  initialized (702), CPU time= 0.00 sec, 572 directives.
 Default parameters read. Elapsed time= 0.06 sec

 Checking input...
 Passed
1


                                         ***  PROGRAM SYSTEM MOLPRO  ***
                                       Copyright, TTI GmbH Stuttgart, 2015
                                    Version 2015.1 linked Jul  9 2018 13:16:40


 **********************************************************************************************************************************
 LABEL *   hno CCSD(T)/TZ-F12 QFF                                                        
  64 bit serial version                                                                  DATE: 08-Feb-20          TIME: 17:51:47  
 **********************************************************************************************************************************

 SHA1:             d5ffa45e93fdbca01ffc919aa182cfdae0147319
 **********************************************************************************************************************************

 THRESHOLDS:

 ZERO    =  1.00D-22  ONEINT  =  1.00D-22  TWOINT  =  1.00D-22  PREFAC  =  1.00D-14  LOCALI  =  1.00D-09  EORDER  =  1.00D-04
 ENERGY  =  1.00D-12  ETEST   =  0.00D+00  EDENS   =  0.00D+00  THRDEDEF=  1.00D-06  GRADIENT=  1.00D-02  STEP    =  1.00D-03
 ORBITAL =  1.00D-05  CIVEC   =  1.00D-05  COEFF   =  1.00D-04  PRINTCI =  5.00D-02  PUNCHCI =  9.90D+01  OPTGRAD =  3.00D-04
 OPTENERG=  1.00D-06  OPTSTEP =  3.00D-04  THRGRAD =  1.00D-10  COMPRESS=  1.00D-11  VARMIN  =  1.00D-07  VARMAX  =  1.00D-03
 THRDOUB =  0.00D+00  THRDIV  =  1.00D-05  THRRED  =  1.00D-07  THRPSP  =  1.00D+00  THRDC   =  1.00D-10  THRCS   =  1.00D-10
 THRNRM  =  1.00D-08  THREQ   =  0.00D+00  THRDE   =  1.00D+00  THRREF  =  1.00D-05  SPARFAC =  1.00D+00  THRDLP  =  1.00D-07
 THRDIA  =  1.00D-10  THRDLS  =  1.00D-07  THRGPS  =  0.00D+00  THRKEX  =  0.00D+00  THRDIS  =  2.00D-01  THRVAR  =  1.00D-10
 THRLOC  =  1.00D-06  THRGAP  =  1.00D-06  THRLOCT = -1.00D+00  THRGAPT = -1.00D+00  THRORB  =  1.00D-06  THRMLTP =  0.00D+00
 THRCPQCI=  1.00D-10  KEXTA   =  0.00D+00  THRCOARS=  0.00D+00  SYMTOL  =  1.00D-06  GRADTOL =  1.00D-06  THROVL  =  1.00D-08
 THRORTH =  1.00D-08  GRID    =  1.00D-06  GRIDMAX =  1.00D-03  DTMAX   =  0.00D+00  THROCCDE=  1.00D-01  THROCCDE=  1.00D-01



 THRESHOLDS:

 ZERO    =  1.00D-22  ONEINT  =  1.00D-22  TWOINT  =  1.00D-22  PREFAC  =  1.00D-14  LOCALI  =  1.00D-09  EORDER  =  1.00D-04
 ENERGY  =  1.00D-12  ETEST   =  0.00D+00  EDENS   =  0.00D+00  THRDEDEF=  1.00D-06  GRADIENT=  1.00D-02  STEP    =  1.00D-03
 ORBITAL =  1.00D-05  CIVEC   =  1.00D-05  COEFF   =  1.00D-04  PRINTCI =  5.00D-02  PUNCHCI =  9.90D+01  OPTGRAD =  1.00D-08
 OPTENERG=  1.00D-06  OPTSTEP =  1.00D-08  THRGRAD =  1.00D-10  COMPRESS=  1.00D-11  VARMIN  =  1.00D-07  VARMAX  =  1.00D-03
 THRDOUB =  0.00D+00  THRDIV  =  1.00D-05  THRRED  =  1.00D-07  THRPSP  =  1.00D+00  THRDC   =  1.00D-10  THRCS   =  1.00D-10
 THRNRM  =  1.00D-08  THREQ   =  0.00D+00  THRDE   =  1.00D+00  THRREF  =  1.00D-05  SPARFAC =  1.00D+00  THRDLP  =  1.00D-07
 THRDIA  =  1.00D-10  THRDLS  =  1.00D-07  THRGPS  =  0.00D+00  THRKEX  =  0.00D+00  THRDIS  =  2.00D-01  THRVAR  =  1.00D-10
 THRLOC  =  1.00D-06  THRGAP  =  1.00D-06  THRLOCT = -1.00D+00  THRGAPT = -1.00D+00  THRORB  =  1.00D-06  THRMLTP =  0.00D+00
 THRCPQCI=  1.00D-10  KEXTA   =  0.00D+00  THRCOARS=  0.00D+00  SYMTOL  =  1.00D-06  GRADTOL =  1.00D-06  THROVL  =  1.00D-08
 THRORTH =  1.00D-08  GRID    =  1.00D-06  GRIDMAX =  1.00D-03  DTMAX   =  0.00D+00  THROCCDE=  1.00D-01  THROCCDE=  1.00D-01



 Input parameters for SORTINT:

 COMPRESS =    0.000000
 C_FINAL  =    1.000000
 DEBUG    =   -1.000000
 C_SORT1  =    0.000000
 C_SEWARD =    0.000000
 THRESH   =    0.000000
 IO       =  molpro                                                          
 SPRI     =    0.000000
 SETTING GEOMTYP        =    XYZ
 ZUNIT=BOHR
 

 Variable memory set to  995000000 words,  buffer space   230000 words

 SETTING BASIS          =    AVQZ


 Recomputing integrals since basis changed


 Using spherical harmonics

 Library entry N      S aug-cc-pVQZ          selected for orbital group  1
 Library entry N      P aug-cc-pVQZ          selected for orbital group  1
 Library entry N      D aug-cc-pVQZ          selected for orbital group  1
 Library entry N      F aug-cc-pVQZ          selected for orbital group  1
 Library entry N      G aug-cc-pVQZ          selected for orbital group  1
 Library entry H      S aug-cc-pVQZ          selected for orbital group  2
 Library entry H      P aug-cc-pVQZ          selected for orbital group  2
 Library entry H      D aug-cc-pVQZ          selected for orbital group  2
 Library entry H      F aug-cc-pVQZ          selected for orbital group  2
 Library entry O      S aug-cc-pVQZ          selected for orbital group  3
 Library entry O      P aug-cc-pVQZ          selected for orbital group  3
 Library entry O      D aug-cc-pVQZ          selected for orbital group  3
 Library entry O      F aug-cc-pVQZ          selected for orbital group  3
 Library entry O      G aug-cc-pVQZ          selected for orbital group  3


 PROGRAM * SEWARD (Integral evaluation for generally contracted gaussian basis sets)     Author: Roland Lindh, 1990

 Geometry written to block  1 of record 700


 Point group  Cs  



 ATOMIC COORDINATES

 NR  ATOM    CHARGE       X              Y              Z

   1  N       7.00    0.000000000   -0.151748825   -1.146280523
   2  H       1.00    0.000000000    1.662940059   -1.934818877
   3  O       8.00    0.000000000    0.030576556    1.130509810

 Bond lengths in Bohr (Angstrom)

 1-2  1.978607712  1-3  2.284078975
     ( 1.047034111)     ( 1.208682542)

 Bond angles

  2-1-3  108.90795847

 NUCLEAR CHARGE:                   16
 NUMBER OF PRIMITIVE AOS:         293
 NUMBER OF SYMMETRY AOS:          234
 NUMBER OF CONTRACTIONS:          206   ( 130A'  +  76A"  )
 NUMBER OF CORE ORBITALS:           2   (   2A'  +   0A"  )
 NUMBER OF VALENCE ORBITALS:        9   (   7A'  +   2A"  )


 NUCLEAR REPULSION ENERGY   30.35895020

 Eigenvalues of metric

         1 0.589E-04 0.144E-03 0.317E-03 0.435E-03 0.584E-03 0.673E-03 0.100E-02 0.108E-02
         2 0.822E-03 0.160E-02 0.490E-02 0.893E-02 0.100E-01 0.123E-01 0.125E-01 0.185E-01


 Contracted 2-electron integrals neglected if value below      1.0D-22

      109944311. INTEGRALS WRITTEN OUT IN   26849 BLOCKS ON RECORD 1290 OF FILE 1


 NUMBER OF SORTED TWO-ELECTRON INTEGRALS:  115283741.     BUFFER LENGTH:  32768
 NUMBER OF SEGMENTS:   8  SEGMENT LENGTH:   15998004      RECORD LENGTH: 524288

 Memory used in sort:      16.56 MW

 SORT1 READ   109944311. AND WROTE   110864458. INTEGRALS IN    322 RECORDS. CPU TIME:     2.75 SEC, REAL TIME:     3.52 SEC
 SORT2 READ   110864458. AND WROTE   115283741. INTEGRALS IN      8 RECORDS. CPU TIME:     1.52 SEC, REAL TIME:     2.04 SEC

 FILE SIZES:   FILE 1:  1780.6 MBYTE,  FILE 4:  1350.6 MBYTE,   TOTAL:   3131.2 MBYTE

 OPERATOR DM      FOR CENTER  0  COORDINATES:    0.000000    0.000000    0.000000


 **********************************************************************************************************************************
 DATASETS  * FILE   NREC   LENGTH (MB)   RECORD NAMES
              1      19      944.13       500      610      700      900      950      970     1000      129      960     1100   
                                          VAR    BASINP    GEOM    SYMINP    ZMAT    AOBASIS   BASIS     P2S    ABASIS      S 
                                         1400     1410     1200     1210     1080     1600     1650     1300     1700   
                                           T        V       H0       H01     AOSYM     SMH    MOLCAS    ERIS     OPER   

 PROGRAMS   *        TOTAL       INT
 CPU TIMES  *        14.47     14.37
 REAL TIME  *        17.41 SEC
 DISK USED  *         3.13 GB      
 **********************************************************************************************************************************


 PROGRAM * RHF-SCF (CLOSED SHELL)       Authors: W. Meyer, H.-J. Werner


 NUMBER OF ELECTRONS:       8+    8-
 CONVERGENCE THRESHOLDS:    1.00E-10 (Density)    1.00E-13 (Energy)
 MAX. NUMBER OF ITERATIONS:      500
 INTERPOLATION TYPE:            DIIS
 INTERPOLATION STEPS:              2 (START)      1 (STEP)
 LEVEL SHIFTS:                  0.00 (CLOSED)  0.00 (OPEN) 



 Orbital guess generated from atomic densities. Full valence occupancy:    9   2

 Molecular orbital dump at record        2100.2

 Initial occupancy:   7   1

 ITERATION    DDIFF          GRAD             ENERGY        2-EL.EN.            DIPOLE MOMENTS         DIIS   ORB.
    1      0.000D+00      0.000D+00      -129.79690284    153.943448    0.00000    0.60415   -1.02964    0    start
    2      0.000D+00      0.810D-02      -129.82415541    155.172470    0.00000    0.61073   -0.21260    1    diag
    3      0.652D-02      0.617D-02      -129.84688297    155.297552    0.00000    0.56135   -0.59826    2    diag
    4      0.332D-02      0.975D-03      -129.84768994    155.011949    0.00000    0.56841   -0.53657    3    diag
    5      0.608D-03      0.315D-03      -129.84781557    155.105452    0.00000    0.57372   -0.53918    4    diag
    6      0.252D-03      0.908D-04      -129.84783551    155.089351    0.00000    0.57402   -0.53500    5    diag
    7      0.959D-04      0.453D-04      -129.84784133    155.092077    0.00000    0.57524   -0.53239    6    diag
    8      0.662D-04      0.159D-04      -129.84784199    155.091387    0.00000    0.57529   -0.53136    7    diag
    9      0.256D-04      0.305D-05      -129.84784202    155.091272    0.00000    0.57525   -0.53114    8    diag
   10      0.512D-05      0.697D-06      -129.84784202    155.091254    0.00000    0.57521   -0.53111    9    orth
   11      0.101D-05      0.139D-06      -129.84784202    155.091250    0.00000    0.57521   -0.53110    9    diag
   12      0.184D-06      0.281D-07      -129.84784202    155.091250    0.00000    0.57521   -0.53110    9    diag
   13      0.391D-07      0.725D-08      -129.84784202    155.091250    0.00000    0.57521   -0.53110    9    diag
   14      0.106D-07      0.142D-08      -129.84784202    155.091250    0.00000    0.57521   -0.53110    9    diag
   15      0.195D-08      0.407D-09      -129.84784202    155.091250    0.00000    0.57521   -0.53110    9    diag
   16      0.582D-09      0.121D-09      -129.84784202    155.091250    0.00000    0.57521   -0.53110    9    diag
   17      0.109D-09      0.311D-10      -129.84784202    155.091250    0.00000    0.57521   -0.53110    9    diag
   18      0.292D-10      0.104D-10      -129.84784202    155.091250    0.00000    0.57521   -0.53110    9    diag
   19      0.139D-10      0.247D-11      -129.84784202    155.091250    0.00000    0.57521   -0.53110    9    fixocc
   20      0.657D-11      0.447D-12      -129.84784202    155.091250    0.00000    0.57521   -0.53110    0    orth

 Final occupancy:   7   1

 !RHF STATE 1.1 Energy               -129.847842020990
 Nuclear energy                        30.35895020
 One-electron energy                 -237.75241735
 Two-electron energy                   77.54562513
 Virial quotient                       -1.00172867
 !RHF STATE 1.1 Dipole moment           0.00000000     0.57520515    -0.53110308
 Dipole moment /Debye                   0.00000000     1.46192991    -1.34984096

 Orbital energies:

         1.1          2.1          3.1          4.1          5.1          6.1          7.1          8.1          9.1
    -20.653834   -15.711960    -1.528699    -0.996411    -0.747514    -0.666042    -0.430555     0.026295     0.079460

         1.2          2.2          3.2
     -0.595568     0.062997     0.110278

 HOMO      7.1    -0.430555 =     -11.7160eV
 LUMO      8.1     0.026295 =       0.7155eV
 LUMO-HOMO         0.456850 =      12.4315eV


 **********************************************************************************************************************************
 DATASETS  * FILE   NREC   LENGTH (MB)   RECORD NAMES
              1      19      944.13       500      610      700      900      950      970     1000      129      960     1100   
                                          VAR    BASINP    GEOM    SYMINP    ZMAT    AOBASIS   BASIS     P2S    ABASIS      S 
                                         1400     1410     1200     1210     1080     1600     1650     1300     1700   
                                           T        V       H0       H01     AOSYM     SMH    MOLCAS    ERIS     OPER   

              2       4        3.27       700     1000      520     2100   
                                         GEOM     BASIS   MCVARS     RHF  

 PROGRAMS   *        TOTAL        HF       INT
 CPU TIMES  *        26.94     12.46     14.37
 REAL TIME  *        32.23 SEC
 DISK USED  *         3.13 GB      
 **********************************************************************************************************************************


 PROGRAM * CCSD (Closed-shell coupled cluster)     Authors: C. Hampel, H.-J. Werner, 1991, M. Deegan, P.J. Knowles, 1992


 Convergence thresholds:  THRVAR = 1.00D-08  THRDEN = 1.00D-12

 CCSD(T)     terms to be evaluated (factor= 1.000)


 Number of core orbitals:           2 (   2   0 )
 Number of closed-shell orbitals:   6 (   5   1 )
 Number of external orbitals:     198 ( 123  75 )

 Molecular orbitals read from record     2100.2  Type=RHF/CANONICAL (state 1.1)

 Number of N-1 electron functions:               6
 Number of N-2 electron functions:              21
 Number of singly external CSFs:               690
 Number of doubly external CSFs:            362646
 Total number of CSFs:                      363337

 Length of J-op  integral file:               0.00 MB
 Length of K-op  integral file:               1.60 MB
 Length of 3-ext integral record:             0.00 MB

 Memory could be reduced to 34.67 Mwords without degradation in triples

 Integral transformation finished. Total CPU:   1.97 sec, npass=  1  Memory used:   9.53 MW

 Reference energy:                   -129.84784202

 MP2 singlet pair energy:              -0.30157911
 MP2 triplet pair energy:              -0.17041826
 MP2 correlation energy:               -0.47199738
 MP2 total energy:                   -130.31983940

 SCS-MP2 correlation energy:           -0.46793297   (PS=  1.200000  PT=  0.333333)
 SCS-MP2 total energy:               -130.31577499

 ITER.      SQ.NORM     CORR.ENERGY   TOTAL ENERGY   ENERGY CHANGE        DEN1      VAR(S)    VAR(P)  DIIS     TIME  TIME/IT
   1      1.12096289    -0.47201311  -130.31985514    -0.00001574     0.01640227  0.32D-02  0.32D-02  1  1     3.76     1.90
   2      1.13166433    -0.47196564  -130.31980766     0.00004747    -0.01250110  0.10D-03  0.49D-03  2  2     5.59     1.93
   3      1.13797436    -0.47234351  -130.32018553    -0.00037787    -0.00304353  0.49D-04  0.54D-04  3  3     7.43     1.95
   4      1.14073952    -0.47235070  -130.32019272    -0.00000719    -0.00093777  0.44D-05  0.97D-05  4  4     9.28     1.95
   5      1.14184176    -0.47238018  -130.32022220    -0.00002948    -0.00024002  0.11D-05  0.17D-05  5  5    11.13     1.95
   6      1.14219907    -0.47236528  -130.32020730     0.00001489    -0.00005125  0.11D-06  0.40D-06  6  6    12.94     1.96
   7      1.14227273    -0.47236582  -130.32020784    -0.00000054     0.00000256  0.16D-07  0.92D-07  6  1    14.79     1.96
   8      1.14229554    -0.47236619  -130.32020821    -0.00000037    -0.00000112  0.35D-08  0.18D-07  6  2    16.65     1.96
   9      1.14230059    -0.47236580  -130.32020783     0.00000039     0.00000096  0.26D-08  0.21D-08  6  4    18.51     1.96
  10      1.14230306    -0.47236618  -130.32020821    -0.00000038    -0.00000076  0.49D-09  0.25D-09  6  3    20.35     1.96
  11      1.14230277    -0.47236625  -130.32020827    -0.00000006    -0.00000011  0.15D-09  0.36D-10  6  5    22.23     1.96
  12      1.14230180    -0.47236639  -130.32020841    -0.00000014     0.00000036  0.19D-10  0.11D-10  6  6    24.06     1.96
  13      1.14230095    -0.47236643  -130.32020845    -0.00000004     0.00000022  0.59D-11  0.24D-11  6  1    25.91     1.96
  14      1.14230027    -0.47236646  -130.32020849    -0.00000003     0.00000016  0.39D-12  0.49D-12  6  4    27.72     1.96
  15      1.14230006    -0.47236647  -130.32020849    -0.00000001     0.00000003  0.84D-13  0.38D-13  6  2    29.55     1.96
  16      1.14230001    -0.47236647  -130.32020849    -0.00000000     0.00000001  0.23D-13  0.71D-14  6  3    31.37     1.96
  17      1.14229998    -0.47236647  -130.32020850    -0.00000000     0.00000001  0.41D-14  0.10D-14  6  5    33.24     1.96
  18      1.14229998    -0.47236647  -130.32020850    -0.00000000     0.00000000  0.85D-15  0.26D-15  6  6    35.09     1.96
  19      1.14229998    -0.47236647  -130.32020850    -0.00000000     0.00000000  0.10D-15  0.53D-16  6  1    36.93     1.96
  20      1.14229998    -0.47236647  -130.32020850     0.00000000    -0.00000000  0.10D-16  0.78D-17  6  4    38.79     1.96
  21      1.14229998    -0.47236647  -130.32020850     0.00000000    -0.00000000  0.49D-18  0.69D-18  6  3    40.65     1.96
  22      1.14229998    -0.47236647  -130.32020850     0.00000000    -0.00000000  0.12D-18  0.16D-18  6  2    42.50     1.96
  23      1.14229998    -0.47236647  -130.32020850     0.00000000    -0.00000000  0.10D-19  0.36D-19  6  1    44.34     1.96
  24      1.14229998    -0.47236647  -130.32020850    -0.00000000     0.00000000  0.19D-20  0.71D-20  6  5    46.18     1.96
  25      1.14229998    -0.47236647  -130.32020850    -0.00000000     0.00000000  0.13D-20  0.17D-20  6  6    48.02     1.96

 Norm of t1 vector:      0.07688862      S-energy:     0.00000000      T1 diagnostic:  0.01569482
                                                                       D1 diagnostic:  0.04231888

 Doubles amplitudes (print threshold =  0.500E-01):

         I         J         SYM. A    SYM. B    A         B      T(IJ, AB)

         6         6         2         2         1         1     -0.09902863


 Total CPU time for triples:     22.27 sec


 RESULTS
 =======

  Reference energy                   -129.847842020990
  CCSD singlet pair energy             -0.326513839397
  CCSD triplet pair energy             -0.145852635388
  CCSD correlation energy              -0.472366474784

  Triples (T) contribution             -0.022359927344
  Total correlation energy             -0.494726402129

  CCSD total energy                  -130.320208495774
  CCSD[T] energy                     -130.343643910909
  CCSD-T energy                      -130.342183221789
 !CCSD(T) total energy               -130.342568423119

 Timing summary (sec):

 STEP                 CPU(USER)    SYS     CPU(TOT)    WALL
 Transformation          1.99      0.25      2.24      2.50
 CCSD iterations        46.03      3.10     49.13     49.14
 Triples                22.27      0.38     22.65     22.65

 Program statistics:

 Available memory in ccsd:               994999756
 Min. memory needed in ccsd:               1265322
 Max. memory used in ccsd:                 1555950
 Max. memory used in cckext:               2415326 (25 integral passes)



 **********************************************************************************************************************************
 DATASETS  * FILE   NREC   LENGTH (MB)   RECORD NAMES
              1      20     1044.68       500      610      700      900      950      970     1000      129      960     1100   
                                          VAR    BASINP    GEOM    SYMINP    ZMAT    AOBASIS   BASIS     P2S    ABASIS      S 
                                         1400     1410     1200     1210     1080     1600     1650     1300     1700     1380   
                                           T        V       H0       H01     AOSYM     SMH    MOLCAS    ERIS     OPER     JKOP   

              2       4        3.27       700     1000      520     2100   
                                         GEOM     BASIS   MCVARS     RHF  

 PROGRAMS   *        TOTAL   CCSD(T)        HF       INT
 CPU TIMES  *        97.26     70.31     12.46     14.37
 REAL TIME  *       106.55 SEC
 DISK USED  *         3.13 GB      
 **********************************************************************************************************************************

 CCSD(T)/aug-cc-pVQZ energy=   -130.342568423119

        CCSD(T)         HF-SCF  
   -130.34256842   -129.84784202
 **********************************************************************************************************************************
 Molpro calculation terminated
 Variable memory released
