
 Primary working directories    : /tmp/r2666/234859.maple
 Secondary working directories  : /tmp/r2666/234859.maple
 Wavefunction directory         : /ddn/home4/r2666/wfu/
 Main file repository           : /tmp/r2666/234859.maple/

 SHA1      : d5ffa45e93fdbca01ffc919aa182cfdae0147319
 NAME      : 2015.1.35
 ARCHNAME  : linux/x86_64
 FC        : /opt/intel/composer_xe_2015.1.133/bin/intel64/ifort
 BLASLIB   : -Wl,-_start-group /opt/intel/mkl/lib/intel64/libmkl_intel_ilp64.a /opt/intel/mkl/lib/intel64/libmkl_intel_thread.a /opt/intel/mkl/lib/intel64/libmkl_core.a -Wl,-_end-group
 id        : olemiss

 Nodes     nprocs
 cn041        1

 Using customized tuning parameters: mindgm=1; mindgv=20; mindgc=4; mindgr=1; noblas=0; minvec=7
 default implementation of scratch files=df  

 ***,hno CCSD(T)/TZ-F12 QFF
 memory, 995, m;
 gthresh,energy=1.d-12,zero=1.d-22,oneint=1.d-22,twoint=1.d-22;
 gthresh,optgrad=1.d-8,optstep=1.d-8;
 nocompress;
 geomtyp=xyz
 bohr
 geometry={
 3
        102       102
 N        0.0000000000       -0.1594030621       -1.1368679282
 H        0.0000000000        1.6706494297       -1.9374514595
 O        0.0000000000        0.0305214224        1.1237297967
 }
 
 basis=avqz
   {hf,maxit=500;accu,20;}
 {ccsd(t),nocheck,maxit=250;orbital,IGNORE_ERROR;}

 Variables initialized (889), CPU time= 0.01 sec
 Commands  initialized (702), CPU time= 0.01 sec, 572 directives.
 Default parameters read. Elapsed time= 0.06 sec

 Checking input...
 Passed
1


                                         ***  PROGRAM SYSTEM MOLPRO  ***
                                       Copyright, TTI GmbH Stuttgart, 2015
                                    Version 2015.1 linked Jul  9 2018 13:16:40


 **********************************************************************************************************************************
 LABEL *   hno CCSD(T)/TZ-F12 QFF                                                        
  64 bit serial version                                                                  DATE: 08-Feb-20          TIME: 17:54:42  
 **********************************************************************************************************************************

 SHA1:             d5ffa45e93fdbca01ffc919aa182cfdae0147319
 **********************************************************************************************************************************

 THRESHOLDS:

 ZERO    =  1.00D-22  ONEINT  =  1.00D-22  TWOINT  =  1.00D-22  PREFAC  =  1.00D-14  LOCALI  =  1.00D-09  EORDER  =  1.00D-04
 ENERGY  =  1.00D-12  ETEST   =  0.00D+00  EDENS   =  0.00D+00  THRDEDEF=  1.00D-06  GRADIENT=  1.00D-02  STEP    =  1.00D-03
 ORBITAL =  1.00D-05  CIVEC   =  1.00D-05  COEFF   =  1.00D-04  PRINTCI =  5.00D-02  PUNCHCI =  9.90D+01  OPTGRAD =  3.00D-04
 OPTENERG=  1.00D-06  OPTSTEP =  3.00D-04  THRGRAD =  1.00D-10  COMPRESS=  1.00D-11  VARMIN  =  1.00D-07  VARMAX  =  1.00D-03
 THRDOUB =  0.00D+00  THRDIV  =  1.00D-05  THRRED  =  1.00D-07  THRPSP  =  1.00D+00  THRDC   =  1.00D-10  THRCS   =  1.00D-10
 THRNRM  =  1.00D-08  THREQ   =  0.00D+00  THRDE   =  1.00D+00  THRREF  =  1.00D-05  SPARFAC =  1.00D+00  THRDLP  =  1.00D-07
 THRDIA  =  1.00D-10  THRDLS  =  1.00D-07  THRGPS  =  0.00D+00  THRKEX  =  0.00D+00  THRDIS  =  2.00D-01  THRVAR  =  1.00D-10
 THRLOC  =  1.00D-06  THRGAP  =  1.00D-06  THRLOCT = -1.00D+00  THRGAPT = -1.00D+00  THRORB  =  1.00D-06  THRMLTP =  0.00D+00
 THRCPQCI=  1.00D-10  KEXTA   =  0.00D+00  THRCOARS=  0.00D+00  SYMTOL  =  1.00D-06  GRADTOL =  1.00D-06  THROVL  =  1.00D-08
 THRORTH =  1.00D-08  GRID    =  1.00D-06  GRIDMAX =  1.00D-03  DTMAX   =  0.00D+00  THROCCDE=  1.00D-01  THROCCDE=  1.00D-01



 THRESHOLDS:

 ZERO    =  1.00D-22  ONEINT  =  1.00D-22  TWOINT  =  1.00D-22  PREFAC  =  1.00D-14  LOCALI  =  1.00D-09  EORDER  =  1.00D-04
 ENERGY  =  1.00D-12  ETEST   =  0.00D+00  EDENS   =  0.00D+00  THRDEDEF=  1.00D-06  GRADIENT=  1.00D-02  STEP    =  1.00D-03
 ORBITAL =  1.00D-05  CIVEC   =  1.00D-05  COEFF   =  1.00D-04  PRINTCI =  5.00D-02  PUNCHCI =  9.90D+01  OPTGRAD =  1.00D-08
 OPTENERG=  1.00D-06  OPTSTEP =  1.00D-08  THRGRAD =  1.00D-10  COMPRESS=  1.00D-11  VARMIN  =  1.00D-07  VARMAX  =  1.00D-03
 THRDOUB =  0.00D+00  THRDIV  =  1.00D-05  THRRED  =  1.00D-07  THRPSP  =  1.00D+00  THRDC   =  1.00D-10  THRCS   =  1.00D-10
 THRNRM  =  1.00D-08  THREQ   =  0.00D+00  THRDE   =  1.00D+00  THRREF  =  1.00D-05  SPARFAC =  1.00D+00  THRDLP  =  1.00D-07
 THRDIA  =  1.00D-10  THRDLS  =  1.00D-07  THRGPS  =  0.00D+00  THRKEX  =  0.00D+00  THRDIS  =  2.00D-01  THRVAR  =  1.00D-10
 THRLOC  =  1.00D-06  THRGAP  =  1.00D-06  THRLOCT = -1.00D+00  THRGAPT = -1.00D+00  THRORB  =  1.00D-06  THRMLTP =  0.00D+00
 THRCPQCI=  1.00D-10  KEXTA   =  0.00D+00  THRCOARS=  0.00D+00  SYMTOL  =  1.00D-06  GRADTOL =  1.00D-06  THROVL  =  1.00D-08
 THRORTH =  1.00D-08  GRID    =  1.00D-06  GRIDMAX =  1.00D-03  DTMAX   =  0.00D+00  THROCCDE=  1.00D-01  THROCCDE=  1.00D-01



 Input parameters for SORTINT:

 COMPRESS =    0.000000
 C_FINAL  =    1.000000
 DEBUG    =   -1.000000
 C_SORT1  =    0.000000
 C_SEWARD =    0.000000
 THRESH   =    0.000000
 IO       =  molpro                                                          
 SPRI     =    0.000000
 SETTING GEOMTYP        =    XYZ
 ZUNIT=BOHR
 

 Variable memory set to  995000000 words,  buffer space   230000 words

 SETTING BASIS          =    AVQZ


 Recomputing integrals since basis changed


 Using spherical harmonics

 Library entry N      S aug-cc-pVQZ          selected for orbital group  1
 Library entry N      P aug-cc-pVQZ          selected for orbital group  1
 Library entry N      D aug-cc-pVQZ          selected for orbital group  1
 Library entry N      F aug-cc-pVQZ          selected for orbital group  1
 Library entry N      G aug-cc-pVQZ          selected for orbital group  1
 Library entry H      S aug-cc-pVQZ          selected for orbital group  2
 Library entry H      P aug-cc-pVQZ          selected for orbital group  2
 Library entry H      D aug-cc-pVQZ          selected for orbital group  2
 Library entry H      F aug-cc-pVQZ          selected for orbital group  2
 Library entry O      S aug-cc-pVQZ          selected for orbital group  3
 Library entry O      P aug-cc-pVQZ          selected for orbital group  3
 Library entry O      D aug-cc-pVQZ          selected for orbital group  3
 Library entry O      F aug-cc-pVQZ          selected for orbital group  3
 Library entry O      G aug-cc-pVQZ          selected for orbital group  3


 PROGRAM * SEWARD (Integral evaluation for generally contracted gaussian basis sets)     Author: Roland Lindh, 1990

 Geometry written to block  1 of record 700


 Point group  Cs  



 ATOMIC COORDINATES

 NR  ATOM    CHARGE       X              Y              Z

   1  N       7.00    0.000000000   -0.159403062   -1.136867928
   2  H       1.00    0.000000000    1.670649430   -1.937451460
   3  O       8.00    0.000000000    0.030521422    1.123729797

 Bond lengths in Bohr (Angstrom)

 1-2  1.997504972  1-3  2.268561964
     ( 1.057034110)     ( 1.200471293)

 Bond angles

  2-1-3  108.82524850

 NUCLEAR CHARGE:                   16
 NUMBER OF PRIMITIVE AOS:         293
 NUMBER OF SYMMETRY AOS:          234
 NUMBER OF CONTRACTIONS:          206   ( 130A'  +  76A"  )
 NUMBER OF CORE ORBITALS:           2   (   2A'  +   0A"  )
 NUMBER OF VALENCE ORBITALS:        9   (   7A'  +   2A"  )


 NUCLEAR REPULSION ENERGY   30.49318119

 Eigenvalues of metric

         1 0.592E-04 0.144E-03 0.316E-03 0.434E-03 0.574E-03 0.682E-03 0.101E-02 0.107E-02
         2 0.805E-03 0.165E-02 0.486E-02 0.891E-02 0.102E-01 0.121E-01 0.124E-01 0.187E-01


 Contracted 2-electron integrals neglected if value below      1.0D-22

      109945094. INTEGRALS WRITTEN OUT IN   26849 BLOCKS ON RECORD 1290 OF FILE 1


 NUMBER OF SORTED TWO-ELECTRON INTEGRALS:  115283741.     BUFFER LENGTH:  32768
 NUMBER OF SEGMENTS:   8  SEGMENT LENGTH:   15998004      RECORD LENGTH: 524288

 Memory used in sort:      16.56 MW

 SORT1 READ   109945094. AND WROTE   110865261. INTEGRALS IN    322 RECORDS. CPU TIME:     3.84 SEC, REAL TIME:     4.88 SEC
 SORT2 READ   110865261. AND WROTE   115283741. INTEGRALS IN      8 RECORDS. CPU TIME:     1.66 SEC, REAL TIME:     2.24 SEC

 FILE SIZES:   FILE 1:  1780.6 MBYTE,  FILE 4:  1350.6 MBYTE,   TOTAL:   3131.2 MBYTE

 OPERATOR DM      FOR CENTER  0  COORDINATES:    0.000000    0.000000    0.000000


 **********************************************************************************************************************************
 DATASETS  * FILE   NREC   LENGTH (MB)   RECORD NAMES
              1      19      944.14       500      610      700      900      950      970     1000      129      960     1100   
                                          VAR    BASINP    GEOM    SYMINP    ZMAT    AOBASIS   BASIS     P2S    ABASIS      S 
                                         1400     1410     1200     1210     1080     1600     1650     1300     1700   
                                           T        V       H0       H01     AOSYM     SMH    MOLCAS    ERIS     OPER   

 PROGRAMS   *        TOTAL       INT
 CPU TIMES  *        18.34     18.24
 REAL TIME  *        21.75 SEC
 DISK USED  *         3.13 GB      
 **********************************************************************************************************************************


 PROGRAM * RHF-SCF (CLOSED SHELL)       Authors: W. Meyer, H.-J. Werner


 NUMBER OF ELECTRONS:       8+    8-
 CONVERGENCE THRESHOLDS:    1.00E-10 (Density)    1.00E-13 (Energy)
 MAX. NUMBER OF ITERATIONS:      500
 INTERPOLATION TYPE:            DIIS
 INTERPOLATION STEPS:              2 (START)      1 (STEP)
 LEVEL SHIFTS:                  0.00 (CLOSED)  0.00 (OPEN) 



 Orbital guess generated from atomic densities. Full valence occupancy:    9   2

 Molecular orbital dump at record        2100.2

 Initial occupancy:   7   1

 ITERATION    DDIFF          GRAD             ENERGY        2-EL.EN.            DIPOLE MOMENTS         DIIS   ORB.
    1      0.000D+00      0.000D+00      -129.79836345    154.176413    0.00000    0.59321   -1.00403    0    start
    2      0.000D+00      0.806D-02      -129.82584080    155.432725    0.00000    0.60465   -0.21152    1    diag
    3      0.645D-02      0.605D-02      -129.84768781    155.536569    0.00000    0.55363   -0.58426    2    diag
    4      0.327D-02      0.964D-03      -129.84847747    155.256132    0.00000    0.56086   -0.52404    3    diag
    5      0.601D-03      0.313D-03      -129.84860165    155.349656    0.00000    0.56631   -0.52686    4    diag
    6      0.250D-03      0.906D-04      -129.84862144    155.333534    0.00000    0.56665   -0.52281    5    diag
    7      0.955D-04      0.448D-04      -129.84862709    155.336390    0.00000    0.56793   -0.52031    6    diag
    8      0.654D-04      0.153D-04      -129.84862769    155.335722    0.00000    0.56798   -0.51934    7    diag
    9      0.243D-04      0.293D-05      -129.84862772    155.335610    0.00000    0.56794   -0.51913    8    diag
   10      0.479D-05      0.679D-06      -129.84862772    155.335591    0.00000    0.56791   -0.51910    9    orth
   11      0.982D-06      0.137D-06      -129.84862772    155.335587    0.00000    0.56790   -0.51910    9    diag
   12      0.185D-06      0.276D-07      -129.84862772    155.335587    0.00000    0.56790   -0.51910    9    diag
   13      0.398D-07      0.705D-08      -129.84862772    155.335587    0.00000    0.56790   -0.51910    9    diag
   14      0.106D-07      0.141D-08      -129.84862772    155.335587    0.00000    0.56790   -0.51910    9    diag
   15      0.200D-08      0.411D-09      -129.84862772    155.335587    0.00000    0.56790   -0.51910    9    diag
   16      0.591D-09      0.126D-09      -129.84862772    155.335587    0.00000    0.56790   -0.51910    9    diag
   17      0.117D-09      0.344D-10      -129.84862772    155.335587    0.00000    0.56790   -0.51910    9    diag
   18      0.331D-10      0.117D-10      -129.84862772    155.335587    0.00000    0.56790   -0.51910    9    diag
   19      0.159D-10      0.290D-11      -129.84862772    155.335587    0.00000    0.56790   -0.51910    9    fixocc
   20      0.560D-11      0.526D-12      -129.84862772    155.335587    0.00000    0.56790   -0.51910    9    orth
   21      0.288D-11      0.269D-12      -129.84862772    155.335587    0.00000    0.56790   -0.51910    9    diag
   22      0.284D-11      0.118D-12      -129.84862772    155.335587    0.00000    0.56790   -0.51910    9    diag
   23      0.122D-11      0.153D-12      -129.84862772    155.335587    0.00000    0.56790   -0.51910    0    orth

 Final occupancy:   7   1

 !RHF STATE 1.1 Energy               -129.848627716745
 Nuclear energy                        30.49318119
 One-electron energy                 -238.00960221
 Two-electron energy                   77.66779331
 Virial quotient                       -1.00159606
 !RHF STATE 1.1 Dipole moment           0.00000000     0.56789607    -0.51909814
 Dipole moment /Debye                   0.00000000     1.44335330    -1.31932945

 Orbital energies:

         1.1          2.1          3.1          4.1          5.1          6.1          7.1          8.1          9.1
    -20.653236   -15.711927    -1.535413    -0.991917    -0.748941    -0.668410    -0.427492     0.026404     0.079479

         1.2          2.2          3.2
     -0.599671     0.065082     0.110886

 HOMO      7.1    -0.427492 =     -11.6327eV
 LUMO      8.1     0.026404 =       0.7185eV
 LUMO-HOMO         0.453897 =      12.3512eV


 **********************************************************************************************************************************
 DATASETS  * FILE   NREC   LENGTH (MB)   RECORD NAMES
              1      19      944.14       500      610      700      900      950      970     1000      129      960     1100   
                                          VAR    BASINP    GEOM    SYMINP    ZMAT    AOBASIS   BASIS     P2S    ABASIS      S 
                                         1400     1410     1200     1210     1080     1600     1650     1300     1700   
                                           T        V       H0       H01     AOSYM     SMH    MOLCAS    ERIS     OPER   

              2       4        3.27       700     1000      520     2100   
                                         GEOM     BASIS   MCVARS     RHF  

 PROGRAMS   *        TOTAL        HF       INT
 CPU TIMES  *        34.12     15.77     18.24
 REAL TIME  *        41.61 SEC
 DISK USED  *         3.13 GB      
 **********************************************************************************************************************************


 PROGRAM * CCSD (Closed-shell coupled cluster)     Authors: C. Hampel, H.-J. Werner, 1991, M. Deegan, P.J. Knowles, 1992


 Convergence thresholds:  THRVAR = 1.00D-08  THRDEN = 1.00D-12

 CCSD(T)     terms to be evaluated (factor= 1.000)


 Number of core orbitals:           2 (   2   0 )
 Number of closed-shell orbitals:   6 (   5   1 )
 Number of external orbitals:     198 ( 123  75 )

 Molecular orbitals read from record     2100.2  Type=RHF/CANONICAL (state 1.1)

 Number of N-1 electron functions:               6
 Number of N-2 electron functions:              21
 Number of singly external CSFs:               690
 Number of doubly external CSFs:            362646
 Total number of CSFs:                      363337

 Length of J-op  integral file:               0.00 MB
 Length of K-op  integral file:               1.60 MB
 Length of 3-ext integral record:             0.00 MB

 Memory could be reduced to 34.67 Mwords without degradation in triples

 Integral transformation finished. Total CPU:   2.17 sec, npass=  1  Memory used:   9.53 MW

 Reference energy:                   -129.84862772

 MP2 singlet pair energy:              -0.30096855
 MP2 triplet pair energy:              -0.16999917
 MP2 correlation energy:               -0.47096771
 MP2 total energy:                   -130.31959543

 SCS-MP2 correlation energy:           -0.46693951   (PS=  1.200000  PT=  0.333333)
 SCS-MP2 total energy:               -130.31556723

 ITER.      SQ.NORM     CORR.ENERGY   TOTAL ENERGY   ENERGY CHANGE        DEN1      VAR(S)    VAR(P)  DIIS     TIME  TIME/IT
   1      1.12042038    -0.47127941  -130.31990712    -0.00031170     0.01584226  0.31D-02  0.31D-02  1  1     4.01     2.02
   2      1.13098046    -0.47129285  -130.31992056    -0.00001344    -0.01234740  0.10D-03  0.48D-03  2  2     5.88     2.06
   3      1.13718213    -0.47166428  -130.32029200    -0.00037143    -0.00301306  0.48D-04  0.52D-04  3  3     7.75     2.08
   4      1.13986930    -0.47166975  -130.32029747    -0.00000547    -0.00091926  0.42D-05  0.94D-05  4  4     9.66     2.08
   5      1.14093229    -0.47169829  -130.32032601    -0.00002854    -0.00023222  0.11D-05  0.16D-05  5  5    11.55     2.09
   6      1.14127957    -0.47168426  -130.32031197     0.00001403    -0.00004947  0.11D-06  0.40D-06  6  6    13.46     2.09
   7      1.14135440    -0.47168451  -130.32031222    -0.00000025     0.00000200  0.18D-07  0.88D-07  6  1    15.40     2.09
   8      1.14137745    -0.47168492  -130.32031263    -0.00000041    -0.00000117  0.37D-08  0.17D-07  6  2    17.32     2.10
   9      1.14138603    -0.47168438  -130.32031210     0.00000053    -0.00000040  0.22D-08  0.17D-08  6  3    19.19     2.10
  10      1.14138145    -0.47168513  -130.32031285    -0.00000075     0.00000151  0.31D-09  0.27D-09  6  5    21.14     2.10
  11      1.14138312    -0.47168509  -130.32031281     0.00000004    -0.00000030  0.92D-10  0.24D-10  6  4    22.93     2.10
  12      1.14138271    -0.47168516  -130.32031288    -0.00000007     0.00000003  0.17D-10  0.59D-11  6  6    24.78     2.09
  13      1.14138253    -0.47168516  -130.32031288    -0.00000000    -0.00000004  0.32D-11  0.83D-12  6  1    26.68     2.09
  14      1.14138226    -0.47168517  -130.32031289    -0.00000001     0.00000004  0.44D-12  0.16D-12  6  3    28.61     2.09
  15      1.14138218    -0.47168518  -130.32031289    -0.00000000     0.00000001  0.12D-12  0.21D-13  6  2    30.56     2.09
  16      1.14138217    -0.47168518  -130.32031289     0.00000000     0.00000000  0.29D-13  0.94D-14  6  4    32.50     2.10
  17      1.14138217    -0.47168518  -130.32031289    -0.00000000    -0.00000000  0.14D-14  0.10D-14  6  5    34.34     2.10
  18      1.14138218    -0.47168518  -130.32031289     0.00000000    -0.00000000  0.23D-15  0.24D-15  6  6    36.29     2.10
  19      1.14138218    -0.47168518  -130.32031289     0.00000000    -0.00000000  0.31D-16  0.28D-16  6  5    38.28     2.10
  20      1.14138218    -0.47168518  -130.32031289     0.00000000    -0.00000000  0.59D-17  0.37D-17  6  1    40.22     2.11
  21      1.14138218    -0.47168518  -130.32031289    -0.00000000     0.00000000  0.76D-18  0.53D-18  6  3    42.14     2.11
  22      1.14138218    -0.47168518  -130.32031289    -0.00000000     0.00000000  0.11D-18  0.57D-19  6  2    44.12     2.11
  23      1.14138218    -0.47168518  -130.32031289    -0.00000000     0.00000000  0.22D-19  0.11D-19  6  4    46.10     2.11
  24      1.14138218    -0.47168518  -130.32031289    -0.00000000     0.00000000  0.79D-20  0.18D-20  6  6    48.16     2.12
  25      1.14138218    -0.47168518  -130.32031289     0.00000000    -0.00000000  0.27D-20  0.68D-21  6  5    50.20     2.12

 Norm of t1 vector:      0.07594789      S-energy:    -0.00000000      T1 diagnostic:  0.01550280
                                                                       D1 diagnostic:  0.04125498

 Doubles amplitudes (print threshold =  0.500E-01):

         I         J         SYM. A    SYM. B    A         B      T(IJ, AB)

         6         6         2         2         1         1     -0.09448057


 Total CPU time for triples:     23.22 sec


 RESULTS
 =======

  Reference energy                   -129.848627716745
  CCSD singlet pair energy             -0.325916606710
  CCSD triplet pair energy             -0.145768569686
  CCSD correlation energy              -0.471685176397

  Triples (T) contribution             -0.022168500301
  Total correlation energy             -0.493853676699

  CCSD total energy                  -130.320312893142
  CCSD[T] energy                     -130.343531277430
  CCSD-T energy                      -130.342101102198
 !CCSD(T) total energy               -130.342481393444

 Timing summary (sec):

 STEP                 CPU(USER)    SYS     CPU(TOT)    WALL
 Transformation          2.18      0.31      2.49      2.50
 CCSD iterations        48.03      5.09     53.12     53.11
 Triples                23.22      0.53     23.75     23.77

 Program statistics:

 Available memory in ccsd:               994999756
 Min. memory needed in ccsd:               1265322
 Max. memory used in ccsd:                 1555950
 Max. memory used in cckext:               2415326 (25 integral passes)



 **********************************************************************************************************************************
 DATASETS  * FILE   NREC   LENGTH (MB)   RECORD NAMES
              1      20     1044.69       500      610      700      900      950      970     1000      129      960     1100   
                                          VAR    BASINP    GEOM    SYMINP    ZMAT    AOBASIS   BASIS     P2S    ABASIS      S 
                                         1400     1410     1200     1210     1080     1600     1650     1300     1700     1380   
                                           T        V       H0       H01     AOSYM     SMH    MOLCAS    ERIS     OPER     JKOP   

              2       4        3.27       700     1000      520     2100   
                                         GEOM     BASIS   MCVARS     RHF  

 PROGRAMS   *        TOTAL   CCSD(T)        HF       INT
 CPU TIMES  *       107.58     73.47     15.77     18.24
 REAL TIME  *       121.02 SEC
 DISK USED  *         3.13 GB      
 **********************************************************************************************************************************

 CCSD(T)/aug-cc-pVQZ energy=   -130.342481393444

        CCSD(T)         HF-SCF  
   -130.34248139   -129.84862772
 **********************************************************************************************************************************
 Molpro calculation terminated
 Variable memory released
