
 Primary working directories    : /tmp/r2666/234826.maple
 Secondary working directories  : /tmp/r2666/234826.maple
 Wavefunction directory         : /ddn/home4/r2666/wfu/
 Main file repository           : /tmp/r2666/234826.maple/

 SHA1      : d5ffa45e93fdbca01ffc919aa182cfdae0147319
 NAME      : 2015.1.35
 ARCHNAME  : linux/x86_64
 FC        : /opt/intel/composer_xe_2015.1.133/bin/intel64/ifort
 BLASLIB   : -Wl,-_start-group /opt/intel/mkl/lib/intel64/libmkl_intel_ilp64.a /opt/intel/mkl/lib/intel64/libmkl_intel_thread.a /opt/intel/mkl/lib/intel64/libmkl_core.a -Wl,-_end-group
 id        : olemiss

 Nodes     nprocs
 cn027        1

 Using customized tuning parameters: mindgm=1; mindgv=20; mindgc=4; mindgr=1; noblas=0; minvec=7
 default implementation of scratch files=df  

 ***,hno CCSD(T)/TZ-F12 QFF
 memory, 995, m;
 gthresh,energy=1.d-12,zero=1.d-22,oneint=1.d-22,twoint=1.d-22;
 gthresh,optgrad=1.d-8,optstep=1.d-8;
 nocompress;
 geomtyp=xyz
 bohr
 geometry={
 3
         69        69
 N        0.0000000000       -0.1726111757       -1.1705125915
 H        0.0000000000        1.6688580597       -1.9197515882
 O        0.0000000000        0.0455209060        1.1396745887
 }
 
 basis=avqz
   {hf,maxit=500;accu,20;}
 {ccsd(t),nocheck,maxit=250;orbital,IGNORE_ERROR;}

 Variables initialized (889), CPU time= 0.01 sec
 Commands  initialized (702), CPU time= 0.01 sec, 572 directives.
 Default parameters read. Elapsed time= 0.07 sec

 Checking input...
 Passed
1


                                         ***  PROGRAM SYSTEM MOLPRO  ***
                                       Copyright, TTI GmbH Stuttgart, 2015
                                    Version 2015.1 linked Jul  9 2018 13:16:40


 **********************************************************************************************************************************
 LABEL *   hno CCSD(T)/TZ-F12 QFF                                                        
  64 bit serial version                                                                  DATE: 08-Feb-20          TIME: 17:53:35  
 **********************************************************************************************************************************

 SHA1:             d5ffa45e93fdbca01ffc919aa182cfdae0147319
 **********************************************************************************************************************************

 THRESHOLDS:

 ZERO    =  1.00D-22  ONEINT  =  1.00D-22  TWOINT  =  1.00D-22  PREFAC  =  1.00D-14  LOCALI  =  1.00D-09  EORDER  =  1.00D-04
 ENERGY  =  1.00D-12  ETEST   =  0.00D+00  EDENS   =  0.00D+00  THRDEDEF=  1.00D-06  GRADIENT=  1.00D-02  STEP    =  1.00D-03
 ORBITAL =  1.00D-05  CIVEC   =  1.00D-05  COEFF   =  1.00D-04  PRINTCI =  5.00D-02  PUNCHCI =  9.90D+01  OPTGRAD =  3.00D-04
 OPTENERG=  1.00D-06  OPTSTEP =  3.00D-04  THRGRAD =  1.00D-10  COMPRESS=  1.00D-11  VARMIN  =  1.00D-07  VARMAX  =  1.00D-03
 THRDOUB =  0.00D+00  THRDIV  =  1.00D-05  THRRED  =  1.00D-07  THRPSP  =  1.00D+00  THRDC   =  1.00D-10  THRCS   =  1.00D-10
 THRNRM  =  1.00D-08  THREQ   =  0.00D+00  THRDE   =  1.00D+00  THRREF  =  1.00D-05  SPARFAC =  1.00D+00  THRDLP  =  1.00D-07
 THRDIA  =  1.00D-10  THRDLS  =  1.00D-07  THRGPS  =  0.00D+00  THRKEX  =  0.00D+00  THRDIS  =  2.00D-01  THRVAR  =  1.00D-10
 THRLOC  =  1.00D-06  THRGAP  =  1.00D-06  THRLOCT = -1.00D+00  THRGAPT = -1.00D+00  THRORB  =  1.00D-06  THRMLTP =  0.00D+00
 THRCPQCI=  1.00D-10  KEXTA   =  0.00D+00  THRCOARS=  0.00D+00  SYMTOL  =  1.00D-06  GRADTOL =  1.00D-06  THROVL  =  1.00D-08
 THRORTH =  1.00D-08  GRID    =  1.00D-06  GRIDMAX =  1.00D-03  DTMAX   =  0.00D+00  THROCCDE=  1.00D-01  THROCCDE=  1.00D-01



 THRESHOLDS:

 ZERO    =  1.00D-22  ONEINT  =  1.00D-22  TWOINT  =  1.00D-22  PREFAC  =  1.00D-14  LOCALI  =  1.00D-09  EORDER  =  1.00D-04
 ENERGY  =  1.00D-12  ETEST   =  0.00D+00  EDENS   =  0.00D+00  THRDEDEF=  1.00D-06  GRADIENT=  1.00D-02  STEP    =  1.00D-03
 ORBITAL =  1.00D-05  CIVEC   =  1.00D-05  COEFF   =  1.00D-04  PRINTCI =  5.00D-02  PUNCHCI =  9.90D+01  OPTGRAD =  1.00D-08
 OPTENERG=  1.00D-06  OPTSTEP =  1.00D-08  THRGRAD =  1.00D-10  COMPRESS=  1.00D-11  VARMIN  =  1.00D-07  VARMAX  =  1.00D-03
 THRDOUB =  0.00D+00  THRDIV  =  1.00D-05  THRRED  =  1.00D-07  THRPSP  =  1.00D+00  THRDC   =  1.00D-10  THRCS   =  1.00D-10
 THRNRM  =  1.00D-08  THREQ   =  0.00D+00  THRDE   =  1.00D+00  THRREF  =  1.00D-05  SPARFAC =  1.00D+00  THRDLP  =  1.00D-07
 THRDIA  =  1.00D-10  THRDLS  =  1.00D-07  THRGPS  =  0.00D+00  THRKEX  =  0.00D+00  THRDIS  =  2.00D-01  THRVAR  =  1.00D-10
 THRLOC  =  1.00D-06  THRGAP  =  1.00D-06  THRLOCT = -1.00D+00  THRGAPT = -1.00D+00  THRORB  =  1.00D-06  THRMLTP =  0.00D+00
 THRCPQCI=  1.00D-10  KEXTA   =  0.00D+00  THRCOARS=  0.00D+00  SYMTOL  =  1.00D-06  GRADTOL =  1.00D-06  THROVL  =  1.00D-08
 THRORTH =  1.00D-08  GRID    =  1.00D-06  GRIDMAX =  1.00D-03  DTMAX   =  0.00D+00  THROCCDE=  1.00D-01  THROCCDE=  1.00D-01



 Input parameters for SORTINT:

 COMPRESS =    0.000000
 C_FINAL  =    1.000000
 DEBUG    =   -1.000000
 C_SORT1  =    0.000000
 C_SEWARD =    0.000000
 THRESH   =    0.000000
 IO       =  molpro                                                          
 SPRI     =    0.000000
 SETTING GEOMTYP        =    XYZ
 ZUNIT=BOHR
 

 Variable memory set to  995000000 words,  buffer space   230000 words

 SETTING BASIS          =    AVQZ


 Recomputing integrals since basis changed


 Using spherical harmonics

 Library entry N      S aug-cc-pVQZ          selected for orbital group  1
 Library entry N      P aug-cc-pVQZ          selected for orbital group  1
 Library entry N      D aug-cc-pVQZ          selected for orbital group  1
 Library entry N      F aug-cc-pVQZ          selected for orbital group  1
 Library entry N      G aug-cc-pVQZ          selected for orbital group  1
 Library entry H      S aug-cc-pVQZ          selected for orbital group  2
 Library entry H      P aug-cc-pVQZ          selected for orbital group  2
 Library entry H      D aug-cc-pVQZ          selected for orbital group  2
 Library entry H      F aug-cc-pVQZ          selected for orbital group  2
 Library entry O      S aug-cc-pVQZ          selected for orbital group  3
 Library entry O      P aug-cc-pVQZ          selected for orbital group  3
 Library entry O      D aug-cc-pVQZ          selected for orbital group  3
 Library entry O      F aug-cc-pVQZ          selected for orbital group  3
 Library entry O      G aug-cc-pVQZ          selected for orbital group  3


 PROGRAM * SEWARD (Integral evaluation for generally contracted gaussian basis sets)     Author: Roland Lindh, 1990

 Geometry written to block  1 of record 700


 Point group  Cs  



 ATOMIC COORDINATES

 NR  ATOM    CHARGE       X              Y              Z

   1  N       7.00    0.000000000   -0.172611176   -1.170512592
   2  H       1.00    0.000000000    1.668858060   -1.919751588
   3  O       8.00    0.000000000    0.045520906    1.139674589

 Bond lengths in Bohr (Angstrom)

 1-2  1.988056342  1-3  2.320462543
     ( 1.052034110)     ( 1.227935896)

 Bond angles

  2-1-3  106.74596399

 NUCLEAR CHARGE:                   16
 NUMBER OF PRIMITIVE AOS:         293
 NUMBER OF SYMMETRY AOS:          234
 NUMBER OF CONTRACTIONS:          206   ( 130A'  +  76A"  )
 NUMBER OF CORE ORBITALS:           2   (   2A'  +   0A"  )
 NUMBER OF VALENCE ORBITALS:        9   (   7A'  +   2A"  )


 NUCLEAR REPULSION ENERGY   29.96399885

 Eigenvalues of metric

         1 0.612E-04 0.151E-03 0.325E-03 0.440E-03 0.627E-03 0.697E-03 0.103E-02 0.111E-02
         2 0.877E-03 0.164E-02 0.521E-02 0.902E-02 0.102E-01 0.127E-01 0.132E-01 0.195E-01


 Contracted 2-electron integrals neglected if value below      1.0D-22

      109944319. INTEGRALS WRITTEN OUT IN   26849 BLOCKS ON RECORD 1290 OF FILE 1


 NUMBER OF SORTED TWO-ELECTRON INTEGRALS:  115283741.     BUFFER LENGTH:  32768
 NUMBER OF SEGMENTS:   8  SEGMENT LENGTH:   15998004      RECORD LENGTH: 524288

 Memory used in sort:      16.56 MW

 SORT1 READ   109944319. AND WROTE   110864466. INTEGRALS IN    322 RECORDS. CPU TIME:     2.66 SEC, REAL TIME:     3.47 SEC
 SORT2 READ   110864466. AND WROTE   115283741. INTEGRALS IN      8 RECORDS. CPU TIME:     1.48 SEC, REAL TIME:     2.03 SEC

 FILE SIZES:   FILE 1:  1780.6 MBYTE,  FILE 4:  1350.6 MBYTE,   TOTAL:   3131.2 MBYTE

 OPERATOR DM      FOR CENTER  0  COORDINATES:    0.000000    0.000000    0.000000


 **********************************************************************************************************************************
 DATASETS  * FILE   NREC   LENGTH (MB)   RECORD NAMES
              1      19      944.13       500      610      700      900      950      970     1000      129      960     1100   
                                          VAR    BASINP    GEOM    SYMINP    ZMAT    AOBASIS   BASIS     P2S    ABASIS      S 
                                         1400     1410     1200     1210     1080     1600     1650     1300     1700   
                                           T        V       H0       H01     AOSYM     SMH    MOLCAS    ERIS     OPER   

 PROGRAMS   *        TOTAL       INT
 CPU TIMES  *        14.50     14.37
 REAL TIME  *        17.32 SEC
 DISK USED  *         3.13 GB      
 **********************************************************************************************************************************


 PROGRAM * RHF-SCF (CLOSED SHELL)       Authors: W. Meyer, H.-J. Werner


 NUMBER OF ELECTRONS:       8+    8-
 CONVERGENCE THRESHOLDS:    1.00E-10 (Density)    1.00E-13 (Energy)
 MAX. NUMBER OF ITERATIONS:      500
 INTERPOLATION TYPE:            DIIS
 INTERPOLATION STEPS:              2 (START)      1 (STEP)
 LEVEL SHIFTS:                  0.00 (CLOSED)  0.00 (OPEN) 



 Orbital guess generated from atomic densities. Full valence occupancy:    9   2

 Molecular orbital dump at record        2100.2

 Initial occupancy:   7   1

 ITERATION    DDIFF          GRAD             ENERGY        2-EL.EN.            DIPOLE MOMENTS         DIIS   ORB.
    1      0.000D+00      0.000D+00      -129.79015953    153.242897    0.00000    0.58978   -1.08831    0    start
    2      0.000D+00      0.831D-02      -129.81664030    154.424400    0.00000    0.62385   -0.18962    1    diag
    3      0.684D-02      0.664D-02      -129.84328685    154.595687    0.00000    0.55965   -0.61740    2    diag
    4      0.354D-02      0.991D-03      -129.84413134    154.295661    0.00000    0.56729   -0.55312    3    diag
    5      0.620D-03      0.326D-03      -129.84426650    154.390735    0.00000    0.57248   -0.55523    4    diag
    6      0.262D-03      0.945D-04      -129.84428827    154.374237    0.00000    0.57264   -0.55066    5    diag
    7      0.100D-03      0.480D-04      -129.84429495    154.376816    0.00000    0.57382   -0.54774    6    diag
    8      0.703D-04      0.178D-04      -129.84429584    154.376029    0.00000    0.57384   -0.54654    7    diag
    9      0.300D-04      0.348D-05      -129.84429588    154.375895    0.00000    0.57380   -0.54628    8    diag
   10      0.620D-05      0.752D-06      -129.84429588    154.375877    0.00000    0.57377   -0.54625    9    orth
   11      0.108D-05      0.148D-06      -129.84429588    154.375874    0.00000    0.57376   -0.54625    9    diag
   12      0.188D-06      0.318D-07      -129.84429588    154.375874    0.00000    0.57376   -0.54625    9    diag
   13      0.415D-07      0.868D-08      -129.84429588    154.375874    0.00000    0.57376   -0.54625    9    diag
   14      0.122D-07      0.170D-08      -129.84429588    154.375874    0.00000    0.57376   -0.54625    9    diag
   15      0.216D-08      0.483D-09      -129.84429588    154.375874    0.00000    0.57376   -0.54625    9    diag
   16      0.668D-09      0.141D-09      -129.84429588    154.375874    0.00000    0.57376   -0.54625    9    diag
   17      0.119D-09      0.367D-10      -129.84429588    154.375874    0.00000    0.57376   -0.54625    9    diag
   18      0.337D-10      0.124D-10      -129.84429588    154.375874    0.00000    0.57376   -0.54625    9    diag
   19      0.161D-10      0.301D-11      -129.84429588    154.375874    0.00000    0.57376   -0.54625    9    fixocc
   20      0.567D-11      0.532D-12      -129.84429588    154.375874    0.00000    0.57376   -0.54625    9    orth
   21      0.278D-11      0.202D-12      -129.84429588    154.375874    0.00000    0.57376   -0.54625    9    diag
   22      0.134D-11      0.152D-12      -129.84429588    154.375874    0.00000    0.57376   -0.54625    9    diag
   23      0.155D-11      0.139D-12      -129.84429588    154.375874    0.00000    0.57376   -0.54625    9    diag
   24      0.125D-11      0.843D-13      -129.84429588    154.375874    0.00000    0.57376   -0.54625    9    diag
   25      0.601D-12      0.117D-12      -129.84429588    154.375874    0.00000    0.57376   -0.54625    9    diag
   26      0.197D-12      0.968D-13      -129.84429588    154.375874    0.00000    0.57376   -0.54625    0    orth

 Final occupancy:   7   1

 !RHF STATE 1.1 Energy               -129.844295880912
 Nuclear energy                        29.96399885
 One-electron energy                 -236.99623162
 Two-electron energy                   77.18793689
 Virial quotient                       -1.00227405
 !RHF STATE 1.1 Dipole moment           0.00000000     0.57376220    -0.54625091
 Dipole moment /Debye                   0.00000000     1.45826254    -1.38834039

 Orbital energies:

         1.1          2.1          3.1          4.1          5.1          6.1          7.1          8.1          9.1
    -20.655227   -15.716343    -1.514335    -0.998316    -0.741271    -0.660219    -0.437475     0.026223     0.079446

         1.2          2.2          3.2
     -0.586993     0.058322     0.109716

 HOMO      7.1    -0.437475 =     -11.9043eV
 LUMO      8.1     0.026223 =       0.7136eV
 LUMO-HOMO         0.463698 =      12.6179eV


 **********************************************************************************************************************************
 DATASETS  * FILE   NREC   LENGTH (MB)   RECORD NAMES
              1      19      944.13       500      610      700      900      950      970     1000      129      960     1100   
                                          VAR    BASINP    GEOM    SYMINP    ZMAT    AOBASIS   BASIS     P2S    ABASIS      S 
                                         1400     1410     1200     1210     1080     1600     1650     1300     1700   
                                           T        V       H0       H01     AOSYM     SMH    MOLCAS    ERIS     OPER   

              2       4        3.27       700     1000      520     2100   
                                         GEOM     BASIS   MCVARS     RHF  

 PROGRAMS   *        TOTAL        HF       INT
 CPU TIMES  *        30.64     16.14     14.37
 REAL TIME  *        36.78 SEC
 DISK USED  *         3.13 GB      
 **********************************************************************************************************************************


 PROGRAM * CCSD (Closed-shell coupled cluster)     Authors: C. Hampel, H.-J. Werner, 1991, M. Deegan, P.J. Knowles, 1992


 Convergence thresholds:  THRVAR = 1.00D-08  THRDEN = 1.00D-12

 CCSD(T)     terms to be evaluated (factor= 1.000)


 Number of core orbitals:           2 (   2   0 )
 Number of closed-shell orbitals:   6 (   5   1 )
 Number of external orbitals:     198 ( 123  75 )

 Molecular orbitals read from record     2100.2  Type=RHF/CANONICAL (state 1.1)

 Number of N-1 electron functions:               6
 Number of N-2 electron functions:              21
 Number of singly external CSFs:               690
 Number of doubly external CSFs:            362646
 Total number of CSFs:                      363337

 Length of J-op  integral file:               0.00 MB
 Length of K-op  integral file:               1.60 MB
 Length of 3-ext integral record:             0.00 MB

 Memory could be reduced to 34.67 Mwords without degradation in triples

 Integral transformation finished. Total CPU:   2.00 sec, npass=  1  Memory used:   9.53 MW

 Reference energy:                   -129.84429588

 MP2 singlet pair energy:              -0.30369496
 MP2 triplet pair energy:              -0.17183736
 MP2 correlation energy:               -0.47553232
 MP2 total energy:                   -130.31982820

 SCS-MP2 correlation energy:           -0.47135498   (PS=  1.200000  PT=  0.333333)
 SCS-MP2 total energy:               -130.31565086

 ITER.      SQ.NORM     CORR.ENERGY   TOTAL ENERGY   ENERGY CHANGE        DEN1      VAR(S)    VAR(P)  DIIS     TIME  TIME/IT
   1      1.12316543    -0.47474230  -130.31903819     0.00079002     0.01807913  0.34D-02  0.34D-02  1  1     3.79     1.89
   2      1.13436350    -0.47452549  -130.31882137     0.00021681    -0.01301857  0.12D-03  0.52D-03  2  2     5.64     1.93
   3      1.14106137    -0.47493217  -130.31922805    -0.00040668    -0.00317128  0.54D-04  0.58D-04  3  3     7.48     1.94
   4      1.14404518    -0.47494071  -130.31923659    -0.00000854    -0.00099694  0.50D-05  0.10D-04  4  4     9.31     1.95
   5      1.14526649    -0.47497418  -130.31927006    -0.00003347    -0.00026520  0.12D-05  0.17D-05  5  5    11.15     1.95
   6      1.14565112    -0.47495693  -130.31925281     0.00001725    -0.00005614  0.12D-06  0.39D-06  6  6    12.96     1.95
   7      1.14572289    -0.47495765  -130.31925353    -0.00000072     0.00000362  0.16D-07  0.90D-07  6  1    14.76     1.95
   8      1.14574579    -0.47495772  -130.31925360    -0.00000007    -0.00000125  0.30D-08  0.19D-07  6  2    16.58     1.96
   9      1.14575047    -0.47495729  -130.31925317     0.00000043     0.00000113  0.26D-08  0.24D-08  6  4    18.44     1.96
  10      1.14575312    -0.47495767  -130.31925355    -0.00000037    -0.00000081  0.51D-09  0.30D-09  6  3    20.29     1.96
  11      1.14575296    -0.47495773  -130.31925361    -0.00000006    -0.00000017  0.17D-09  0.41D-10  6  5    22.10     1.96
  12      1.14575198    -0.47495788  -130.31925376    -0.00000016     0.00000037  0.20D-10  0.12D-10  6  6    23.93     1.96
  13      1.14575106    -0.47495793  -130.31925381    -0.00000004     0.00000023  0.63D-11  0.27D-11  6  1    25.80     1.96
  14      1.14575032    -0.47495796  -130.31925384    -0.00000004     0.00000017  0.34D-12  0.60D-12  6  4    27.64     1.96
  15      1.14575008    -0.47495797  -130.31925385    -0.00000001     0.00000004  0.80D-13  0.47D-13  6  2    29.47     1.96
  16      1.14575002    -0.47495797  -130.31925385    -0.00000000     0.00000001  0.21D-13  0.83D-14  6  3    31.32     1.96
  17      1.14574999    -0.47495797  -130.31925386    -0.00000000     0.00000001  0.40D-14  0.10D-14  6  5    33.11     1.96
  18      1.14574999    -0.47495797  -130.31925386    -0.00000000     0.00000000  0.89D-15  0.26D-15  6  6    34.93     1.96
  19      1.14574999    -0.47495797  -130.31925386    -0.00000000     0.00000000  0.13D-15  0.52D-16  6  1    36.75     1.96
  20      1.14574999    -0.47495797  -130.31925386     0.00000000    -0.00000000  0.11D-16  0.78D-17  6  4    38.60     1.96
  21      1.14574999    -0.47495797  -130.31925386     0.00000000    -0.00000000  0.56D-18  0.56D-18  6  3    40.45     1.96
  22      1.14574999    -0.47495797  -130.31925386     0.00000000    -0.00000000  0.13D-18  0.66D-19  6  2    42.27     1.96
  23      1.14574999    -0.47495797  -130.31925386     0.00000000     0.00000000  0.42D-19  0.22D-19  6  5    44.09     1.96
  24      1.14574999    -0.47495797  -130.31925386     0.00000000     0.00000000  0.44D-20  0.49D-20  6  1    45.92     1.96

 Norm of t1 vector:      0.07982496      S-energy:    -0.00000000      T1 diagnostic:  0.01629420
                                                                       D1 diagnostic:  0.04474376

 Doubles amplitudes (print threshold =  0.500E-01):

         I         J         SYM. A    SYM. B    A         B      T(IJ, AB)

         6         6         2         2         1         1     -0.10905331


 Total CPU time for triples:     22.28 sec


 RESULTS
 =======

  Reference energy                   -129.844295880912
  CCSD singlet pair energy             -0.328749133439
  CCSD triplet pair energy             -0.146208840735
  CCSD correlation energy              -0.474957974175

  Triples (T) contribution             -0.022995539890
  Total correlation energy             -0.497953514065

  CCSD total energy                  -130.319253855088
  CCSD[T] energy                     -130.343407724380
  CCSD-T energy                      -130.341844508519
 !CCSD(T) total energy               -130.342249394978

 Timing summary (sec):

 STEP                 CPU(USER)    SYS     CPU(TOT)    WALL
 Transformation          2.02      0.23      2.25      2.56
 CCSD iterations        43.91      3.23     47.14     47.13
 Triples                22.28      0.42     22.70     22.70

 Program statistics:

 Available memory in ccsd:               994999756
 Min. memory needed in ccsd:               1265322
 Max. memory used in ccsd:                 1555950
 Max. memory used in cckext:               2415326 (24 integral passes)



 **********************************************************************************************************************************
 DATASETS  * FILE   NREC   LENGTH (MB)   RECORD NAMES
              1      20     1044.68       500      610      700      900      950      970     1000      129      960     1100   
                                          VAR    BASINP    GEOM    SYMINP    ZMAT    AOBASIS   BASIS     P2S    ABASIS      S 
                                         1400     1410     1200     1210     1080     1600     1650     1300     1700     1380   
                                           T        V       H0       H01     AOSYM     SMH    MOLCAS    ERIS     OPER     JKOP   

              2       4        3.27       700     1000      520     2100   
                                         GEOM     BASIS   MCVARS     RHF  

 PROGRAMS   *        TOTAL   CCSD(T)        HF       INT
 CPU TIMES  *        98.87     68.23     16.14     14.37
 REAL TIME  *       109.23 SEC
 DISK USED  *         3.13 GB      
 **********************************************************************************************************************************

 CCSD(T)/aug-cc-pVQZ energy=   -130.342249394978

        CCSD(T)         HF-SCF  
   -130.34224939   -129.84429588
 **********************************************************************************************************************************
 Molpro calculation terminated
 Variable memory released
