
 Primary working directories    : /tmp/r2666/234787.maple
 Secondary working directories  : /tmp/r2666/234787.maple
 Wavefunction directory         : /ddn/home4/r2666/wfu/
 Main file repository           : /tmp/r2666/234787.maple/

 SHA1      : d5ffa45e93fdbca01ffc919aa182cfdae0147319
 NAME      : 2015.1.35
 ARCHNAME  : linux/x86_64
 FC        : /opt/intel/composer_xe_2015.1.133/bin/intel64/ifort
 BLASLIB   : -Wl,-_start-group /opt/intel/mkl/lib/intel64/libmkl_intel_ilp64.a /opt/intel/mkl/lib/intel64/libmkl_intel_thread.a /opt/intel/mkl/lib/intel64/libmkl_core.a -Wl,-_end-group
 id        : olemiss

 Nodes     nprocs
 cn089        1

 Using customized tuning parameters: mindgm=1; mindgv=20; mindgc=4; mindgr=1; noblas=0; minvec=7
 default implementation of scratch files=df  

 ***,hno CCSD(T)/TZ-F12 QFF
 memory, 995, m;
 gthresh,energy=1.d-12,zero=1.d-22,oneint=1.d-22,twoint=1.d-22;
 gthresh,optgrad=1.d-8,optstep=1.d-8;
 nocompress;
 geomtyp=xyz
 bohr
 geometry={
 3
         30        30
 N        0.0000000000       -0.1470778689       -1.1325740764
 H        0.0000000000        1.6610286493       -1.9360909072
 O        0.0000000000        0.0278170095        1.1180753925
 }
 
 basis=avqz
   {hf,maxit=500;accu,20;}
 {ccsd(t),nocheck,maxit=250;orbital,IGNORE_ERROR;}

 Variables initialized (889), CPU time= 0.01 sec
 Commands  initialized (702), CPU time= 0.01 sec, 572 directives.
 Default parameters read. Elapsed time= 0.06 sec

 Checking input...
 Passed
1


                                         ***  PROGRAM SYSTEM MOLPRO  ***
                                       Copyright, TTI GmbH Stuttgart, 2015
                                    Version 2015.1 linked Jul  9 2018 13:16:40


 **********************************************************************************************************************************
 LABEL *   hno CCSD(T)/TZ-F12 QFF                                                        
  64 bit serial version                                                                  DATE: 08-Feb-20          TIME: 17:51:04  
 **********************************************************************************************************************************

 SHA1:             d5ffa45e93fdbca01ffc919aa182cfdae0147319
 **********************************************************************************************************************************

 THRESHOLDS:

 ZERO    =  1.00D-22  ONEINT  =  1.00D-22  TWOINT  =  1.00D-22  PREFAC  =  1.00D-14  LOCALI  =  1.00D-09  EORDER  =  1.00D-04
 ENERGY  =  1.00D-12  ETEST   =  0.00D+00  EDENS   =  0.00D+00  THRDEDEF=  1.00D-06  GRADIENT=  1.00D-02  STEP    =  1.00D-03
 ORBITAL =  1.00D-05  CIVEC   =  1.00D-05  COEFF   =  1.00D-04  PRINTCI =  5.00D-02  PUNCHCI =  9.90D+01  OPTGRAD =  3.00D-04
 OPTENERG=  1.00D-06  OPTSTEP =  3.00D-04  THRGRAD =  1.00D-10  COMPRESS=  1.00D-11  VARMIN  =  1.00D-07  VARMAX  =  1.00D-03
 THRDOUB =  0.00D+00  THRDIV  =  1.00D-05  THRRED  =  1.00D-07  THRPSP  =  1.00D+00  THRDC   =  1.00D-10  THRCS   =  1.00D-10
 THRNRM  =  1.00D-08  THREQ   =  0.00D+00  THRDE   =  1.00D+00  THRREF  =  1.00D-05  SPARFAC =  1.00D+00  THRDLP  =  1.00D-07
 THRDIA  =  1.00D-10  THRDLS  =  1.00D-07  THRGPS  =  0.00D+00  THRKEX  =  0.00D+00  THRDIS  =  2.00D-01  THRVAR  =  1.00D-10
 THRLOC  =  1.00D-06  THRGAP  =  1.00D-06  THRLOCT = -1.00D+00  THRGAPT = -1.00D+00  THRORB  =  1.00D-06  THRMLTP =  0.00D+00
 THRCPQCI=  1.00D-10  KEXTA   =  0.00D+00  THRCOARS=  0.00D+00  SYMTOL  =  1.00D-06  GRADTOL =  1.00D-06  THROVL  =  1.00D-08
 THRORTH =  1.00D-08  GRID    =  1.00D-06  GRIDMAX =  1.00D-03  DTMAX   =  0.00D+00  THROCCDE=  1.00D-01  THROCCDE=  1.00D-01



 THRESHOLDS:

 ZERO    =  1.00D-22  ONEINT  =  1.00D-22  TWOINT  =  1.00D-22  PREFAC  =  1.00D-14  LOCALI  =  1.00D-09  EORDER  =  1.00D-04
 ENERGY  =  1.00D-12  ETEST   =  0.00D+00  EDENS   =  0.00D+00  THRDEDEF=  1.00D-06  GRADIENT=  1.00D-02  STEP    =  1.00D-03
 ORBITAL =  1.00D-05  CIVEC   =  1.00D-05  COEFF   =  1.00D-04  PRINTCI =  5.00D-02  PUNCHCI =  9.90D+01  OPTGRAD =  1.00D-08
 OPTENERG=  1.00D-06  OPTSTEP =  1.00D-08  THRGRAD =  1.00D-10  COMPRESS=  1.00D-11  VARMIN  =  1.00D-07  VARMAX  =  1.00D-03
 THRDOUB =  0.00D+00  THRDIV  =  1.00D-05  THRRED  =  1.00D-07  THRPSP  =  1.00D+00  THRDC   =  1.00D-10  THRCS   =  1.00D-10
 THRNRM  =  1.00D-08  THREQ   =  0.00D+00  THRDE   =  1.00D+00  THRREF  =  1.00D-05  SPARFAC =  1.00D+00  THRDLP  =  1.00D-07
 THRDIA  =  1.00D-10  THRDLS  =  1.00D-07  THRGPS  =  0.00D+00  THRKEX  =  0.00D+00  THRDIS  =  2.00D-01  THRVAR  =  1.00D-10
 THRLOC  =  1.00D-06  THRGAP  =  1.00D-06  THRLOCT = -1.00D+00  THRGAPT = -1.00D+00  THRORB  =  1.00D-06  THRMLTP =  0.00D+00
 THRCPQCI=  1.00D-10  KEXTA   =  0.00D+00  THRCOARS=  0.00D+00  SYMTOL  =  1.00D-06  GRADTOL =  1.00D-06  THROVL  =  1.00D-08
 THRORTH =  1.00D-08  GRID    =  1.00D-06  GRIDMAX =  1.00D-03  DTMAX   =  0.00D+00  THROCCDE=  1.00D-01  THROCCDE=  1.00D-01



 Input parameters for SORTINT:

 COMPRESS =    0.000000
 C_FINAL  =    1.000000
 DEBUG    =   -1.000000
 C_SORT1  =    0.000000
 C_SEWARD =    0.000000
 THRESH   =    0.000000
 IO       =  molpro                                                          
 SPRI     =    0.000000
 SETTING GEOMTYP        =    XYZ
 ZUNIT=BOHR
 

 Variable memory set to  995000000 words,  buffer space   230000 words

 SETTING BASIS          =    AVQZ


 Recomputing integrals since basis changed


 Using spherical harmonics

 Library entry N      S aug-cc-pVQZ          selected for orbital group  1
 Library entry N      P aug-cc-pVQZ          selected for orbital group  1
 Library entry N      D aug-cc-pVQZ          selected for orbital group  1
 Library entry N      F aug-cc-pVQZ          selected for orbital group  1
 Library entry N      G aug-cc-pVQZ          selected for orbital group  1
 Library entry H      S aug-cc-pVQZ          selected for orbital group  2
 Library entry H      P aug-cc-pVQZ          selected for orbital group  2
 Library entry H      D aug-cc-pVQZ          selected for orbital group  2
 Library entry H      F aug-cc-pVQZ          selected for orbital group  2
 Library entry O      S aug-cc-pVQZ          selected for orbital group  3
 Library entry O      P aug-cc-pVQZ          selected for orbital group  3
 Library entry O      D aug-cc-pVQZ          selected for orbital group  3
 Library entry O      F aug-cc-pVQZ          selected for orbital group  3
 Library entry O      G aug-cc-pVQZ          selected for orbital group  3


 PROGRAM * SEWARD (Integral evaluation for generally contracted gaussian basis sets)     Author: Roland Lindh, 1990

 Geometry written to block  1 of record 700


 Point group  Cs  



 ATOMIC COORDINATES

 NR  ATOM    CHARGE       X              Y              Z

   1  N       7.00    0.000000000   -0.147077869   -1.132574076
   2  H       1.00    0.000000000    1.661028649   -1.936090907
   3  O       8.00    0.000000000    0.027817009    1.118075392

 Bond lengths in Bohr (Angstrom)

 1-2  1.978607712  1-3  2.257434661
     ( 1.047034111)     ( 1.194582978)

 Bond angles

  2-1-3  109.51676495

 NUCLEAR CHARGE:                   16
 NUMBER OF PRIMITIVE AOS:         293
 NUMBER OF SYMMETRY AOS:          234
 NUMBER OF CONTRACTIONS:          206   ( 130A'  +  76A"  )
 NUMBER OF CORE ORBITALS:           2   (   2A'  +   0A"  )
 NUMBER OF VALENCE ORBITALS:        9   (   7A'  +   2A"  )


 NUCLEAR REPULSION ENERGY   30.65461310

 Eigenvalues of metric

         1 0.577E-04 0.140E-03 0.312E-03 0.431E-03 0.560E-03 0.663E-03 0.982E-03 0.106E-02
         2 0.786E-03 0.159E-02 0.473E-02 0.886E-02 0.998E-02 0.117E-01 0.122E-01 0.180E-01


 Contracted 2-electron integrals neglected if value below      1.0D-22

      109945065. INTEGRALS WRITTEN OUT IN   26849 BLOCKS ON RECORD 1290 OF FILE 1


 NUMBER OF SORTED TWO-ELECTRON INTEGRALS:  115283741.     BUFFER LENGTH:  32768
 NUMBER OF SEGMENTS:   8  SEGMENT LENGTH:   15998004      RECORD LENGTH: 524288

 Memory used in sort:      16.56 MW

 SORT1 READ   109945065. AND WROTE   110865232. INTEGRALS IN    322 RECORDS. CPU TIME:     1.80 SEC, REAL TIME:     2.66 SEC
 SORT2 READ   110865232. AND WROTE   115283741. INTEGRALS IN      8 RECORDS. CPU TIME:     1.31 SEC, REAL TIME:     1.78 SEC

 FILE SIZES:   FILE 1:  1780.6 MBYTE,  FILE 4:  1350.6 MBYTE,   TOTAL:   3131.2 MBYTE

 OPERATOR DM      FOR CENTER  0  COORDINATES:    0.000000    0.000000    0.000000


 **********************************************************************************************************************************
 DATASETS  * FILE   NREC   LENGTH (MB)   RECORD NAMES
              1      19      944.14       500      610      700      900      950      970     1000      129      960     1100   
                                          VAR    BASINP    GEOM    SYMINP    ZMAT    AOBASIS   BASIS     P2S    ABASIS      S 
                                         1400     1410     1200     1210     1080     1600     1650     1300     1700   
                                           T        V       H0       H01     AOSYM     SMH    MOLCAS    ERIS     OPER   

 PROGRAMS   *        TOTAL       INT
 CPU TIMES  *        10.88     10.78
 REAL TIME  *        13.75 SEC
 DISK USED  *         3.13 GB      
 **********************************************************************************************************************************


 PROGRAM * RHF-SCF (CLOSED SHELL)       Authors: W. Meyer, H.-J. Werner


 NUMBER OF ELECTRONS:       8+    8-
 CONVERGENCE THRESHOLDS:    1.00E-10 (Density)    1.00E-13 (Energy)
 MAX. NUMBER OF ITERATIONS:      500
 INTERPOLATION TYPE:            DIIS
 INTERPOLATION STEPS:              2 (START)      1 (STEP)
 LEVEL SHIFTS:                  0.00 (CLOSED)  0.00 (OPEN) 



 Orbital guess generated from atomic densities. Full valence occupancy:    9   2

 Molecular orbital dump at record        2100.2

 Initial occupancy:   7   1

 ITERATION    DDIFF          GRAD             ENERGY        2-EL.EN.            DIPOLE MOMENTS         DIIS   ORB.
    1      0.000D+00      0.000D+00      -129.80065197    154.471319    0.00000    0.60274   -0.98574    0    start
    2      0.000D+00      0.797D-02      -129.82824578    155.728508    0.00000    0.60173   -0.22055    1    diag
    3      0.633D-02      0.587D-02      -129.84871159    155.821593    0.00000    0.55703   -0.57916    2    diag
    4      0.319D-02      0.959D-03      -129.84948707    155.547075    0.00000    0.56413   -0.51980    3    diag
    5      0.597D-03      0.308D-03      -129.84960675    155.639426    0.00000    0.56949   -0.52273    4    diag
    6      0.245D-03      0.887D-04      -129.84962563    155.623529    0.00000    0.56988   -0.51882    5    diag
    7      0.932D-04      0.436D-04      -129.84963095    155.626380    0.00000    0.57114   -0.51642    6    diag
    8      0.636D-04      0.147D-04      -129.84963149    155.625744    0.00000    0.57119   -0.51550    7    diag
    9      0.230D-04      0.277D-05      -129.84963151    155.625639    0.00000    0.57116   -0.51530    8    diag
   10      0.446D-05      0.654D-06      -129.84963152    155.625621    0.00000    0.57112   -0.51527    9    orth
   11      0.947D-06      0.133D-06      -129.84963152    155.625618    0.00000    0.57112   -0.51526    9    diag
   12      0.181D-06      0.264D-07      -129.84963152    155.625617    0.00000    0.57111   -0.51526    9    diag
   13      0.384D-07      0.664D-08      -129.84963152    155.625617    0.00000    0.57111   -0.51526    9    diag
   14      0.100D-07      0.133D-08      -129.84963152    155.625617    0.00000    0.57111   -0.51526    9    diag
   15      0.191D-08      0.391D-09      -129.84963152    155.625617    0.00000    0.57111   -0.51526    9    diag
   16      0.564D-09      0.122D-09      -129.84963152    155.625617    0.00000    0.57111   -0.51526    9    diag
   17      0.113D-09      0.329D-10      -129.84963152    155.625617    0.00000    0.57111   -0.51526    9    diag
   18      0.327D-10      0.111D-10      -129.84963152    155.625617    0.00000    0.57111   -0.51526    9    diag
   19      0.149D-10      0.277D-11      -129.84963152    155.625617    0.00000    0.57111   -0.51526    9    fixocc
   20      0.554D-11      0.491D-12      -129.84963152    155.625617    0.00000    0.57111   -0.51526    9    orth
   21      0.444D-11      0.238D-12      -129.84963152    155.625617    0.00000    0.57111   -0.51526    9    diag
   22      0.215D-11      0.156D-12      -129.84963152    155.625617    0.00000    0.57111   -0.51526    9    diag
   23      0.178D-11      0.160D-12      -129.84963152    155.625617    0.00000    0.57111   -0.51526    9    diag
   24      0.129D-11      0.114D-12      -129.84963152    155.625617    0.00000    0.57111   -0.51526    9    diag
   25      0.164D-11      0.153D-12      -129.84963152    155.625617    0.00000    0.57111   -0.51526    9    diag
   26      0.102D-11      0.146D-12      -129.84963152    155.625617    0.00000    0.57111   -0.51526    9    diag
   27      0.104D-11      0.141D-12      -129.84963152    155.625617    0.00000    0.57111   -0.51526    9    diag
   28      0.123D-12      0.111D-12      -129.84963152    155.625617    0.00000    0.57111   -0.51526    9    diag
   29      0.351D-12      0.133D-12      -129.84963152    155.625617    0.00000    0.57111   -0.51526    9    diag
   30      0.128D-12      0.147D-12      -129.84963152    155.625617    0.00000    0.57111   -0.51526    0    orth

 Final occupancy:   7   1

 !RHF STATE 1.1 Energy               -129.849631515202
 Nuclear energy                        30.65461310
 One-electron energy                 -238.31705324
 Two-electron energy                   77.81280862
 Virial quotient                       -1.00131097
 !RHF STATE 1.1 Dipole moment           0.00000000     0.57111414    -0.51526221
 Dipole moment /Debye                   0.00000000     1.45153228    -1.30958012

 Orbital energies:

         1.1          2.1          3.1          4.1          5.1          6.1          7.1          8.1          9.1
    -20.652627   -15.709414    -1.540074    -0.993513    -0.751805    -0.670269    -0.425729     0.026431     0.079481

         1.2          2.2          3.2
     -0.602286     0.066406     0.110965

 HOMO      7.1    -0.425729 =     -11.5847eV
 LUMO      8.1     0.026431 =       0.7192eV
 LUMO-HOMO         0.452160 =      12.3039eV


 **********************************************************************************************************************************
 DATASETS  * FILE   NREC   LENGTH (MB)   RECORD NAMES
              1      19      944.14       500      610      700      900      950      970     1000      129      960     1100   
                                          VAR    BASINP    GEOM    SYMINP    ZMAT    AOBASIS   BASIS     P2S    ABASIS      S 
                                         1400     1410     1200     1210     1080     1600     1650     1300     1700   
                                           T        V       H0       H01     AOSYM     SMH    MOLCAS    ERIS     OPER   

              2       4        3.27       700     1000      520     2100   
                                         GEOM     BASIS   MCVARS     RHF  

 PROGRAMS   *        TOTAL        HF       INT
 CPU TIMES  *        25.71     14.83     10.78
 REAL TIME  *        32.07 SEC
 DISK USED  *         3.13 GB      
 **********************************************************************************************************************************


 PROGRAM * CCSD (Closed-shell coupled cluster)     Authors: C. Hampel, H.-J. Werner, 1991, M. Deegan, P.J. Knowles, 1992


 Convergence thresholds:  THRVAR = 1.00D-08  THRDEN = 1.00D-12

 CCSD(T)     terms to be evaluated (factor= 1.000)


 Number of core orbitals:           2 (   2   0 )
 Number of closed-shell orbitals:   6 (   5   1 )
 Number of external orbitals:     198 ( 123  75 )

 Molecular orbitals read from record     2100.2  Type=RHF/CANONICAL (state 1.1)

 Number of N-1 electron functions:               6
 Number of N-2 electron functions:              21
 Number of singly external CSFs:               690
 Number of doubly external CSFs:            362646
 Total number of CSFs:                      363337

 Length of J-op  integral file:               0.00 MB
 Length of K-op  integral file:               1.60 MB
 Length of 3-ext integral record:             0.00 MB

 Memory could be reduced to 34.67 Mwords without degradation in triples

 Integral transformation finished. Total CPU:   1.45 sec, npass=  1  Memory used:   9.53 MW

 Reference energy:                   -129.84963152

 MP2 singlet pair energy:              -0.30015280
 MP2 triplet pair energy:              -0.16947317
 MP2 correlation energy:               -0.46962596
 MP2 total energy:                   -130.31925748

 SCS-MP2 correlation energy:           -0.46563333   (PS=  1.200000  PT=  0.333333)
 SCS-MP2 total energy:               -130.31526484

 ITER.      SQ.NORM     CORR.ENERGY   TOTAL ENERGY   ENERGY CHANGE        DEN1      VAR(S)    VAR(P)  DIIS     TIME  TIME/IT
   1      1.11947723    -0.47018905  -130.31982056    -0.00056309     0.01527156  0.30D-02  0.30D-02  1  1     2.71     1.37
   2      1.12984284    -0.47025254  -130.31988406    -0.00006349    -0.01215409  0.97D-04  0.47D-03  2  2     3.96     1.40
   3      1.13588677    -0.47061069  -130.32024220    -0.00035814    -0.00295746  0.46D-04  0.50D-04  3  3     5.23     1.41
   4      1.13849891    -0.47061703  -130.32024855    -0.00000635    -0.00089661  0.40D-05  0.92D-05  4  4     6.53     1.42
   5      1.13952001    -0.47064412  -130.32027563    -0.00002708    -0.00022307  0.10D-05  0.17D-05  5  5     7.78     1.42
   6      1.13985801    -0.47063080  -130.32026231     0.00001332    -0.00004790  0.10D-06  0.41D-06  6  6     9.06     1.42
   7      1.13993252    -0.47063116  -130.32026268    -0.00000037     0.00000182  0.17D-07  0.89D-07  6  1    10.33     1.42
   8      1.13995509    -0.47063168  -130.32026319    -0.00000051    -0.00000104  0.38D-08  0.17D-07  6  2    11.61     1.42
   9      1.13996339    -0.47063119  -130.32026270     0.00000049    -0.00000043  0.22D-08  0.16D-08  6  3    12.87     1.42
  10      1.13995889    -0.47063192  -130.32026343    -0.00000073     0.00000148  0.31D-09  0.25D-09  6  5    14.15     1.42
  11      1.13996045    -0.47063188  -130.32026340     0.00000003    -0.00000027  0.89D-10  0.23D-10  6  4    15.46     1.42
  12      1.13996004    -0.47063195  -130.32026346    -0.00000006     0.00000003  0.17D-10  0.57D-11  6  6    16.72     1.43
  13      1.13995987    -0.47063195  -130.32026347    -0.00000000    -0.00000004  0.31D-11  0.80D-12  6  1    17.96     1.43
  14      1.13995961    -0.47063196  -130.32026348    -0.00000001     0.00000004  0.44D-12  0.15D-12  6  3    19.19     1.43
  15      1.13995953    -0.47063196  -130.32026348    -0.00000000     0.00000001  0.11D-12  0.20D-13  6  2    20.53     1.43
  16      1.13995952    -0.47063196  -130.32026348     0.00000000     0.00000000  0.28D-13  0.88D-14  6  4    21.81     1.43
  17      1.13995953    -0.47063196  -130.32026348    -0.00000000    -0.00000000  0.13D-14  0.99D-15  6  5    23.08     1.43
  18      1.13995953    -0.47063196  -130.32026348     0.00000000    -0.00000000  0.23D-15  0.23D-15  6  6    24.37     1.43
  19      1.13995954    -0.47063196  -130.32026348     0.00000000    -0.00000000  0.32D-16  0.29D-16  6  5    25.65     1.43
  20      1.13995954    -0.47063196  -130.32026348     0.00000000    -0.00000000  0.61D-17  0.37D-17  6  1    26.92     1.43
  21      1.13995954    -0.47063196  -130.32026348    -0.00000000     0.00000000  0.81D-18  0.53D-18  6  3    28.25     1.43
  22      1.13995954    -0.47063196  -130.32026348    -0.00000000     0.00000000  0.12D-18  0.57D-19  6  2    29.54     1.43
  23      1.13995954    -0.47063196  -130.32026348    -0.00000000     0.00000000  0.25D-19  0.12D-19  6  4    30.81     1.43
  24      1.13995954    -0.47063196  -130.32026348    -0.00000000     0.00000000  0.51D-20  0.13D-20  6  1    32.12     1.43
  25      1.13995954    -0.47063196  -130.32026348     0.00000000    -0.00000000  0.17D-20  0.47D-21  6  6    33.36     1.43

 Norm of t1 vector:      0.07476862      S-energy:    -0.00000000      T1 diagnostic:  0.01526208
                                                                       D1 diagnostic:  0.04054445

 Doubles amplitudes (print threshold =  0.500E-01):

         I         J         SYM. A    SYM. B    A         B      T(IJ, AB)

         6         6         2         2         1         1     -0.09115217


 Total CPU time for triples:     15.89 sec


 RESULTS
 =======

  Reference energy                   -129.849631515202
  CCSD singlet pair energy             -0.325009785367
  CCSD triplet pair energy             -0.145622177357
  CCSD correlation energy              -0.470631962725

  Triples (T) contribution             -0.021926146206
  Total correlation energy             -0.492558108930

  CCSD total energy                  -130.320263477927
  CCSD[T] energy                     -130.343208173856
  CCSD-T energy                      -130.341818450809
 !CCSD(T) total energy               -130.342189624133

 Timing summary (sec):

 STEP                 CPU(USER)    SYS     CPU(TOT)    WALL
 Transformation          1.46      0.32      1.78      1.92
 CCSD iterations        31.90      4.00     35.90     36.07
 Triples                15.89      0.43     16.32     16.32

 Program statistics:

 Available memory in ccsd:               994999756
 Min. memory needed in ccsd:               1265322
 Max. memory used in ccsd:                 1555950
 Max. memory used in cckext:               2415326 (25 integral passes)



 **********************************************************************************************************************************
 DATASETS  * FILE   NREC   LENGTH (MB)   RECORD NAMES
              1      20     1044.69       500      610      700      900      950      970     1000      129      960     1100   
                                          VAR    BASINP    GEOM    SYMINP    ZMAT    AOBASIS   BASIS     P2S    ABASIS      S 
                                         1400     1410     1200     1210     1080     1600     1650     1300     1700     1380   
                                           T        V       H0       H01     AOSYM     SMH    MOLCAS    ERIS     OPER     JKOP   

              2       4        3.27       700     1000      520     2100   
                                         GEOM     BASIS   MCVARS     RHF  

 PROGRAMS   *        TOTAL   CCSD(T)        HF       INT
 CPU TIMES  *        74.99     49.26     14.83     10.78
 REAL TIME  *        86.65 SEC
 DISK USED  *         3.13 GB      
 **********************************************************************************************************************************

 CCSD(T)/aug-cc-pVQZ energy=   -130.342189624133

        CCSD(T)         HF-SCF  
   -130.34218962   -129.84963152
 **********************************************************************************************************************************
 Molpro calculation terminated
 Variable memory released
