
 Primary working directories    : /tmp/r2666/234853.maple
 Secondary working directories  : /tmp/r2666/234853.maple
 Wavefunction directory         : /ddn/home4/r2666/wfu/
 Main file repository           : /tmp/r2666/234853.maple/

 SHA1      : d5ffa45e93fdbca01ffc919aa182cfdae0147319
 NAME      : 2015.1.35
 ARCHNAME  : linux/x86_64
 FC        : /opt/intel/composer_xe_2015.1.133/bin/intel64/ifort
 BLASLIB   : -Wl,-_start-group /opt/intel/mkl/lib/intel64/libmkl_intel_ilp64.a /opt/intel/mkl/lib/intel64/libmkl_intel_thread.a /opt/intel/mkl/lib/intel64/libmkl_core.a -Wl,-_end-group
 id        : olemiss

 Nodes     nprocs
 cn035        1

 Using customized tuning parameters: mindgm=1; mindgv=20; mindgc=4; mindgr=1; noblas=0; minvec=7
 default implementation of scratch files=df  

 ***,hno CCSD(T)/TZ-F12 QFF
 memory, 995, m;
 gthresh,energy=1.d-12,zero=1.d-22,oneint=1.d-22,twoint=1.d-22;
 gthresh,optgrad=1.d-8,optstep=1.d-8;
 nocompress;
 geomtyp=xyz
 bohr
 geometry={
 3
         96        96
 N        0.0000000000       -0.1606191269       -1.1344699539
 H        0.0000000000        1.6698818628       -1.9340274815
 O        0.0000000000        0.0325050541        1.1179078443
 }
 
 basis=avqz
   {hf,maxit=500;accu,20;}
 {ccsd(t),nocheck,maxit=250;orbital,IGNORE_ERROR;}

 Variables initialized (889), CPU time= 0.00 sec
 Commands  initialized (702), CPU time= 0.01 sec, 572 directives.
 Default parameters read. Elapsed time= 0.05 sec

 Checking input...
 Passed
1


                                         ***  PROGRAM SYSTEM MOLPRO  ***
                                       Copyright, TTI GmbH Stuttgart, 2015
                                    Version 2015.1 linked Jul  9 2018 13:16:40


 **********************************************************************************************************************************
 LABEL *   hno CCSD(T)/TZ-F12 QFF                                                        
  64 bit serial version                                                                  DATE: 08-Feb-20          TIME: 17:54:27  
 **********************************************************************************************************************************

 SHA1:             d5ffa45e93fdbca01ffc919aa182cfdae0147319
 **********************************************************************************************************************************

 THRESHOLDS:

 ZERO    =  1.00D-22  ONEINT  =  1.00D-22  TWOINT  =  1.00D-22  PREFAC  =  1.00D-14  LOCALI  =  1.00D-09  EORDER  =  1.00D-04
 ENERGY  =  1.00D-12  ETEST   =  0.00D+00  EDENS   =  0.00D+00  THRDEDEF=  1.00D-06  GRADIENT=  1.00D-02  STEP    =  1.00D-03
 ORBITAL =  1.00D-05  CIVEC   =  1.00D-05  COEFF   =  1.00D-04  PRINTCI =  5.00D-02  PUNCHCI =  9.90D+01  OPTGRAD =  3.00D-04
 OPTENERG=  1.00D-06  OPTSTEP =  3.00D-04  THRGRAD =  1.00D-10  COMPRESS=  1.00D-11  VARMIN  =  1.00D-07  VARMAX  =  1.00D-03
 THRDOUB =  0.00D+00  THRDIV  =  1.00D-05  THRRED  =  1.00D-07  THRPSP  =  1.00D+00  THRDC   =  1.00D-10  THRCS   =  1.00D-10
 THRNRM  =  1.00D-08  THREQ   =  0.00D+00  THRDE   =  1.00D+00  THRREF  =  1.00D-05  SPARFAC =  1.00D+00  THRDLP  =  1.00D-07
 THRDIA  =  1.00D-10  THRDLS  =  1.00D-07  THRGPS  =  0.00D+00  THRKEX  =  0.00D+00  THRDIS  =  2.00D-01  THRVAR  =  1.00D-10
 THRLOC  =  1.00D-06  THRGAP  =  1.00D-06  THRLOCT = -1.00D+00  THRGAPT = -1.00D+00  THRORB  =  1.00D-06  THRMLTP =  0.00D+00
 THRCPQCI=  1.00D-10  KEXTA   =  0.00D+00  THRCOARS=  0.00D+00  SYMTOL  =  1.00D-06  GRADTOL =  1.00D-06  THROVL  =  1.00D-08
 THRORTH =  1.00D-08  GRID    =  1.00D-06  GRIDMAX =  1.00D-03  DTMAX   =  0.00D+00  THROCCDE=  1.00D-01  THROCCDE=  1.00D-01



 THRESHOLDS:

 ZERO    =  1.00D-22  ONEINT  =  1.00D-22  TWOINT  =  1.00D-22  PREFAC  =  1.00D-14  LOCALI  =  1.00D-09  EORDER  =  1.00D-04
 ENERGY  =  1.00D-12  ETEST   =  0.00D+00  EDENS   =  0.00D+00  THRDEDEF=  1.00D-06  GRADIENT=  1.00D-02  STEP    =  1.00D-03
 ORBITAL =  1.00D-05  CIVEC   =  1.00D-05  COEFF   =  1.00D-04  PRINTCI =  5.00D-02  PUNCHCI =  9.90D+01  OPTGRAD =  1.00D-08
 OPTENERG=  1.00D-06  OPTSTEP =  1.00D-08  THRGRAD =  1.00D-10  COMPRESS=  1.00D-11  VARMIN  =  1.00D-07  VARMAX  =  1.00D-03
 THRDOUB =  0.00D+00  THRDIV  =  1.00D-05  THRRED  =  1.00D-07  THRPSP  =  1.00D+00  THRDC   =  1.00D-10  THRCS   =  1.00D-10
 THRNRM  =  1.00D-08  THREQ   =  0.00D+00  THRDE   =  1.00D+00  THRREF  =  1.00D-05  SPARFAC =  1.00D+00  THRDLP  =  1.00D-07
 THRDIA  =  1.00D-10  THRDLS  =  1.00D-07  THRGPS  =  0.00D+00  THRKEX  =  0.00D+00  THRDIS  =  2.00D-01  THRVAR  =  1.00D-10
 THRLOC  =  1.00D-06  THRGAP  =  1.00D-06  THRLOCT = -1.00D+00  THRGAPT = -1.00D+00  THRORB  =  1.00D-06  THRMLTP =  0.00D+00
 THRCPQCI=  1.00D-10  KEXTA   =  0.00D+00  THRCOARS=  0.00D+00  SYMTOL  =  1.00D-06  GRADTOL =  1.00D-06  THROVL  =  1.00D-08
 THRORTH =  1.00D-08  GRID    =  1.00D-06  GRIDMAX =  1.00D-03  DTMAX   =  0.00D+00  THROCCDE=  1.00D-01  THROCCDE=  1.00D-01



 Input parameters for SORTINT:

 COMPRESS =    0.000000
 C_FINAL  =    1.000000
 DEBUG    =   -1.000000
 C_SORT1  =    0.000000
 C_SEWARD =    0.000000
 THRESH   =    0.000000
 IO       =  molpro                                                          
 SPRI     =    0.000000
 SETTING GEOMTYP        =    XYZ
 ZUNIT=BOHR
 

 Variable memory set to  995000000 words,  buffer space   230000 words

 SETTING BASIS          =    AVQZ


 Recomputing integrals since basis changed


 Using spherical harmonics

 Library entry N      S aug-cc-pVQZ          selected for orbital group  1
 Library entry N      P aug-cc-pVQZ          selected for orbital group  1
 Library entry N      D aug-cc-pVQZ          selected for orbital group  1
 Library entry N      F aug-cc-pVQZ          selected for orbital group  1
 Library entry N      G aug-cc-pVQZ          selected for orbital group  1
 Library entry H      S aug-cc-pVQZ          selected for orbital group  2
 Library entry H      P aug-cc-pVQZ          selected for orbital group  2
 Library entry H      D aug-cc-pVQZ          selected for orbital group  2
 Library entry H      F aug-cc-pVQZ          selected for orbital group  2
 Library entry O      S aug-cc-pVQZ          selected for orbital group  3
 Library entry O      P aug-cc-pVQZ          selected for orbital group  3
 Library entry O      D aug-cc-pVQZ          selected for orbital group  3
 Library entry O      F aug-cc-pVQZ          selected for orbital group  3
 Library entry O      G aug-cc-pVQZ          selected for orbital group  3


 PROGRAM * SEWARD (Integral evaluation for generally contracted gaussian basis sets)     Author: Roland Lindh, 1990

 Geometry written to block  1 of record 700


 Point group  Cs  



 ATOMIC COORDINATES

 NR  ATOM    CHARGE       X              Y              Z

   1  N       7.00    0.000000000   -0.160619127   -1.134469954
   2  H       1.00    0.000000000    1.669881863   -1.934027482
   3  O       8.00    0.000000000    0.032505054    1.117907844

 Bond lengths in Bohr (Angstrom)

 1-2  1.997504972  1-3  2.260642098
     ( 1.057034110)     ( 1.196280280)

 Bond angles

  2-1-3  108.69487694

 NUCLEAR CHARGE:                   16
 NUMBER OF PRIMITIVE AOS:         293
 NUMBER OF SYMMETRY AOS:          234
 NUMBER OF CONTRACTIONS:          206   ( 130A'  +  76A"  )
 NUMBER OF CORE ORBITALS:           2   (   2A'  +   0A"  )
 NUMBER OF VALENCE ORBITALS:        9   (   7A'  +   2A"  )


 NUCLEAR REPULSION ENERGY   30.58594713

 Eigenvalues of metric

         1 0.588E-04 0.143E-03 0.314E-03 0.433E-03 0.568E-03 0.680E-03 0.100E-02 0.106E-02
         2 0.794E-03 0.165E-02 0.482E-02 0.889E-02 0.102E-01 0.119E-01 0.123E-01 0.186E-01


 Contracted 2-electron integrals neglected if value below      1.0D-22

      109945086. INTEGRALS WRITTEN OUT IN   26849 BLOCKS ON RECORD 1290 OF FILE 1


 NUMBER OF SORTED TWO-ELECTRON INTEGRALS:  115283741.     BUFFER LENGTH:  32768
 NUMBER OF SEGMENTS:   8  SEGMENT LENGTH:   15998004      RECORD LENGTH: 524288

 Memory used in sort:      16.56 MW

 SORT1 READ   109945086. AND WROTE   110865253. INTEGRALS IN    322 RECORDS. CPU TIME:     3.18 SEC, REAL TIME:     4.05 SEC
 SORT2 READ   110865253. AND WROTE   115283741. INTEGRALS IN      8 RECORDS. CPU TIME:     1.49 SEC, REAL TIME:     2.11 SEC

 FILE SIZES:   FILE 1:  1780.6 MBYTE,  FILE 4:  1350.6 MBYTE,   TOTAL:   3131.2 MBYTE

 OPERATOR DM      FOR CENTER  0  COORDINATES:    0.000000    0.000000    0.000000


 **********************************************************************************************************************************
 DATASETS  * FILE   NREC   LENGTH (MB)   RECORD NAMES
              1      19      944.14       500      610      700      900      950      970     1000      129      960     1100   
                                          VAR    BASINP    GEOM    SYMINP    ZMAT    AOBASIS   BASIS     P2S    ABASIS      S 
                                         1400     1410     1200     1210     1080     1600     1650     1300     1700   
                                           T        V       H0       H01     AOSYM     SMH    MOLCAS    ERIS     OPER   

 PROGRAMS   *        TOTAL       INT
 CPU TIMES  *        15.92     15.84
 REAL TIME  *        19.08 SEC
 DISK USED  *         3.13 GB      
 **********************************************************************************************************************************


 PROGRAM * RHF-SCF (CLOSED SHELL)       Authors: W. Meyer, H.-J. Werner


 NUMBER OF ELECTRONS:       8+    8-
 CONVERGENCE THRESHOLDS:    1.00E-10 (Density)    1.00E-13 (Energy)
 MAX. NUMBER OF ITERATIONS:      500
 INTERPOLATION TYPE:            DIIS
 INTERPOLATION STEPS:              2 (START)      1 (STEP)
 LEVEL SHIFTS:                  0.00 (CLOSED)  0.00 (OPEN) 



 Orbital guess generated from atomic densities. Full valence occupancy:    9   2

 Molecular orbital dump at record        2100.2

 Initial occupancy:   7   1

 ITERATION    DDIFF          GRAD             ENERGY        2-EL.EN.            DIPOLE MOMENTS         DIIS   ORB.
    1      0.000D+00      0.000D+00      -129.79943263    154.343067    0.00000    0.59005   -0.99016    0    start
    2      0.000D+00      0.802D-02      -129.82701222    155.606260    0.00000    0.60199   -0.21239    1    diag
    3      0.639D-02      0.597D-02      -129.84821535    155.700995    0.00000    0.55105   -0.57724    2    diag
    4      0.323D-02      0.958D-03      -129.84899488    155.424008    0.00000    0.55845   -0.51779    3    diag
    5      0.597D-03      0.311D-03      -129.84911735    155.517097    0.00000    0.56389   -0.52068    4    diag
    6      0.248D-03      0.900D-04      -129.84913686    155.501035    0.00000    0.56425   -0.51670    5    diag
    7      0.947D-04      0.443D-04      -129.84914236    155.503931    0.00000    0.56553   -0.51427    6    diag
    8      0.647D-04      0.150D-04      -129.84914293    155.503277    0.00000    0.56558   -0.51333    7    diag
    9      0.236D-04      0.284D-05      -129.84914296    155.503167    0.00000    0.56555   -0.51313    8    diag
   10      0.459D-05      0.665D-06      -129.84914296    155.503149    0.00000    0.56551   -0.51310    9    orth
   11      0.960D-06      0.135D-06      -129.84914296    155.503145    0.00000    0.56551   -0.51310    9    diag
   12      0.184D-06      0.272D-07      -129.84914296    155.503145    0.00000    0.56550   -0.51309    9    diag
   13      0.396D-07      0.690D-08      -129.84914296    155.503145    0.00000    0.56550   -0.51309    9    diag
   14      0.105D-07      0.139D-08      -129.84914296    155.503145    0.00000    0.56550   -0.51309    9    diag
   15      0.198D-08      0.409D-09      -129.84914296    155.503145    0.00000    0.56550   -0.51309    9    diag
   16      0.587D-09      0.127D-09      -129.84914296    155.503145    0.00000    0.56550   -0.51309    9    diag
   17      0.118D-09      0.351D-10      -129.84914296    155.503145    0.00000    0.56550   -0.51309    9    diag
   18      0.338D-10      0.118D-10      -129.84914296    155.503145    0.00000    0.56550   -0.51309    9    diag
   19      0.161D-10      0.294D-11      -129.84914296    155.503145    0.00000    0.56550   -0.51309    0    orth

 Final occupancy:   7   1

 !RHF STATE 1.1 Energy               -129.849142956811
 Nuclear energy                        30.58594713
 One-electron energy                 -238.18666237
 Two-electron energy                   77.75157229
 Virial quotient                       -1.00146107
 !RHF STATE 1.1 Dipole moment           0.00000000     0.56550421    -0.51309358
 Dipole moment /Debye                   0.00000000     1.43727419    -1.30406839

 Orbital energies:

         1.1          2.1          3.1          4.1          5.1          6.1          7.1          8.1          9.1
    -20.652807   -15.711237    -1.538984    -0.990866    -0.750255    -0.669608    -0.426272     0.026471     0.079493

         1.2          2.2          3.2
     -0.601730     0.066130     0.111114

 HOMO      7.1    -0.426272 =     -11.5995eV
 LUMO      8.1     0.026471 =       0.7203eV
 LUMO-HOMO         0.452743 =      12.3198eV


 **********************************************************************************************************************************
 DATASETS  * FILE   NREC   LENGTH (MB)   RECORD NAMES
              1      19      944.14       500      610      700      900      950      970     1000      129      960     1100   
                                          VAR    BASINP    GEOM    SYMINP    ZMAT    AOBASIS   BASIS     P2S    ABASIS      S 
                                         1400     1410     1200     1210     1080     1600     1650     1300     1700   
                                           T        V       H0       H01     AOSYM     SMH    MOLCAS    ERIS     OPER   

              2       4        3.27       700     1000      520     2100   
                                         GEOM     BASIS   MCVARS     RHF  

 PROGRAMS   *        TOTAL        HF       INT
 CPU TIMES  *        26.78     10.86     15.84
 REAL TIME  *        33.58 SEC
 DISK USED  *         3.13 GB      
 **********************************************************************************************************************************


 PROGRAM * CCSD (Closed-shell coupled cluster)     Authors: C. Hampel, H.-J. Werner, 1991, M. Deegan, P.J. Knowles, 1992


 Convergence thresholds:  THRVAR = 1.00D-08  THRDEN = 1.00D-12

 CCSD(T)     terms to be evaluated (factor= 1.000)


 Number of core orbitals:           2 (   2   0 )
 Number of closed-shell orbitals:   6 (   5   1 )
 Number of external orbitals:     198 ( 123  75 )

 Molecular orbitals read from record     2100.2  Type=RHF/CANONICAL (state 1.1)

 Number of N-1 electron functions:               6
 Number of N-2 electron functions:              21
 Number of singly external CSFs:               690
 Number of doubly external CSFs:            362646
 Total number of CSFs:                      363337

 Length of J-op  integral file:               0.00 MB
 Length of K-op  integral file:               1.60 MB
 Length of 3-ext integral record:             0.00 MB

 Memory could be reduced to 34.67 Mwords without degradation in triples

 Integral transformation finished. Total CPU:   1.83 sec, npass=  1  Memory used:   9.53 MW

 Reference energy:                   -129.84914296

 MP2 singlet pair energy:              -0.30054584
 MP2 triplet pair energy:              -0.16971800
 MP2 correlation energy:               -0.47026384
 MP2 total energy:                   -130.31940679

 SCS-MP2 correlation energy:           -0.46625732   (PS=  1.200000  PT=  0.333333)
 SCS-MP2 total energy:               -130.31540027

 ITER.      SQ.NORM     CORR.ENERGY   TOTAL ENERGY   ENERGY CHANGE        DEN1      VAR(S)    VAR(P)  DIIS     TIME  TIME/IT
   1      1.11997226    -0.47073798  -130.31988093    -0.00047414     0.01550194  0.30D-02  0.31D-02  1  1     3.45     1.75
   2      1.13042912    -0.47078527  -130.31992823    -0.00004729    -0.01224204  0.98D-04  0.48D-03  2  2     5.12     1.79
   3      1.13654735    -0.47115015  -130.32029311    -0.00036488    -0.00298711  0.47D-04  0.51D-04  3  3     6.83     1.80
   4      1.13918610    -0.47115555  -130.32029851    -0.00000540    -0.00090628  0.41D-05  0.92D-05  4  4     8.45     1.81
   5      1.14022144    -0.47118333  -130.32032628    -0.00002777    -0.00022653  0.11D-05  0.16D-05  5  5    10.10     1.82
   6      1.14056145    -0.47116977  -130.32031272     0.00001356    -0.00004833  0.11D-06  0.39D-06  6  6    11.77     1.82
   7      1.14063591    -0.47116998  -130.32031293    -0.00000021     0.00000182  0.18D-07  0.87D-07  6  1    13.40     1.83
   8      1.14065875    -0.47117041  -130.32031337    -0.00000044    -0.00000112  0.37D-08  0.17D-07  6  2    15.07     1.83
   9      1.14066721    -0.47116990  -130.32031286     0.00000051    -0.00000041  0.21D-08  0.16D-08  6  3    16.73     1.83
  10      1.14066276    -0.47117063  -130.32031359    -0.00000073     0.00000147  0.30D-09  0.25D-09  6  5    18.35     1.83
  11      1.14066434    -0.47117060  -130.32031355     0.00000004    -0.00000028  0.88D-10  0.23D-10  6  4    20.01     1.83
  12      1.14066394    -0.47117066  -130.32031362    -0.00000006     0.00000003  0.17D-10  0.56D-11  6  6    21.63     1.83
  13      1.14066376    -0.47117066  -130.32031362    -0.00000000    -0.00000004  0.31D-11  0.79D-12  6  1    23.26     1.83
  14      1.14066350    -0.47117067  -130.32031363    -0.00000001     0.00000004  0.44D-12  0.15D-12  6  3    24.87     1.84
  15      1.14066342    -0.47117068  -130.32031363    -0.00000000     0.00000001  0.11D-12  0.21D-13  6  2    26.55     1.84
  16      1.14066341    -0.47117067  -130.32031363     0.00000000     0.00000000  0.28D-13  0.93D-14  6  4    28.21     1.84
  17      1.14066342    -0.47117067  -130.32031363    -0.00000000    -0.00000000  0.13D-14  0.10D-14  6  5    29.88     1.84
  18      1.14066342    -0.47117067  -130.32031363     0.00000000    -0.00000000  0.23D-15  0.23D-15  6  6    31.55     1.84
  19      1.14066342    -0.47117067  -130.32031363     0.00000000    -0.00000000  0.31D-16  0.27D-16  6  5    33.20     1.84
  20      1.14066343    -0.47117067  -130.32031363     0.00000000    -0.00000000  0.59D-17  0.37D-17  6  1    34.85     1.85
  21      1.14066343    -0.47117067  -130.32031363    -0.00000000     0.00000000  0.77D-18  0.52D-18  6  3    36.52     1.85
  22      1.14066343    -0.47117067  -130.32031363    -0.00000000     0.00000000  0.11D-18  0.56D-19  6  2    38.22     1.85
  23      1.14066343    -0.47117067  -130.32031363    -0.00000000     0.00000000  0.23D-19  0.11D-19  6  4    39.86     1.85
  24      1.14066343    -0.47117067  -130.32031363    -0.00000000     0.00000000  0.80D-20  0.19D-20  6  6    41.52     1.85
  25      1.14066343    -0.47117067  -130.32031363     0.00000000    -0.00000000  0.27D-20  0.71D-21  6  5    43.17     1.85

 Norm of t1 vector:      0.07524674      S-energy:     0.00000000      T1 diagnostic:  0.01535968
                                                                       D1 diagnostic:  0.04070508

 Doubles amplitudes (print threshold =  0.500E-01):

         I         J         SYM. A    SYM. B    A         B      T(IJ, AB)

         6         6         2         2         1         1     -0.09211446


 Total CPU time for triples:     20.01 sec


 RESULTS
 =======

  Reference energy                   -129.849142956811
  CCSD singlet pair energy             -0.325470508311
  CCSD triplet pair energy             -0.145700166037
  CCSD correlation energy              -0.471170674347

  Triples (T) contribution             -0.022036893282
  Total correlation energy             -0.493207567630

  CCSD total energy                  -130.320313631158
  CCSD[T] energy                     -130.343382164253
  CCSD-T energy                      -130.341974764839
 !CCSD(T) total energy               -130.342350524440

 Timing summary (sec):

 STEP                 CPU(USER)    SYS     CPU(TOT)    WALL
 Transformation          1.85      0.34      2.19      2.22
 CCSD iterations        41.32      4.97     46.29     46.29
 Triples                20.01      0.59     20.60     20.60

 Program statistics:

 Available memory in ccsd:               994999756
 Min. memory needed in ccsd:               1265322
 Max. memory used in ccsd:                 1555950
 Max. memory used in cckext:               2415326 (25 integral passes)



 **********************************************************************************************************************************
 DATASETS  * FILE   NREC   LENGTH (MB)   RECORD NAMES
              1      20     1044.69       500      610      700      900      950      970     1000      129      960     1100   
                                          VAR    BASINP    GEOM    SYMINP    ZMAT    AOBASIS   BASIS     P2S    ABASIS      S 
                                         1400     1410     1200     1210     1080     1600     1650     1300     1700     1380   
                                           T        V       H0       H01     AOSYM     SMH    MOLCAS    ERIS     OPER     JKOP   

              2       4        3.27       700     1000      520     2100   
                                         GEOM     BASIS   MCVARS     RHF  

 PROGRAMS   *        TOTAL   CCSD(T)        HF       INT
 CPU TIMES  *        89.99     63.20     10.86     15.84
 REAL TIME  *       102.74 SEC
 DISK USED  *         3.13 GB      
 **********************************************************************************************************************************

 CCSD(T)/aug-cc-pVQZ energy=   -130.342350524440

        CCSD(T)         HF-SCF  
   -130.34235052   -129.84914296
 **********************************************************************************************************************************
 Molpro calculation terminated
 Variable memory released
