
 Primary working directories    : /tmp/r2666/234780.maple
 Secondary working directories  : /tmp/r2666/234780.maple
 Wavefunction directory         : /ddn/home4/r2666/wfu/
 Main file repository           : /tmp/r2666/234780.maple/

 SHA1      : d5ffa45e93fdbca01ffc919aa182cfdae0147319
 NAME      : 2015.1.35
 ARCHNAME  : linux/x86_64
 FC        : /opt/intel/composer_xe_2015.1.133/bin/intel64/ifort
 BLASLIB   : -Wl,-_start-group /opt/intel/mkl/lib/intel64/libmkl_intel_ilp64.a /opt/intel/mkl/lib/intel64/libmkl_intel_thread.a /opt/intel/mkl/lib/intel64/libmkl_core.a -Wl,-_end-group
 id        : olemiss

 Nodes     nprocs
 cn022        1

 Using customized tuning parameters: mindgm=1; mindgv=20; mindgc=4; mindgr=1; noblas=0; minvec=7
 default implementation of scratch files=df  

 ***,hno CCSD(T)/TZ-F12 QFF
 memory, 995, m;
 gthresh,energy=1.d-12,zero=1.d-22,oneint=1.d-22,twoint=1.d-22;
 gthresh,optgrad=1.d-8,optstep=1.d-8;
 nocompress;
 geomtyp=xyz
 bohr
 geometry={
 3
         23        23
 N        0.0000000000       -0.1582727576       -1.1447181986
 H        0.0000000000        1.6611719352       -1.9222202812
 O        0.0000000000        0.0388686123        1.1163488888
 }
 
 basis=avqz
   {hf,maxit=500;accu,20;}
 {ccsd(t),nocheck,maxit=250;orbital,IGNORE_ERROR;}

 Variables initialized (889), CPU time= 0.00 sec
 Commands  initialized (702), CPU time= 0.00 sec, 572 directives.
 Default parameters read. Elapsed time= 0.06 sec

 Checking input...
 Passed
1


                                         ***  PROGRAM SYSTEM MOLPRO  ***
                                       Copyright, TTI GmbH Stuttgart, 2015
                                    Version 2015.1 linked Jul  9 2018 13:16:40


 **********************************************************************************************************************************
 LABEL *   hno CCSD(T)/TZ-F12 QFF                                                        
  64 bit serial version                                                                  DATE: 08-Feb-20          TIME: 17:50:47  
 **********************************************************************************************************************************

 SHA1:             d5ffa45e93fdbca01ffc919aa182cfdae0147319
 **********************************************************************************************************************************

 THRESHOLDS:

 ZERO    =  1.00D-22  ONEINT  =  1.00D-22  TWOINT  =  1.00D-22  PREFAC  =  1.00D-14  LOCALI  =  1.00D-09  EORDER  =  1.00D-04
 ENERGY  =  1.00D-12  ETEST   =  0.00D+00  EDENS   =  0.00D+00  THRDEDEF=  1.00D-06  GRADIENT=  1.00D-02  STEP    =  1.00D-03
 ORBITAL =  1.00D-05  CIVEC   =  1.00D-05  COEFF   =  1.00D-04  PRINTCI =  5.00D-02  PUNCHCI =  9.90D+01  OPTGRAD =  3.00D-04
 OPTENERG=  1.00D-06  OPTSTEP =  3.00D-04  THRGRAD =  1.00D-10  COMPRESS=  1.00D-11  VARMIN  =  1.00D-07  VARMAX  =  1.00D-03
 THRDOUB =  0.00D+00  THRDIV  =  1.00D-05  THRRED  =  1.00D-07  THRPSP  =  1.00D+00  THRDC   =  1.00D-10  THRCS   =  1.00D-10
 THRNRM  =  1.00D-08  THREQ   =  0.00D+00  THRDE   =  1.00D+00  THRREF  =  1.00D-05  SPARFAC =  1.00D+00  THRDLP  =  1.00D-07
 THRDIA  =  1.00D-10  THRDLS  =  1.00D-07  THRGPS  =  0.00D+00  THRKEX  =  0.00D+00  THRDIS  =  2.00D-01  THRVAR  =  1.00D-10
 THRLOC  =  1.00D-06  THRGAP  =  1.00D-06  THRLOCT = -1.00D+00  THRGAPT = -1.00D+00  THRORB  =  1.00D-06  THRMLTP =  0.00D+00
 THRCPQCI=  1.00D-10  KEXTA   =  0.00D+00  THRCOARS=  0.00D+00  SYMTOL  =  1.00D-06  GRADTOL =  1.00D-06  THROVL  =  1.00D-08
 THRORTH =  1.00D-08  GRID    =  1.00D-06  GRIDMAX =  1.00D-03  DTMAX   =  0.00D+00  THROCCDE=  1.00D-01  THROCCDE=  1.00D-01



 THRESHOLDS:

 ZERO    =  1.00D-22  ONEINT  =  1.00D-22  TWOINT  =  1.00D-22  PREFAC  =  1.00D-14  LOCALI  =  1.00D-09  EORDER  =  1.00D-04
 ENERGY  =  1.00D-12  ETEST   =  0.00D+00  EDENS   =  0.00D+00  THRDEDEF=  1.00D-06  GRADIENT=  1.00D-02  STEP    =  1.00D-03
 ORBITAL =  1.00D-05  CIVEC   =  1.00D-05  COEFF   =  1.00D-04  PRINTCI =  5.00D-02  PUNCHCI =  9.90D+01  OPTGRAD =  1.00D-08
 OPTENERG=  1.00D-06  OPTSTEP =  1.00D-08  THRGRAD =  1.00D-10  COMPRESS=  1.00D-11  VARMIN  =  1.00D-07  VARMAX  =  1.00D-03
 THRDOUB =  0.00D+00  THRDIV  =  1.00D-05  THRRED  =  1.00D-07  THRPSP  =  1.00D+00  THRDC   =  1.00D-10  THRCS   =  1.00D-10
 THRNRM  =  1.00D-08  THREQ   =  0.00D+00  THRDE   =  1.00D+00  THRREF  =  1.00D-05  SPARFAC =  1.00D+00  THRDLP  =  1.00D-07
 THRDIA  =  1.00D-10  THRDLS  =  1.00D-07  THRGPS  =  0.00D+00  THRKEX  =  0.00D+00  THRDIS  =  2.00D-01  THRVAR  =  1.00D-10
 THRLOC  =  1.00D-06  THRGAP  =  1.00D-06  THRLOCT = -1.00D+00  THRGAPT = -1.00D+00  THRORB  =  1.00D-06  THRMLTP =  0.00D+00
 THRCPQCI=  1.00D-10  KEXTA   =  0.00D+00  THRCOARS=  0.00D+00  SYMTOL  =  1.00D-06  GRADTOL =  1.00D-06  THROVL  =  1.00D-08
 THRORTH =  1.00D-08  GRID    =  1.00D-06  GRIDMAX =  1.00D-03  DTMAX   =  0.00D+00  THROCCDE=  1.00D-01  THROCCDE=  1.00D-01



 Input parameters for SORTINT:

 COMPRESS =    0.000000
 C_FINAL  =    1.000000
 DEBUG    =   -1.000000
 C_SORT1  =    0.000000
 C_SEWARD =    0.000000
 THRESH   =    0.000000
 IO       =  molpro                                                          
 SPRI     =    0.000000
 SETTING GEOMTYP        =    XYZ
 ZUNIT=BOHR
 

 Variable memory set to  995000000 words,  buffer space   230000 words

 SETTING BASIS          =    AVQZ


 Recomputing integrals since basis changed


 Using spherical harmonics

 Library entry N      S aug-cc-pVQZ          selected for orbital group  1
 Library entry N      P aug-cc-pVQZ          selected for orbital group  1
 Library entry N      D aug-cc-pVQZ          selected for orbital group  1
 Library entry N      F aug-cc-pVQZ          selected for orbital group  1
 Library entry N      G aug-cc-pVQZ          selected for orbital group  1
 Library entry H      S aug-cc-pVQZ          selected for orbital group  2
 Library entry H      P aug-cc-pVQZ          selected for orbital group  2
 Library entry H      D aug-cc-pVQZ          selected for orbital group  2
 Library entry H      F aug-cc-pVQZ          selected for orbital group  2
 Library entry O      S aug-cc-pVQZ          selected for orbital group  3
 Library entry O      P aug-cc-pVQZ          selected for orbital group  3
 Library entry O      D aug-cc-pVQZ          selected for orbital group  3
 Library entry O      F aug-cc-pVQZ          selected for orbital group  3
 Library entry O      G aug-cc-pVQZ          selected for orbital group  3


 PROGRAM * SEWARD (Integral evaluation for generally contracted gaussian basis sets)     Author: Roland Lindh, 1990

 Geometry written to block  1 of record 700


 Point group  Cs  



 ATOMIC COORDINATES

 NR  ATOM    CHARGE       X              Y              Z

   1  N       7.00    0.000000000   -0.158272758   -1.144718199
   2  H       1.00    0.000000000    1.661171935   -1.922220281
   3  O       8.00    0.000000000    0.038868612    1.116348889

 Bond lengths in Bohr (Angstrom)

 1-2  1.978607712  1-3  2.269645147
     ( 1.047034111)     ( 1.201044489)

 Bond angles

  2-1-3  108.15544917

 NUCLEAR CHARGE:                   16
 NUMBER OF PRIMITIVE AOS:         293
 NUMBER OF SYMMETRY AOS:          234
 NUMBER OF CONTRACTIONS:          206   ( 130A'  +  76A"  )
 NUMBER OF CORE ORBITALS:           2   (   2A'  +   0A"  )
 NUMBER OF VALENCE ORBITALS:        9   (   7A'  +   2A"  )


 NUCLEAR REPULSION ENERGY   30.53382636

 Eigenvalues of metric

         1 0.583E-04 0.143E-03 0.315E-03 0.434E-03 0.575E-03 0.671E-03 0.991E-03 0.107E-02
         2 0.803E-03 0.160E-02 0.484E-02 0.889E-02 0.100E-01 0.120E-01 0.123E-01 0.182E-01


 Contracted 2-electron integrals neglected if value below      1.0D-22

      109944315. INTEGRALS WRITTEN OUT IN   26849 BLOCKS ON RECORD 1290 OF FILE 1


 NUMBER OF SORTED TWO-ELECTRON INTEGRALS:  115283741.     BUFFER LENGTH:  32768
 NUMBER OF SEGMENTS:   8  SEGMENT LENGTH:   15998004      RECORD LENGTH: 524288

 Memory used in sort:      16.56 MW

 SORT1 READ   109944315. AND WROTE   110864462. INTEGRALS IN    322 RECORDS. CPU TIME:     2.75 SEC, REAL TIME:     3.47 SEC
 SORT2 READ   110864462. AND WROTE   115283741. INTEGRALS IN      8 RECORDS. CPU TIME:     1.57 SEC, REAL TIME:     2.03 SEC

 FILE SIZES:   FILE 1:  1780.6 MBYTE,  FILE 4:  1350.6 MBYTE,   TOTAL:   3131.2 MBYTE

 OPERATOR DM      FOR CENTER  0  COORDINATES:    0.000000    0.000000    0.000000


 **********************************************************************************************************************************
 DATASETS  * FILE   NREC   LENGTH (MB)   RECORD NAMES
              1      19      944.13       500      610      700      900      950      970     1000      129      960     1100   
                                          VAR    BASINP    GEOM    SYMINP    ZMAT    AOBASIS   BASIS     P2S    ABASIS      S 
                                         1400     1410     1200     1210     1080     1600     1650     1300     1700   
                                           T        V       H0       H01     AOSYM     SMH    MOLCAS    ERIS     OPER   

 PROGRAMS   *        TOTAL       INT
 CPU TIMES  *        14.58     14.49
 REAL TIME  *        17.45 SEC
 DISK USED  *         3.13 GB      
 **********************************************************************************************************************************


 PROGRAM * RHF-SCF (CLOSED SHELL)       Authors: W. Meyer, H.-J. Werner


 NUMBER OF ELECTRONS:       8+    8-
 CONVERGENCE THRESHOLDS:    1.00E-10 (Density)    1.00E-13 (Energy)
 MAX. NUMBER OF ITERATIONS:      500
 INTERPOLATION TYPE:            DIIS
 INTERPOLATION STEPS:              2 (START)      1 (STEP)
 LEVEL SHIFTS:                  0.00 (CLOSED)  0.00 (OPEN) 



 Orbital guess generated from atomic densities. Full valence occupancy:    9   2

 Molecular orbital dump at record        2100.2

 Initial occupancy:   7   1

 ITERATION    DDIFF          GRAD             ENERGY        2-EL.EN.            DIPOLE MOMENTS         DIIS   ORB.
    1      0.000D+00      0.000D+00      -129.79895291    154.260817    0.00000    0.59425   -1.00347    0    start
    2      0.000D+00      0.803D-02      -129.82643339    155.500423    0.00000    0.60651   -0.21278    1    diag
    3      0.643D-02      0.602D-02      -129.84799397    155.609269    0.00000    0.55494   -0.58381    2    diag
    4      0.326D-02      0.963D-03      -129.84878133    155.330117    0.00000    0.56255   -0.52366    3    diag
    5      0.600D-03      0.312D-03      -129.84890409    155.422669    0.00000    0.56780   -0.52634    4    diag
    6      0.249D-03      0.900D-04      -129.84892356    155.406662    0.00000    0.56812   -0.52230    5    diag
    7      0.946D-04      0.446D-04      -129.84892914    155.409461    0.00000    0.56936   -0.51978    6    diag
    8      0.650D-04      0.152D-04      -129.84892974    155.408794    0.00000    0.56940   -0.51881    7    diag
    9      0.242D-04      0.289D-05      -129.84892977    155.408685    0.00000    0.56936   -0.51861    8    diag
   10      0.475D-05      0.667D-06      -129.84892977    155.408668    0.00000    0.56933   -0.51858    9    orth
   11      0.962D-06      0.135D-06      -129.84892977    155.408664    0.00000    0.56932   -0.51857    9    diag
   12      0.180D-06      0.271D-07      -129.84892977    155.408664    0.00000    0.56932   -0.51857    9    diag
   13      0.388D-07      0.691D-08      -129.84892977    155.408664    0.00000    0.56932   -0.51857    9    diag
   14      0.103D-07      0.137D-08      -129.84892977    155.408664    0.00000    0.56932   -0.51857    9    diag
   15      0.191D-08      0.397D-09      -129.84892977    155.408664    0.00000    0.56932   -0.51857    9    diag
   16      0.571D-09      0.122D-09      -129.84892977    155.408664    0.00000    0.56932   -0.51857    9    diag
   17      0.113D-09      0.329D-10      -129.84892977    155.408664    0.00000    0.56932   -0.51857    9    diag
   18      0.311D-10      0.111D-10      -129.84892977    155.408664    0.00000    0.56932   -0.51857    9    diag
   19      0.149D-10      0.274D-11      -129.84892977    155.408664    0.00000    0.56932   -0.51857    0    orth

 Final occupancy:   7   1

 !RHF STATE 1.1 Energy               -129.848929768535
 Nuclear energy                        30.53382636
 One-electron energy                 -238.08708824
 Two-electron energy                   77.70433212
 Virial quotient                       -1.00147482
 !RHF STATE 1.1 Dipole moment           0.00000000     0.56932112    -0.51857229
 Dipole moment /Debye                   0.00000000     1.44697517    -1.31799297

 Orbital energies:

         1.1          2.1          3.1          4.1          5.1          6.1          7.1          8.1          9.1
    -20.652901   -15.710779    -1.535370    -0.994159    -0.749883    -0.668088    -0.428715     0.026453     0.079501

         1.2          2.2          3.2
     -0.599317     0.065028     0.110689

 HOMO      7.1    -0.428715 =     -11.6659eV
 LUMO      8.1     0.026453 =       0.7198eV
 LUMO-HOMO         0.455168 =      12.3858eV


 **********************************************************************************************************************************
 DATASETS  * FILE   NREC   LENGTH (MB)   RECORD NAMES
              1      19      944.13       500      610      700      900      950      970     1000      129      960     1100   
                                          VAR    BASINP    GEOM    SYMINP    ZMAT    AOBASIS   BASIS     P2S    ABASIS      S 
                                         1400     1410     1200     1210     1080     1600     1650     1300     1700   
                                           T        V       H0       H01     AOSYM     SMH    MOLCAS    ERIS     OPER   

              2       4        3.27       700     1000      520     2100   
                                         GEOM     BASIS   MCVARS     RHF  

 PROGRAMS   *        TOTAL        HF       INT
 CPU TIMES  *        26.56     11.98     14.49
 REAL TIME  *        31.60 SEC
 DISK USED  *         3.13 GB      
 **********************************************************************************************************************************


 PROGRAM * CCSD (Closed-shell coupled cluster)     Authors: C. Hampel, H.-J. Werner, 1991, M. Deegan, P.J. Knowles, 1992


 Convergence thresholds:  THRVAR = 1.00D-08  THRDEN = 1.00D-12

 CCSD(T)     terms to be evaluated (factor= 1.000)


 Number of core orbitals:           2 (   2   0 )
 Number of closed-shell orbitals:   6 (   5   1 )
 Number of external orbitals:     198 ( 123  75 )

 Molecular orbitals read from record     2100.2  Type=RHF/CANONICAL (state 1.1)

 Number of N-1 electron functions:               6
 Number of N-2 electron functions:              21
 Number of singly external CSFs:               690
 Number of doubly external CSFs:            362646
 Total number of CSFs:                      363337

 Length of J-op  integral file:               0.00 MB
 Length of K-op  integral file:               1.60 MB
 Length of 3-ext integral record:             0.00 MB

 Memory could be reduced to 34.67 Mwords without degradation in triples

 Integral transformation finished. Total CPU:   1.97 sec, npass=  1  Memory used:   9.53 MW

 Reference energy:                   -129.84892977

 MP2 singlet pair energy:              -0.30079983
 MP2 triplet pair energy:              -0.16989685
 MP2 correlation energy:               -0.47069667
 MP2 total energy:                   -130.31962644

 SCS-MP2 correlation energy:           -0.46667338   (PS=  1.200000  PT=  0.333333)
 SCS-MP2 total energy:               -130.31560315

 ITER.      SQ.NORM     CORR.ENERGY   TOTAL ENERGY   ENERGY CHANGE        DEN1      VAR(S)    VAR(P)  DIIS     TIME  TIME/IT
   1      1.12012209    -0.47101480  -130.31994457    -0.00031813     0.01575716  0.31D-02  0.31D-02  1  1     3.78     1.90
   2      1.13062245    -0.47103334  -130.31996311    -0.00001855    -0.01229926  0.10D-03  0.48D-03  2  2     5.65     1.93
   3      1.13676740    -0.47139776  -130.32032753    -0.00036442    -0.00299467  0.46D-04  0.52D-04  3  3     7.51     1.95
   4      1.13943495    -0.47140506  -130.32033483    -0.00000730    -0.00091212  0.40D-05  0.93D-05  4  4     9.32     1.95
   5      1.14047704    -0.47143297  -130.32036274    -0.00002790    -0.00022789  0.10D-05  0.16D-05  5  5    11.17     1.96
   6      1.14081739    -0.47141901  -130.32034878     0.00001396    -0.00004878  0.10D-06  0.39D-06  6  6    12.98     1.96
   7      1.14088919    -0.47141948  -130.32034925    -0.00000047     0.00000227  0.16D-07  0.88D-07  6  1    14.83     1.96
   8      1.14091130    -0.47141989  -130.32034966    -0.00000041    -0.00000102  0.35D-08  0.17D-07  6  2    16.66     1.96
   9      1.14091617    -0.47141953  -130.32034930     0.00000036     0.00000087  0.24D-08  0.19D-08  6  4    18.49     1.96
  10      1.14091848    -0.47141990  -130.32034966    -0.00000037    -0.00000070  0.44D-09  0.22D-09  6  3    20.33     1.96
  11      1.14091818    -0.47141996  -130.32034973    -0.00000006    -0.00000010  0.14D-09  0.32D-10  6  5    22.19     1.96
  12      1.14091725    -0.47142009  -130.32034986    -0.00000013     0.00000034  0.17D-10  0.98D-11  6  6    24.02     1.97
  13      1.14091646    -0.47142013  -130.32034990    -0.00000004     0.00000021  0.53D-11  0.21D-11  6  1    25.86     1.97
  14      1.14091584    -0.47142016  -130.32034993    -0.00000003     0.00000014  0.37D-12  0.43D-12  6  4    27.66     1.97
  15      1.14091564    -0.47142017  -130.32034994    -0.00000001     0.00000003  0.79D-13  0.33D-13  6  2    29.51     1.97
  16      1.14091560    -0.47142017  -130.32034994    -0.00000000     0.00000001  0.22D-13  0.63D-14  6  3    31.36     1.97
  17      1.14091557    -0.47142017  -130.32034994    -0.00000000     0.00000001  0.39D-14  0.96D-15  6  5    33.18     1.97
  18      1.14091557    -0.47142017  -130.32034994     0.00000000     0.00000000  0.77D-15  0.25D-15  6  6    35.00     1.97
  19      1.14091557    -0.47142017  -130.32034994     0.00000000     0.00000000  0.85D-16  0.49D-16  6  1    36.83     1.97
  20      1.14091557    -0.47142017  -130.32034994     0.00000000    -0.00000000  0.86D-17  0.71D-17  6  4    38.65     1.97
  21      1.14091557    -0.47142017  -130.32034994     0.00000000    -0.00000000  0.46D-18  0.61D-18  6  3    40.49     1.97
  22      1.14091557    -0.47142017  -130.32034994     0.00000000    -0.00000000  0.11D-18  0.14D-18  6  2    42.30     1.97
  23      1.14091557    -0.47142017  -130.32034994     0.00000000    -0.00000000  0.92D-20  0.30D-19  6  1    44.12     1.97
  24      1.14091557    -0.47142017  -130.32034994    -0.00000000     0.00000000  0.15D-20  0.57D-20  6  5    45.93     1.97

 Norm of t1 vector:      0.07543542      S-energy:     0.00000000      T1 diagnostic:  0.01539819
                                                                       D1 diagnostic:  0.04125315

 Doubles amplitudes (print threshold =  0.500E-01):

         I         J         SYM. A    SYM. B    A         B      T(IJ, AB)

         6         6         2         2         1         1     -0.09479138


 Total CPU time for triples:     22.27 sec


 RESULTS
 =======

  Reference energy                   -129.848929768535
  CCSD singlet pair energy             -0.325692520358
  CCSD triplet pair energy             -0.145727647963
  CCSD correlation energy              -0.471420168319

  Triples (T) contribution             -0.022110269218
  Total correlation energy             -0.493530437536

  CCSD total energy                  -130.320349936854
  CCSD[T] energy                     -130.343498831996
  CCSD-T energy                      -130.342083942005
 !CCSD(T) total energy               -130.342460206072

 Timing summary (sec):

 STEP                 CPU(USER)    SYS     CPU(TOT)    WALL
 Transformation          2.00      0.25      2.25      2.32
 CCSD iterations        43.93      3.31     47.24     47.25
 Triples                22.27      0.43     22.70     22.70

 Program statistics:

 Available memory in ccsd:               994999756
 Min. memory needed in ccsd:               1265322
 Max. memory used in ccsd:                 1555950
 Max. memory used in cckext:               2415326 (24 integral passes)



 **********************************************************************************************************************************
 DATASETS  * FILE   NREC   LENGTH (MB)   RECORD NAMES
              1      20     1044.68       500      610      700      900      950      970     1000      129      960     1100   
                                          VAR    BASINP    GEOM    SYMINP    ZMAT    AOBASIS   BASIS     P2S    ABASIS      S 
                                         1400     1410     1200     1210     1080     1600     1650     1300     1700     1380   
                                           T        V       H0       H01     AOSYM     SMH    MOLCAS    ERIS     OPER     JKOP   

              2       4        3.27       700     1000      520     2100   
                                         GEOM     BASIS   MCVARS     RHF  

 PROGRAMS   *        TOTAL   CCSD(T)        HF       INT
 CPU TIMES  *        94.79     68.23     11.98     14.49
 REAL TIME  *       103.91 SEC
 DISK USED  *         3.13 GB      
 **********************************************************************************************************************************

 CCSD(T)/aug-cc-pVQZ energy=   -130.342460206072

        CCSD(T)         HF-SCF  
   -130.34246021   -129.84892977
 **********************************************************************************************************************************
 Molpro calculation terminated
 Variable memory released
