
 Primary working directories    : /tmp/r2666/234850.maple
 Secondary working directories  : /tmp/r2666/234850.maple
 Wavefunction directory         : /ddn/home4/r2666/wfu/
 Main file repository           : /tmp/r2666/234850.maple/

 SHA1      : d5ffa45e93fdbca01ffc919aa182cfdae0147319
 NAME      : 2015.1.35
 ARCHNAME  : linux/x86_64
 FC        : /opt/intel/composer_xe_2015.1.133/bin/intel64/ifort
 BLASLIB   : -Wl,-_start-group /opt/intel/mkl/lib/intel64/libmkl_intel_ilp64.a /opt/intel/mkl/lib/intel64/libmkl_intel_thread.a /opt/intel/mkl/lib/intel64/libmkl_core.a -Wl,-_end-group
 id        : olemiss

 Nodes     nprocs
 cn022        1

 Using customized tuning parameters: mindgm=1; mindgv=20; mindgc=4; mindgr=1; noblas=0; minvec=7
 default implementation of scratch files=df  

 ***,hno CCSD(T)/TZ-F12 QFF
 memory, 995, m;
 gthresh,energy=1.d-12,zero=1.d-22,oneint=1.d-22,twoint=1.d-22;
 gthresh,optgrad=1.d-8,optstep=1.d-8;
 nocompress;
 geomtyp=xyz
 bohr
 geometry={
 3
         93        93
 N        0.0000000000       -0.1705881630       -1.1492067094
 H        0.0000000000        1.6707368249       -1.9235118187
 O        0.0000000000        0.0416191281        1.1221289370
 }
 
 basis=avqz
   {hf,maxit=500;accu,20;}
 {ccsd(t),nocheck,maxit=250;orbital,IGNORE_ERROR;}

 Variables initialized (889), CPU time= 0.01 sec
 Commands  initialized (702), CPU time= 0.00 sec, 572 directives.
 Default parameters read. Elapsed time= 0.08 sec

 Checking input...
 Passed
1


                                         ***  PROGRAM SYSTEM MOLPRO  ***
                                       Copyright, TTI GmbH Stuttgart, 2015
                                    Version 2015.1 linked Jul  9 2018 13:16:40


 **********************************************************************************************************************************
 LABEL *   hno CCSD(T)/TZ-F12 QFF                                                        
  64 bit serial version                                                                  DATE: 08-Feb-20          TIME: 17:54:20  
 **********************************************************************************************************************************

 SHA1:             d5ffa45e93fdbca01ffc919aa182cfdae0147319
 **********************************************************************************************************************************

 THRESHOLDS:

 ZERO    =  1.00D-22  ONEINT  =  1.00D-22  TWOINT  =  1.00D-22  PREFAC  =  1.00D-14  LOCALI  =  1.00D-09  EORDER  =  1.00D-04
 ENERGY  =  1.00D-12  ETEST   =  0.00D+00  EDENS   =  0.00D+00  THRDEDEF=  1.00D-06  GRADIENT=  1.00D-02  STEP    =  1.00D-03
 ORBITAL =  1.00D-05  CIVEC   =  1.00D-05  COEFF   =  1.00D-04  PRINTCI =  5.00D-02  PUNCHCI =  9.90D+01  OPTGRAD =  3.00D-04
 OPTENERG=  1.00D-06  OPTSTEP =  3.00D-04  THRGRAD =  1.00D-10  COMPRESS=  1.00D-11  VARMIN  =  1.00D-07  VARMAX  =  1.00D-03
 THRDOUB =  0.00D+00  THRDIV  =  1.00D-05  THRRED  =  1.00D-07  THRPSP  =  1.00D+00  THRDC   =  1.00D-10  THRCS   =  1.00D-10
 THRNRM  =  1.00D-08  THREQ   =  0.00D+00  THRDE   =  1.00D+00  THRREF  =  1.00D-05  SPARFAC =  1.00D+00  THRDLP  =  1.00D-07
 THRDIA  =  1.00D-10  THRDLS  =  1.00D-07  THRGPS  =  0.00D+00  THRKEX  =  0.00D+00  THRDIS  =  2.00D-01  THRVAR  =  1.00D-10
 THRLOC  =  1.00D-06  THRGAP  =  1.00D-06  THRLOCT = -1.00D+00  THRGAPT = -1.00D+00  THRORB  =  1.00D-06  THRMLTP =  0.00D+00
 THRCPQCI=  1.00D-10  KEXTA   =  0.00D+00  THRCOARS=  0.00D+00  SYMTOL  =  1.00D-06  GRADTOL =  1.00D-06  THROVL  =  1.00D-08
 THRORTH =  1.00D-08  GRID    =  1.00D-06  GRIDMAX =  1.00D-03  DTMAX   =  0.00D+00  THROCCDE=  1.00D-01  THROCCDE=  1.00D-01



 THRESHOLDS:

 ZERO    =  1.00D-22  ONEINT  =  1.00D-22  TWOINT  =  1.00D-22  PREFAC  =  1.00D-14  LOCALI  =  1.00D-09  EORDER  =  1.00D-04
 ENERGY  =  1.00D-12  ETEST   =  0.00D+00  EDENS   =  0.00D+00  THRDEDEF=  1.00D-06  GRADIENT=  1.00D-02  STEP    =  1.00D-03
 ORBITAL =  1.00D-05  CIVEC   =  1.00D-05  COEFF   =  1.00D-04  PRINTCI =  5.00D-02  PUNCHCI =  9.90D+01  OPTGRAD =  1.00D-08
 OPTENERG=  1.00D-06  OPTSTEP =  1.00D-08  THRGRAD =  1.00D-10  COMPRESS=  1.00D-11  VARMIN  =  1.00D-07  VARMAX  =  1.00D-03
 THRDOUB =  0.00D+00  THRDIV  =  1.00D-05  THRRED  =  1.00D-07  THRPSP  =  1.00D+00  THRDC   =  1.00D-10  THRCS   =  1.00D-10
 THRNRM  =  1.00D-08  THREQ   =  0.00D+00  THRDE   =  1.00D+00  THRREF  =  1.00D-05  SPARFAC =  1.00D+00  THRDLP  =  1.00D-07
 THRDIA  =  1.00D-10  THRDLS  =  1.00D-07  THRGPS  =  0.00D+00  THRKEX  =  0.00D+00  THRDIS  =  2.00D-01  THRVAR  =  1.00D-10
 THRLOC  =  1.00D-06  THRGAP  =  1.00D-06  THRLOCT = -1.00D+00  THRGAPT = -1.00D+00  THRORB  =  1.00D-06  THRMLTP =  0.00D+00
 THRCPQCI=  1.00D-10  KEXTA   =  0.00D+00  THRCOARS=  0.00D+00  SYMTOL  =  1.00D-06  GRADTOL =  1.00D-06  THROVL  =  1.00D-08
 THRORTH =  1.00D-08  GRID    =  1.00D-06  GRIDMAX =  1.00D-03  DTMAX   =  0.00D+00  THROCCDE=  1.00D-01  THROCCDE=  1.00D-01



 Input parameters for SORTINT:

 COMPRESS =    0.000000
 C_FINAL  =    1.000000
 DEBUG    =   -1.000000
 C_SORT1  =    0.000000
 C_SEWARD =    0.000000
 THRESH   =    0.000000
 IO       =  molpro                                                          
 SPRI     =    0.000000
 SETTING GEOMTYP        =    XYZ
 ZUNIT=BOHR
 

 Variable memory set to  995000000 words,  buffer space   230000 words

 SETTING BASIS          =    AVQZ


 Recomputing integrals since basis changed


 Using spherical harmonics

 Library entry N      S aug-cc-pVQZ          selected for orbital group  1
 Library entry N      P aug-cc-pVQZ          selected for orbital group  1
 Library entry N      D aug-cc-pVQZ          selected for orbital group  1
 Library entry N      F aug-cc-pVQZ          selected for orbital group  1
 Library entry N      G aug-cc-pVQZ          selected for orbital group  1
 Library entry H      S aug-cc-pVQZ          selected for orbital group  2
 Library entry H      P aug-cc-pVQZ          selected for orbital group  2
 Library entry H      D aug-cc-pVQZ          selected for orbital group  2
 Library entry H      F aug-cc-pVQZ          selected for orbital group  2
 Library entry O      S aug-cc-pVQZ          selected for orbital group  3
 Library entry O      P aug-cc-pVQZ          selected for orbital group  3
 Library entry O      D aug-cc-pVQZ          selected for orbital group  3
 Library entry O      F aug-cc-pVQZ          selected for orbital group  3
 Library entry O      G aug-cc-pVQZ          selected for orbital group  3


 PROGRAM * SEWARD (Integral evaluation for generally contracted gaussian basis sets)     Author: Roland Lindh, 1990

 Geometry written to block  1 of record 700


 Point group  Cs  



 ATOMIC COORDINATES

 NR  ATOM    CHARGE       X              Y              Z

   1  N       7.00    0.000000000   -0.170588163   -1.149206709
   2  H       1.00    0.000000000    1.670736825   -1.923511819
   3  O       8.00    0.000000000    0.041619128    1.122128937

 Bond lengths in Bohr (Angstrom)

 1-2  1.997504972  1-3  2.281227203
     ( 1.057034110)     ( 1.207173449)

 Bond angles

  2-1-3  107.46993302

 NUCLEAR CHARGE:                   16
 NUMBER OF PRIMITIVE AOS:         293
 NUMBER OF SYMMETRY AOS:          234
 NUMBER OF CONTRACTIONS:          206   ( 130A'  +  76A"  )
 NUMBER OF CORE ORBITALS:           2   (   2A'  +   0A"  )
 NUMBER OF VALENCE ORBITALS:        9   (   7A'  +   2A"  )


 NUCLEAR REPULSION ENERGY   30.36873336

 Eigenvalues of metric

         1 0.598E-04 0.147E-03 0.318E-03 0.436E-03 0.590E-03 0.690E-03 0.102E-02 0.108E-02
         2 0.823E-03 0.166E-02 0.498E-02 0.894E-02 0.102E-01 0.123E-01 0.125E-01 0.189E-01


 Contracted 2-electron integrals neglected if value below      1.0D-22

      109944317. INTEGRALS WRITTEN OUT IN   26849 BLOCKS ON RECORD 1290 OF FILE 1


 NUMBER OF SORTED TWO-ELECTRON INTEGRALS:  115283741.     BUFFER LENGTH:  32768
 NUMBER OF SEGMENTS:   8  SEGMENT LENGTH:   15998004      RECORD LENGTH: 524288

 Memory used in sort:      16.56 MW

 SORT1 READ   109944317. AND WROTE   110864464. INTEGRALS IN    322 RECORDS. CPU TIME:     2.65 SEC, REAL TIME:     3.47 SEC
 SORT2 READ   110864464. AND WROTE   115283741. INTEGRALS IN      8 RECORDS. CPU TIME:     1.53 SEC, REAL TIME:     2.03 SEC

 FILE SIZES:   FILE 1:  1780.6 MBYTE,  FILE 4:  1350.6 MBYTE,   TOTAL:   3131.2 MBYTE

 OPERATOR DM      FOR CENTER  0  COORDINATES:    0.000000    0.000000    0.000000


 **********************************************************************************************************************************
 DATASETS  * FILE   NREC   LENGTH (MB)   RECORD NAMES
              1      19      944.13       500      610      700      900      950      970     1000      129      960     1100   
                                          VAR    BASINP    GEOM    SYMINP    ZMAT    AOBASIS   BASIS     P2S    ABASIS      S 
                                         1400     1410     1200     1210     1080     1600     1650     1300     1700   
                                           T        V       H0       H01     AOSYM     SMH    MOLCAS    ERIS     OPER   

 PROGRAMS   *        TOTAL       INT
 CPU TIMES  *        14.56     14.43
 REAL TIME  *        17.44 SEC
 DISK USED  *         3.13 GB      
 **********************************************************************************************************************************


 PROGRAM * RHF-SCF (CLOSED SHELL)       Authors: W. Meyer, H.-J. Werner


 NUMBER OF ELECTRONS:       8+    8-
 CONVERGENCE THRESHOLDS:    1.00E-10 (Density)    1.00E-13 (Energy)
 MAX. NUMBER OF ITERATIONS:      500
 INTERPOLATION TYPE:            DIIS
 INTERPOLATION STEPS:              2 (START)      1 (STEP)
 LEVEL SHIFTS:                  0.00 (CLOSED)  0.00 (OPEN) 



 Orbital guess generated from atomic densities. Full valence occupancy:    9   2

 Molecular orbital dump at record        2100.2

 Initial occupancy:   7   1

 ITERATION    DDIFF          GRAD             ENERGY        2-EL.EN.            DIPOLE MOMENTS         DIIS   ORB.
    1      0.000D+00      0.000D+00      -129.79637416    153.960386    0.00000    0.58461   -1.02286    0    start
    2      0.000D+00      0.813D-02      -129.82368772    155.197146    0.00000    0.60999   -0.20314    1    diag
    3      0.655D-02      0.621D-02      -129.84674795    155.317568    0.00000    0.55170   -0.58920    2    diag
    4      0.334D-02      0.969D-03      -129.84754953    155.032463    0.00000    0.55944   -0.52819    3    diag
    5      0.604D-03      0.317D-03      -129.84767690    155.126195    0.00000    0.56476   -0.53075    4    diag
    6      0.253D-03      0.920D-04      -129.84769732    155.109946    0.00000    0.56504   -0.52655    5    diag
    7      0.970D-04      0.457D-04      -129.84770325    155.112743    0.00000    0.56629   -0.52394    6    diag
    8      0.669D-04      0.159D-04      -129.84770392    155.112041    0.00000    0.56633   -0.52292    7    diag
    9      0.257D-04      0.305D-05      -129.84770394    155.111924    0.00000    0.56629   -0.52270    8    diag
   10      0.510D-05      0.693D-06      -129.84770395    155.111906    0.00000    0.56626   -0.52267    9    orth
   11      0.997D-06      0.139D-06      -129.84770395    155.111902    0.00000    0.56625   -0.52266    9    diag
   12      0.184D-06      0.284D-07      -129.84770395    155.111902    0.00000    0.56625   -0.52266    9    diag
   13      0.403D-07      0.736D-08      -129.84770395    155.111902    0.00000    0.56625   -0.52266    9    diag
   14      0.110D-07      0.145D-08      -129.84770395    155.111902    0.00000    0.56625   -0.52266    9    diag
   15      0.201D-08      0.418D-09      -129.84770395    155.111902    0.00000    0.56625   -0.52266    9    diag
   16      0.599D-09      0.126D-09      -129.84770395    155.111902    0.00000    0.56625   -0.52266    9    diag
   17      0.115D-09      0.340D-10      -129.84770395    155.111902    0.00000    0.56625   -0.52266    9    diag
   18      0.326D-10      0.116D-10      -129.84770395    155.111902    0.00000    0.56625   -0.52266    9    diag
   19      0.157D-10      0.283D-11      -129.84770395    155.111902    0.00000    0.56625   -0.52266    9    fixocc
   20      0.519D-11      0.509D-12      -129.84770395    155.111902    0.00000    0.56625   -0.52266    9    orth
   21      0.401D-11      0.233D-12      -129.84770395    155.111902    0.00000    0.56625   -0.52266    9    diag
   22      0.361D-11      0.160D-12      -129.84770395    155.111902    0.00000    0.56625   -0.52266    9    diag
   23      0.206D-11      0.107D-12      -129.84770395    155.111902    0.00000    0.56625   -0.52266    9    diag
   24      0.115D-11      0.953D-13      -129.84770395    155.111902    0.00000    0.56625   -0.52266    0    orth

 Final occupancy:   7   1

 !RHF STATE 1.1 Energy               -129.847703946410
 Nuclear energy                        30.36873336
 One-electron energy                 -237.77238831
 Two-electron energy                   77.55595100
 Virial quotient                       -1.00176079
 !RHF STATE 1.1 Dipole moment           0.00000000     0.56624909    -0.52266231
 Dipole moment /Debye                   0.00000000     1.43916737    -1.32838808

 Orbital energies:

         1.1          2.1          3.1          4.1          5.1          6.1          7.1          8.1          9.1
    -20.653517   -15.713314    -1.530550    -0.992647    -0.746945    -0.666190    -0.430463     0.026423     0.079496

         1.2          2.2          3.2
     -0.596618     0.063612     0.110625

 HOMO      7.1    -0.430463 =     -11.7135eV
 LUMO      8.1     0.026423 =       0.7190eV
 LUMO-HOMO         0.456886 =      12.4325eV


 **********************************************************************************************************************************
 DATASETS  * FILE   NREC   LENGTH (MB)   RECORD NAMES
              1      19      944.13       500      610      700      900      950      970     1000      129      960     1100   
                                          VAR    BASINP    GEOM    SYMINP    ZMAT    AOBASIS   BASIS     P2S    ABASIS      S 
                                         1400     1410     1200     1210     1080     1600     1650     1300     1700   
                                           T        V       H0       H01     AOSYM     SMH    MOLCAS    ERIS     OPER   

              2       4        3.27       700     1000      520     2100   
                                         GEOM     BASIS   MCVARS     RHF  

 PROGRAMS   *        TOTAL        HF       INT
 CPU TIMES  *        29.45     14.88     14.43
 REAL TIME  *        35.42 SEC
 DISK USED  *         3.13 GB      
 **********************************************************************************************************************************


 PROGRAM * CCSD (Closed-shell coupled cluster)     Authors: C. Hampel, H.-J. Werner, 1991, M. Deegan, P.J. Knowles, 1992


 Convergence thresholds:  THRVAR = 1.00D-08  THRDEN = 1.00D-12

 CCSD(T)     terms to be evaluated (factor= 1.000)


 Number of core orbitals:           2 (   2   0 )
 Number of closed-shell orbitals:   6 (   5   1 )
 Number of external orbitals:     198 ( 123  75 )

 Molecular orbitals read from record     2100.2  Type=RHF/CANONICAL (state 1.1)

 Number of N-1 electron functions:               6
 Number of N-2 electron functions:              21
 Number of singly external CSFs:               690
 Number of doubly external CSFs:            362646
 Total number of CSFs:                      363337

 Length of J-op  integral file:               0.00 MB
 Length of K-op  integral file:               1.60 MB
 Length of 3-ext integral record:             0.00 MB

 Memory could be reduced to 34.67 Mwords without degradation in triples

 Integral transformation finished. Total CPU:   1.97 sec, npass=  1  Memory used:   9.53 MW

 Reference energy:                   -129.84770395

 MP2 singlet pair energy:              -0.30164846
 MP2 triplet pair energy:              -0.17044894
 MP2 correlation energy:               -0.47209740
 MP2 total energy:                   -130.31980135

 SCS-MP2 correlation energy:           -0.46803527   (PS=  1.200000  PT=  0.333333)
 SCS-MP2 total energy:               -130.31573922

 ITER.      SQ.NORM     CORR.ENERGY   TOTAL ENERGY   ENERGY CHANGE        DEN1      VAR(S)    VAR(P)  DIIS     TIME  TIME/IT
   1      1.12109648    -0.47214798  -130.31985192    -0.00005058     0.01636063  0.31D-02  0.32D-02  1  1     3.76     1.90
   2      1.13180020    -0.47211228  -130.31981623     0.00003570    -0.01250202  0.10D-03  0.49D-03  2  2     5.58     1.93
   3      1.13810985    -0.47249064  -130.32019459    -0.00037837    -0.00305208  0.49D-04  0.53D-04  3  3     7.39     1.94
   4      1.14085735    -0.47249718  -130.32020113    -0.00000654    -0.00093594  0.43D-05  0.95D-05  4  4     9.25     1.95
   5      1.14194486    -0.47252670  -130.32023064    -0.00002952    -0.00023774  0.11D-05  0.16D-05  5  5    11.09     1.95
   6      1.14229570    -0.47251198  -130.32021592     0.00001472    -0.00005052  0.11D-06  0.38D-06  6  6    12.94     1.96
   7      1.14236801    -0.47251234  -130.32021629    -0.00000036     0.00000246  0.17D-07  0.87D-07  6  1    14.72     1.96
   8      1.14239063    -0.47251264  -130.32021659    -0.00000030    -0.00000115  0.34D-08  0.17D-07  6  2    16.56     1.96
   9      1.14239570    -0.47251225  -130.32021619     0.00000040     0.00000094  0.24D-08  0.20D-08  6  4    18.38     1.96
  10      1.14239814    -0.47251262  -130.32021656    -0.00000037    -0.00000074  0.45D-09  0.23D-09  6  3    20.20     1.96
  11      1.14239786    -0.47251268  -130.32021663    -0.00000006    -0.00000011  0.14D-09  0.34D-10  6  5    22.04     1.96
  12      1.14239692    -0.47251282  -130.32021676    -0.00000014     0.00000035  0.18D-10  0.10D-10  6  6    23.89     1.96
  13      1.14239609    -0.47251286  -130.32021680    -0.00000004     0.00000021  0.56D-11  0.22D-11  6  1    25.72     1.96
  14      1.14239544    -0.47251289  -130.32021683    -0.00000003     0.00000015  0.37D-12  0.45D-12  6  4    27.57     1.96
  15      1.14239523    -0.47251290  -130.32021684    -0.00000001     0.00000003  0.85D-13  0.35D-13  6  2    29.43     1.97
  16      1.14239519    -0.47251290  -130.32021684    -0.00000000     0.00000001  0.24D-13  0.67D-14  6  3    31.27     1.97
  17      1.14239516    -0.47251290  -130.32021684    -0.00000000     0.00000001  0.41D-14  0.10D-14  6  5    33.09     1.97
  18      1.14239516    -0.47251290  -130.32021684     0.00000000     0.00000000  0.82D-15  0.27D-15  6  6    34.91     1.97
  19      1.14239516    -0.47251290  -130.32021684     0.00000000     0.00000000  0.91D-16  0.52D-16  6  1    36.72     1.97
  20      1.14239516    -0.47251290  -130.32021684     0.00000000    -0.00000000  0.92D-17  0.75D-17  6  4    38.55     1.97
  21      1.14239516    -0.47251290  -130.32021684     0.00000000    -0.00000000  0.51D-18  0.60D-18  6  3    40.42     1.97
  22      1.14239516    -0.47251290  -130.32021684     0.00000000    -0.00000000  0.13D-18  0.13D-18  6  2    42.23     1.97
  23      1.14239516    -0.47251290  -130.32021684     0.00000000     0.00000000  0.39D-19  0.46D-19  6  5    44.06     1.97
  24      1.14239516    -0.47251290  -130.32021684    -0.00000000     0.00000000  0.33D-20  0.10D-19  6  1    45.88     1.97

 Norm of t1 vector:      0.07666419      S-energy:    -0.00000000      T1 diagnostic:  0.01564901
                                                                       D1 diagnostic:  0.04200942

 Doubles amplitudes (print threshold =  0.500E-01):

         I         J         SYM. A    SYM. B    A         B      T(IJ, AB)

         6         6         2         2         1         1     -0.09816031


 Total CPU time for triples:     22.23 sec


 RESULTS
 =======

  Reference energy                   -129.847703946410
  CCSD singlet pair energy             -0.326632148417
  CCSD triplet pair energy             -0.145880748954
  CCSD correlation energy              -0.472512897372

  Triples (T) contribution             -0.022363189457
  Total correlation energy             -0.494876086829

  CCSD total energy                  -130.320216843782
  CCSD[T] energy                     -130.343651596069
  CCSD-T energy                      -130.342194447741
 !CCSD(T) total energy               -130.342580033239

 Timing summary (sec):

 STEP                 CPU(USER)    SYS     CPU(TOT)    WALL
 Transformation          1.99      0.26      2.25      2.50
 CCSD iterations        43.91      3.32     47.23     47.24
 Triples                22.23      0.42     22.65     22.66

 Program statistics:

 Available memory in ccsd:               994999756
 Min. memory needed in ccsd:               1265322
 Max. memory used in ccsd:                 1555950
 Max. memory used in cckext:               2415326 (24 integral passes)



 **********************************************************************************************************************************
 DATASETS  * FILE   NREC   LENGTH (MB)   RECORD NAMES
              1      20     1044.68       500      610      700      900      950      970     1000      129      960     1100   
                                          VAR    BASINP    GEOM    SYMINP    ZMAT    AOBASIS   BASIS     P2S    ABASIS      S 
                                         1400     1410     1200     1210     1080     1600     1650     1300     1700     1380   
                                           T        V       H0       H01     AOSYM     SMH    MOLCAS    ERIS     OPER     JKOP   

              2       4        3.27       700     1000      520     2100   
                                         GEOM     BASIS   MCVARS     RHF  

 PROGRAMS   *        TOTAL   CCSD(T)        HF       INT
 CPU TIMES  *        97.60     68.15     14.88     14.43
 REAL TIME  *       107.92 SEC
 DISK USED  *         3.13 GB      
 **********************************************************************************************************************************

 CCSD(T)/aug-cc-pVQZ energy=   -130.342580033239

        CCSD(T)         HF-SCF  
   -130.34258003   -129.84770395
 **********************************************************************************************************************************
 Molpro calculation terminated
 Variable memory released
