
 Primary working directories    : /tmp/r2666/234846.maple
 Secondary working directories  : /tmp/r2666/234846.maple
 Wavefunction directory         : /ddn/home4/r2666/wfu/
 Main file repository           : /tmp/r2666/234846.maple/

 SHA1      : d5ffa45e93fdbca01ffc919aa182cfdae0147319
 NAME      : 2015.1.35
 ARCHNAME  : linux/x86_64
 FC        : /opt/intel/composer_xe_2015.1.133/bin/intel64/ifort
 BLASLIB   : -Wl,-_start-group /opt/intel/mkl/lib/intel64/libmkl_intel_ilp64.a /opt/intel/mkl/lib/intel64/libmkl_intel_thread.a /opt/intel/mkl/lib/intel64/libmkl_core.a -Wl,-_end-group
 id        : olemiss

 Nodes     nprocs
 cn023        1

 Using customized tuning parameters: mindgm=1; mindgv=20; mindgc=4; mindgr=1; noblas=0; minvec=7
 default implementation of scratch files=df  

 ***,hno CCSD(T)/TZ-F12 QFF
 memory, 995, m;
 gthresh,energy=1.d-12,zero=1.d-22,oneint=1.d-22,twoint=1.d-22;
 gthresh,optgrad=1.d-8,optstep=1.d-8;
 nocompress;
 geomtyp=xyz
 bohr
 geometry={
 3
         89        89
 N        0.0000000000       -0.1717957784       -1.1468134723
 H        0.0000000000        1.6699623977       -1.9200876371
 O        0.0000000000        0.0436011708        1.1163115184
 }
 
 basis=avqz
   {hf,maxit=500;accu,20;}
 {ccsd(t),nocheck,maxit=250;orbital,IGNORE_ERROR;}

 Variables initialized (889), CPU time= 0.00 sec
 Commands  initialized (702), CPU time= 0.01 sec, 572 directives.
 Default parameters read. Elapsed time= 0.06 sec

 Checking input...
 Passed
1


                                         ***  PROGRAM SYSTEM MOLPRO  ***
                                       Copyright, TTI GmbH Stuttgart, 2015
                                    Version 2015.1 linked Jul  9 2018 13:16:40


 **********************************************************************************************************************************
 LABEL *   hno CCSD(T)/TZ-F12 QFF                                                        
  64 bit serial version                                                                  DATE: 08-Feb-20          TIME: 17:54:05  
 **********************************************************************************************************************************

 SHA1:             d5ffa45e93fdbca01ffc919aa182cfdae0147319
 **********************************************************************************************************************************

 THRESHOLDS:

 ZERO    =  1.00D-22  ONEINT  =  1.00D-22  TWOINT  =  1.00D-22  PREFAC  =  1.00D-14  LOCALI  =  1.00D-09  EORDER  =  1.00D-04
 ENERGY  =  1.00D-12  ETEST   =  0.00D+00  EDENS   =  0.00D+00  THRDEDEF=  1.00D-06  GRADIENT=  1.00D-02  STEP    =  1.00D-03
 ORBITAL =  1.00D-05  CIVEC   =  1.00D-05  COEFF   =  1.00D-04  PRINTCI =  5.00D-02  PUNCHCI =  9.90D+01  OPTGRAD =  3.00D-04
 OPTENERG=  1.00D-06  OPTSTEP =  3.00D-04  THRGRAD =  1.00D-10  COMPRESS=  1.00D-11  VARMIN  =  1.00D-07  VARMAX  =  1.00D-03
 THRDOUB =  0.00D+00  THRDIV  =  1.00D-05  THRRED  =  1.00D-07  THRPSP  =  1.00D+00  THRDC   =  1.00D-10  THRCS   =  1.00D-10
 THRNRM  =  1.00D-08  THREQ   =  0.00D+00  THRDE   =  1.00D+00  THRREF  =  1.00D-05  SPARFAC =  1.00D+00  THRDLP  =  1.00D-07
 THRDIA  =  1.00D-10  THRDLS  =  1.00D-07  THRGPS  =  0.00D+00  THRKEX  =  0.00D+00  THRDIS  =  2.00D-01  THRVAR  =  1.00D-10
 THRLOC  =  1.00D-06  THRGAP  =  1.00D-06  THRLOCT = -1.00D+00  THRGAPT = -1.00D+00  THRORB  =  1.00D-06  THRMLTP =  0.00D+00
 THRCPQCI=  1.00D-10  KEXTA   =  0.00D+00  THRCOARS=  0.00D+00  SYMTOL  =  1.00D-06  GRADTOL =  1.00D-06  THROVL  =  1.00D-08
 THRORTH =  1.00D-08  GRID    =  1.00D-06  GRIDMAX =  1.00D-03  DTMAX   =  0.00D+00  THROCCDE=  1.00D-01  THROCCDE=  1.00D-01



 THRESHOLDS:

 ZERO    =  1.00D-22  ONEINT  =  1.00D-22  TWOINT  =  1.00D-22  PREFAC  =  1.00D-14  LOCALI  =  1.00D-09  EORDER  =  1.00D-04
 ENERGY  =  1.00D-12  ETEST   =  0.00D+00  EDENS   =  0.00D+00  THRDEDEF=  1.00D-06  GRADIENT=  1.00D-02  STEP    =  1.00D-03
 ORBITAL =  1.00D-05  CIVEC   =  1.00D-05  COEFF   =  1.00D-04  PRINTCI =  5.00D-02  PUNCHCI =  9.90D+01  OPTGRAD =  1.00D-08
 OPTENERG=  1.00D-06  OPTSTEP =  1.00D-08  THRGRAD =  1.00D-10  COMPRESS=  1.00D-11  VARMIN  =  1.00D-07  VARMAX  =  1.00D-03
 THRDOUB =  0.00D+00  THRDIV  =  1.00D-05  THRRED  =  1.00D-07  THRPSP  =  1.00D+00  THRDC   =  1.00D-10  THRCS   =  1.00D-10
 THRNRM  =  1.00D-08  THREQ   =  0.00D+00  THRDE   =  1.00D+00  THRREF  =  1.00D-05  SPARFAC =  1.00D+00  THRDLP  =  1.00D-07
 THRDIA  =  1.00D-10  THRDLS  =  1.00D-07  THRGPS  =  0.00D+00  THRKEX  =  0.00D+00  THRDIS  =  2.00D-01  THRVAR  =  1.00D-10
 THRLOC  =  1.00D-06  THRGAP  =  1.00D-06  THRLOCT = -1.00D+00  THRGAPT = -1.00D+00  THRORB  =  1.00D-06  THRMLTP =  0.00D+00
 THRCPQCI=  1.00D-10  KEXTA   =  0.00D+00  THRCOARS=  0.00D+00  SYMTOL  =  1.00D-06  GRADTOL =  1.00D-06  THROVL  =  1.00D-08
 THRORTH =  1.00D-08  GRID    =  1.00D-06  GRIDMAX =  1.00D-03  DTMAX   =  0.00D+00  THROCCDE=  1.00D-01  THROCCDE=  1.00D-01



 Input parameters for SORTINT:

 COMPRESS =    0.000000
 C_FINAL  =    1.000000
 DEBUG    =   -1.000000
 C_SORT1  =    0.000000
 C_SEWARD =    0.000000
 THRESH   =    0.000000
 IO       =  molpro                                                          
 SPRI     =    0.000000
 SETTING GEOMTYP        =    XYZ
 ZUNIT=BOHR
 

 Variable memory set to  995000000 words,  buffer space   230000 words

 SETTING BASIS          =    AVQZ


 Recomputing integrals since basis changed


 Using spherical harmonics

 Library entry N      S aug-cc-pVQZ          selected for orbital group  1
 Library entry N      P aug-cc-pVQZ          selected for orbital group  1
 Library entry N      D aug-cc-pVQZ          selected for orbital group  1
 Library entry N      F aug-cc-pVQZ          selected for orbital group  1
 Library entry N      G aug-cc-pVQZ          selected for orbital group  1
 Library entry H      S aug-cc-pVQZ          selected for orbital group  2
 Library entry H      P aug-cc-pVQZ          selected for orbital group  2
 Library entry H      D aug-cc-pVQZ          selected for orbital group  2
 Library entry H      F aug-cc-pVQZ          selected for orbital group  2
 Library entry O      S aug-cc-pVQZ          selected for orbital group  3
 Library entry O      P aug-cc-pVQZ          selected for orbital group  3
 Library entry O      D aug-cc-pVQZ          selected for orbital group  3
 Library entry O      F aug-cc-pVQZ          selected for orbital group  3
 Library entry O      G aug-cc-pVQZ          selected for orbital group  3


 PROGRAM * SEWARD (Integral evaluation for generally contracted gaussian basis sets)     Author: Roland Lindh, 1990

 Geometry written to block  1 of record 700


 Point group  Cs  



 ATOMIC COORDINATES

 NR  ATOM    CHARGE       X              Y              Z

   1  N       7.00    0.000000000   -0.171795778   -1.146813472
   2  H       1.00    0.000000000    1.669962398   -1.920087637
   3  O       8.00    0.000000000    0.043601171    1.116311518

 Bond lengths in Bohr (Angstrom)

 1-2  1.997504972  1-3  2.273352276
     ( 1.057034110)     ( 1.203006217)

 Bond angles

  2-1-3  107.33856643

 NUCLEAR CHARGE:                   16
 NUMBER OF PRIMITIVE AOS:         293
 NUMBER OF SYMMETRY AOS:          234
 NUMBER OF CONTRACTIONS:          206   ( 130A'  +  76A"  )
 NUMBER OF CORE ORBITALS:           2   (   2A'  +   0A"  )
 NUMBER OF VALENCE ORBITALS:        9   (   7A'  +   2A"  )


 NUCLEAR REPULSION ENERGY   30.46012213

 Eigenvalues of metric

         1 0.595E-04 0.146E-03 0.317E-03 0.435E-03 0.584E-03 0.688E-03 0.101E-02 0.107E-02
         2 0.812E-03 0.165E-02 0.493E-02 0.892E-02 0.102E-01 0.122E-01 0.124E-01 0.188E-01


 Contracted 2-electron integrals neglected if value below      1.0D-22

      109944328. INTEGRALS WRITTEN OUT IN   26849 BLOCKS ON RECORD 1290 OF FILE 1


 NUMBER OF SORTED TWO-ELECTRON INTEGRALS:  115283741.     BUFFER LENGTH:  32768
 NUMBER OF SEGMENTS:   8  SEGMENT LENGTH:   15998004      RECORD LENGTH: 524288

 Memory used in sort:      16.56 MW

 SORT1 READ   109944328. AND WROTE   110864475. INTEGRALS IN    322 RECORDS. CPU TIME:     2.74 SEC, REAL TIME:     3.47 SEC
 SORT2 READ   110864475. AND WROTE   115283741. INTEGRALS IN      8 RECORDS. CPU TIME:     1.53 SEC, REAL TIME:     2.04 SEC

 FILE SIZES:   FILE 1:  1780.6 MBYTE,  FILE 4:  1350.6 MBYTE,   TOTAL:   3131.2 MBYTE

 OPERATOR DM      FOR CENTER  0  COORDINATES:    0.000000    0.000000    0.000000


 **********************************************************************************************************************************
 DATASETS  * FILE   NREC   LENGTH (MB)   RECORD NAMES
              1      19      944.13       500      610      700      900      950      970     1000      129      960     1100   
                                          VAR    BASINP    GEOM    SYMINP    ZMAT    AOBASIS   BASIS     P2S    ABASIS      S 
                                         1400     1410     1200     1210     1080     1600     1650     1300     1700   
                                           T        V       H0       H01     AOSYM     SMH    MOLCAS    ERIS     OPER   

 PROGRAMS   *        TOTAL       INT
 CPU TIMES  *        14.54     14.45
 REAL TIME  *        17.40 SEC
 DISK USED  *         3.13 GB      
 **********************************************************************************************************************************


 PROGRAM * RHF-SCF (CLOSED SHELL)       Authors: W. Meyer, H.-J. Werner


 NUMBER OF ELECTRONS:       8+    8-
 CONVERGENCE THRESHOLDS:    1.00E-10 (Density)    1.00E-13 (Energy)
 MAX. NUMBER OF ITERATIONS:      500
 INTERPOLATION TYPE:            DIIS
 INTERPOLATION STEPS:              2 (START)      1 (STEP)
 LEVEL SHIFTS:                  0.00 (CLOSED)  0.00 (OPEN) 



 Orbital guess generated from atomic densities. Full valence occupancy:    9   2

 Molecular orbital dump at record        2100.2

 Initial occupancy:   7   1

 ITERATION    DDIFF          GRAD             ENERGY        2-EL.EN.            DIPOLE MOMENTS         DIIS   ORB.
    1      0.000D+00      0.000D+00      -129.79750058    154.124623    0.00000    0.58163   -1.00902    0    start
    2      0.000D+00      0.809D-02      -129.82494120    155.368845    0.00000    0.60736   -0.20441    1    diag
    3      0.650D-02      0.613D-02      -129.84732388    155.480001    0.00000    0.54922   -0.58233    2    diag
    4      0.330D-02      0.963D-03      -129.84811558    155.198276    0.00000    0.55713   -0.52208    3    diag
    5      0.601D-03      0.315D-03      -129.84824125    155.291574    0.00000    0.56244   -0.52470    4    diag
    6      0.251D-03      0.914D-04      -129.84826137    155.275384    0.00000    0.56273   -0.52059    5    diag
    7      0.963D-04      0.453D-04      -129.84826715    155.278222    0.00000    0.56399   -0.51803    6    diag
    8      0.661D-04      0.156D-04      -129.84826778    155.277534    0.00000    0.56403   -0.51704    7    diag
    9      0.249D-04      0.297D-05      -129.84826781    155.277421    0.00000    0.56400   -0.51683    8    diag
   10      0.489D-05      0.678D-06      -129.84826781    155.277403    0.00000    0.56396   -0.51680    9    orth
   11      0.976D-06      0.137D-06      -129.84826781    155.277400    0.00000    0.56396   -0.51680    9    diag
   12      0.183D-06      0.279D-07      -129.84826781    155.277399    0.00000    0.56395   -0.51680    9    diag
   13      0.401D-07      0.719D-08      -129.84826781    155.277399    0.00000    0.56395   -0.51680    9    diag
   14      0.108D-07      0.143D-08      -129.84826781    155.277399    0.00000    0.56395   -0.51680    9    diag
   15      0.199D-08      0.415D-09      -129.84826781    155.277399    0.00000    0.56395   -0.51680    9    diag
   16      0.594D-09      0.127D-09      -129.84826781    155.277399    0.00000    0.56395   -0.51680    9    diag
   17      0.116D-09      0.351D-10      -129.84826781    155.277399    0.00000    0.56395   -0.51680    9    diag
   18      0.339D-10      0.119D-10      -129.84826781    155.277399    0.00000    0.56395   -0.51680    9    diag
   19      0.160D-10      0.293D-11      -129.84826781    155.277399    0.00000    0.56395   -0.51680    9    fixocc
   20      0.646D-11      0.512D-12      -129.84826781    155.277399    0.00000    0.56395   -0.51680    9    orth
   21      0.306D-11      0.247D-12      -129.84826781    155.277399    0.00000    0.56395   -0.51680    9    diag
   22      0.276D-11      0.179D-12      -129.84826781    155.277399    0.00000    0.56395   -0.51680    0    orth

 Final occupancy:   7   1

 !RHF STATE 1.1 Energy               -129.848267807959
 Nuclear energy                        30.46012213
 One-electron energy                 -237.94708955
 Two-electron energy                   77.63869961
 Virial quotient                       -1.00163011
 !RHF STATE 1.1 Dipole moment           0.00000000     0.56395403    -0.51679573
 Dipole moment /Debye                   0.00000000     1.43333430    -1.31347769

 Orbital energies:

         1.1          2.1          3.1          4.1          5.1          6.1          7.1          8.1          9.1
    -20.653085   -15.712623    -1.534054    -0.991593    -0.748246    -0.667355    -0.429258     0.026488     0.079511

         1.2          2.2          3.2
     -0.598633     0.064679     0.110833

 HOMO      7.1    -0.429258 =     -11.6807eV
 LUMO      8.1     0.026488 =       0.7208eV
 LUMO-HOMO         0.455745 =      12.4015eV


 **********************************************************************************************************************************
 DATASETS  * FILE   NREC   LENGTH (MB)   RECORD NAMES
              1      19      944.13       500      610      700      900      950      970     1000      129      960     1100   
                                          VAR    BASINP    GEOM    SYMINP    ZMAT    AOBASIS   BASIS     P2S    ABASIS      S 
                                         1400     1410     1200     1210     1080     1600     1650     1300     1700   
                                           T        V       H0       H01     AOSYM     SMH    MOLCAS    ERIS     OPER   

              2       4        3.27       700     1000      520     2100   
                                         GEOM     BASIS   MCVARS     RHF  

 PROGRAMS   *        TOTAL        HF       INT
 CPU TIMES  *        28.35     13.81     14.45
 REAL TIME  *        33.64 SEC
 DISK USED  *         3.13 GB      
 **********************************************************************************************************************************


 PROGRAM * CCSD (Closed-shell coupled cluster)     Authors: C. Hampel, H.-J. Werner, 1991, M. Deegan, P.J. Knowles, 1992


 Convergence thresholds:  THRVAR = 1.00D-08  THRDEN = 1.00D-12

 CCSD(T)     terms to be evaluated (factor= 1.000)


 Number of core orbitals:           2 (   2   0 )
 Number of closed-shell orbitals:   6 (   5   1 )
 Number of external orbitals:     198 ( 123  75 )

 Molecular orbitals read from record     2100.2  Type=RHF/CANONICAL (state 1.1)

 Number of N-1 electron functions:               6
 Number of N-2 electron functions:              21
 Number of singly external CSFs:               690
 Number of doubly external CSFs:            362646
 Total number of CSFs:                      363337

 Length of J-op  integral file:               0.00 MB
 Length of K-op  integral file:               1.60 MB
 Length of 3-ext integral record:             0.00 MB

 Memory could be reduced to 34.67 Mwords without degradation in triples

 Integral transformation finished. Total CPU:   1.99 sec, npass=  1  Memory used:   9.53 MW

 Reference energy:                   -129.84826781

 MP2 singlet pair energy:              -0.30122393
 MP2 triplet pair energy:              -0.17016498
 MP2 correlation energy:               -0.47138891
 MP2 total energy:                   -130.31965671

 SCS-MP2 correlation energy:           -0.46734914   (PS=  1.200000  PT=  0.333333)
 SCS-MP2 total energy:               -130.31561695

 ITER.      SQ.NORM     CORR.ENERGY   TOTAL ENERGY   ENERGY CHANGE        DEN1      VAR(S)    VAR(P)  DIIS     TIME  TIME/IT
   1      1.12064731    -0.47160476  -130.31987257    -0.00021585     0.01601372  0.31D-02  0.31D-02  1  1     3.80     2.51
   2      1.13124607    -0.47160434  -130.31987215     0.00000042    -0.01239474  0.10D-03  0.49D-03  2  2     5.58     2.24
   3      1.13747110    -0.47197607  -130.32024388    -0.00037173    -0.00302607  0.47D-04  0.52D-04  3  3     7.42     2.15
   4      1.14016911    -0.47198254  -130.32025035    -0.00000646    -0.00092278  0.42D-05  0.93D-05  4  4     9.28     2.10
   5      1.14122775    -0.47201125  -130.32027905    -0.00002871    -0.00023182  0.11D-05  0.16D-05  5  5    11.12     2.08
   6      1.14157095    -0.47199702  -130.32026483     0.00001423    -0.00004933  0.11D-06  0.38D-06  6  6    12.96     2.06
   7      1.14164284    -0.47199734  -130.32026515    -0.00000032     0.00000228  0.18D-07  0.85D-07  6  1    14.82     2.05
   8      1.14166523    -0.47199768  -130.32026548    -0.00000034    -0.00000111  0.34D-08  0.17D-07  6  2    16.65     2.04
   9      1.14167028    -0.47199729  -130.32026510     0.00000038     0.00000090  0.24D-08  0.19D-08  6  4    18.44     2.03
  10      1.14167265    -0.47199766  -130.32026547    -0.00000037    -0.00000071  0.43D-09  0.22D-09  6  3    20.24     2.02
  11      1.14167236    -0.47199772  -130.32026553    -0.00000006    -0.00000010  0.14D-09  0.32D-10  6  5    22.07     2.02
  12      1.14167143    -0.47199785  -130.32026566    -0.00000013     0.00000034  0.17D-10  0.98D-11  6  6    23.90     2.01
  13      1.14167063    -0.47199789  -130.32026570    -0.00000004     0.00000021  0.54D-11  0.21D-11  6  1    25.75     2.01
  14      1.14167000    -0.47199792  -130.32026573    -0.00000003     0.00000014  0.37D-12  0.42D-12  6  4    27.57     2.01
  15      1.14166981    -0.47199793  -130.32026574    -0.00000001     0.00000003  0.84D-13  0.32D-13  6  2    29.45     2.00
  16      1.14166976    -0.47199793  -130.32026574    -0.00000000     0.00000001  0.24D-13  0.63D-14  6  3    31.32     2.00
  17      1.14166974    -0.47199793  -130.32026574    -0.00000000     0.00000001  0.40D-14  0.10D-14  6  5    33.16     2.00
  18      1.14166974    -0.47199793  -130.32026574     0.00000000     0.00000000  0.78D-15  0.26D-15  6  6    35.00     2.00
  19      1.14166974    -0.47199793  -130.32026574     0.00000000     0.00000000  0.84D-16  0.51D-16  6  1    36.83     2.00
  20      1.14166974    -0.47199793  -130.32026574     0.00000000    -0.00000000  0.87D-17  0.72D-17  6  4    38.63     2.00
  21      1.14166974    -0.47199793  -130.32026574     0.00000000    -0.00000000  0.50D-18  0.58D-18  6  3    40.46     1.99
  22      1.14166974    -0.47199793  -130.32026574     0.00000000    -0.00000000  0.13D-18  0.13D-18  6  2    42.28     1.99
  23      1.14166974    -0.47199793  -130.32026574     0.00000000    -0.00000000  0.99D-20  0.28D-19  6  1    44.07     1.99
  24      1.14166974    -0.47199793  -130.32026574    -0.00000000     0.00000000  0.11D-20  0.56D-20  6  5    45.89     1.99
  25      1.14166974    -0.47199793  -130.32026574     0.00000000     0.00000000  0.79D-21  0.14D-20  6  6    47.74     1.99

 Norm of t1 vector:      0.07595096      S-energy:     0.00000000      T1 diagnostic:  0.01550342
                                                                       D1 diagnostic:  0.04145463

 Doubles amplitudes (print threshold =  0.500E-01):

         I         J         SYM. A    SYM. B    A         B      T(IJ, AB)

         6         6         2         2         1         1     -0.09586253


 Total CPU time for triples:     22.20 sec


 RESULTS
 =======

  Reference energy                   -129.848267807959
  CCSD singlet pair energy             -0.326185619229
  CCSD triplet pair energy             -0.145812310693
  CCSD correlation energy              -0.471997929922

  Triples (T) contribution             -0.022230359841
  Total correlation energy             -0.494228289763

  CCSD total energy                  -130.320265737881
  CCSD[T] energy                     -130.343548960648
  CCSD-T energy                      -130.342115062114
 !CCSD(T) total energy               -130.342496097722

 Timing summary (sec):

 STEP                 CPU(USER)    SYS     CPU(TOT)    WALL
 Transformation          2.01      0.24      2.25      2.70
 CCSD iterations        45.73      3.41     49.14     49.76
 Triples                22.20      0.44     22.64     22.64

 Program statistics:

 Available memory in ccsd:               994999756
 Min. memory needed in ccsd:               1265322
 Max. memory used in ccsd:                 1555950
 Max. memory used in cckext:               2415326 (25 integral passes)



 **********************************************************************************************************************************
 DATASETS  * FILE   NREC   LENGTH (MB)   RECORD NAMES
              1      20     1044.68       500      610      700      900      950      970     1000      129      960     1100   
                                          VAR    BASINP    GEOM    SYMINP    ZMAT    AOBASIS   BASIS     P2S    ABASIS      S 
                                         1400     1410     1200     1210     1080     1600     1650     1300     1700     1380   
                                           T        V       H0       H01     AOSYM     SMH    MOLCAS    ERIS     OPER     JKOP   

              2       4        3.27       700     1000      520     2100   
                                         GEOM     BASIS   MCVARS     RHF  

 PROGRAMS   *        TOTAL   CCSD(T)        HF       INT
 CPU TIMES  *        98.32     69.97     13.81     14.45
 REAL TIME  *       108.78 SEC
 DISK USED  *         3.13 GB      
 **********************************************************************************************************************************

 CCSD(T)/aug-cc-pVQZ energy=   -130.342496097722

        CCSD(T)         HF-SCF  
   -130.34249610   -129.84826781
 **********************************************************************************************************************************
 Molpro calculation terminated
 Variable memory released
