
 Primary working directories    : /tmp/r2666/234868.maple
 Secondary working directories  : /tmp/r2666/234868.maple
 Wavefunction directory         : /ddn/home4/r2666/wfu/
 Main file repository           : /tmp/r2666/234868.maple/

 SHA1      : d5ffa45e93fdbca01ffc919aa182cfdae0147319
 NAME      : 2015.1.35
 ARCHNAME  : linux/x86_64
 FC        : /opt/intel/composer_xe_2015.1.133/bin/intel64/ifort
 BLASLIB   : -Wl,-_start-group /opt/intel/mkl/lib/intel64/libmkl_intel_ilp64.a /opt/intel/mkl/lib/intel64/libmkl_intel_thread.a /opt/intel/mkl/lib/intel64/libmkl_core.a -Wl,-_end-group
 id        : olemiss

 Nodes     nprocs
 cn092        1

 Using customized tuning parameters: mindgm=1; mindgv=20; mindgc=4; mindgr=1; noblas=0; minvec=7
 default implementation of scratch files=df  

 ***,hno CCSD(T)/TZ-F12 QFF
 memory, 995, m;
 gthresh,energy=1.d-12,zero=1.d-22,oneint=1.d-22,twoint=1.d-22;
 gthresh,optgrad=1.d-8,optstep=1.d-8;
 nocompress;
 geomtyp=xyz
 bohr
 geometry={
 3
        111       111
 N        0.0000000000       -0.1742268671       -1.1393007636
 H        0.0000000000        1.6735748911       -1.9225576965
 O        0.0000000000        0.0424197660        1.1112688691
 }
 
 basis=avqz
   {hf,maxit=500;accu,20;}
 {ccsd(t),nocheck,maxit=250;orbital,IGNORE_ERROR;}

 Variables initialized (889), CPU time= 0.00 sec
 Commands  initialized (702), CPU time= 0.01 sec, 572 directives.
 Default parameters read. Elapsed time= 0.05 sec

 Checking input...
 Passed
1


                                         ***  PROGRAM SYSTEM MOLPRO  ***
                                       Copyright, TTI GmbH Stuttgart, 2015
                                    Version 2015.1 linked Jul  9 2018 13:16:40


 **********************************************************************************************************************************
 LABEL *   hno CCSD(T)/TZ-F12 QFF                                                        
  64 bit serial version                                                                  DATE: 08-Feb-20          TIME: 17:55:04  
 **********************************************************************************************************************************

 SHA1:             d5ffa45e93fdbca01ffc919aa182cfdae0147319
 **********************************************************************************************************************************

 THRESHOLDS:

 ZERO    =  1.00D-22  ONEINT  =  1.00D-22  TWOINT  =  1.00D-22  PREFAC  =  1.00D-14  LOCALI  =  1.00D-09  EORDER  =  1.00D-04
 ENERGY  =  1.00D-12  ETEST   =  0.00D+00  EDENS   =  0.00D+00  THRDEDEF=  1.00D-06  GRADIENT=  1.00D-02  STEP    =  1.00D-03
 ORBITAL =  1.00D-05  CIVEC   =  1.00D-05  COEFF   =  1.00D-04  PRINTCI =  5.00D-02  PUNCHCI =  9.90D+01  OPTGRAD =  3.00D-04
 OPTENERG=  1.00D-06  OPTSTEP =  3.00D-04  THRGRAD =  1.00D-10  COMPRESS=  1.00D-11  VARMIN  =  1.00D-07  VARMAX  =  1.00D-03
 THRDOUB =  0.00D+00  THRDIV  =  1.00D-05  THRRED  =  1.00D-07  THRPSP  =  1.00D+00  THRDC   =  1.00D-10  THRCS   =  1.00D-10
 THRNRM  =  1.00D-08  THREQ   =  0.00D+00  THRDE   =  1.00D+00  THRREF  =  1.00D-05  SPARFAC =  1.00D+00  THRDLP  =  1.00D-07
 THRDIA  =  1.00D-10  THRDLS  =  1.00D-07  THRGPS  =  0.00D+00  THRKEX  =  0.00D+00  THRDIS  =  2.00D-01  THRVAR  =  1.00D-10
 THRLOC  =  1.00D-06  THRGAP  =  1.00D-06  THRLOCT = -1.00D+00  THRGAPT = -1.00D+00  THRORB  =  1.00D-06  THRMLTP =  0.00D+00
 THRCPQCI=  1.00D-10  KEXTA   =  0.00D+00  THRCOARS=  0.00D+00  SYMTOL  =  1.00D-06  GRADTOL =  1.00D-06  THROVL  =  1.00D-08
 THRORTH =  1.00D-08  GRID    =  1.00D-06  GRIDMAX =  1.00D-03  DTMAX   =  0.00D+00  THROCCDE=  1.00D-01  THROCCDE=  1.00D-01



 THRESHOLDS:

 ZERO    =  1.00D-22  ONEINT  =  1.00D-22  TWOINT  =  1.00D-22  PREFAC  =  1.00D-14  LOCALI  =  1.00D-09  EORDER  =  1.00D-04
 ENERGY  =  1.00D-12  ETEST   =  0.00D+00  EDENS   =  0.00D+00  THRDEDEF=  1.00D-06  GRADIENT=  1.00D-02  STEP    =  1.00D-03
 ORBITAL =  1.00D-05  CIVEC   =  1.00D-05  COEFF   =  1.00D-04  PRINTCI =  5.00D-02  PUNCHCI =  9.90D+01  OPTGRAD =  1.00D-08
 OPTENERG=  1.00D-06  OPTSTEP =  1.00D-08  THRGRAD =  1.00D-10  COMPRESS=  1.00D-11  VARMIN  =  1.00D-07  VARMAX  =  1.00D-03
 THRDOUB =  0.00D+00  THRDIV  =  1.00D-05  THRRED  =  1.00D-07  THRPSP  =  1.00D+00  THRDC   =  1.00D-10  THRCS   =  1.00D-10
 THRNRM  =  1.00D-08  THREQ   =  0.00D+00  THRDE   =  1.00D+00  THRREF  =  1.00D-05  SPARFAC =  1.00D+00  THRDLP  =  1.00D-07
 THRDIA  =  1.00D-10  THRDLS  =  1.00D-07  THRGPS  =  0.00D+00  THRKEX  =  0.00D+00  THRDIS  =  2.00D-01  THRVAR  =  1.00D-10
 THRLOC  =  1.00D-06  THRGAP  =  1.00D-06  THRLOCT = -1.00D+00  THRGAPT = -1.00D+00  THRORB  =  1.00D-06  THRMLTP =  0.00D+00
 THRCPQCI=  1.00D-10  KEXTA   =  0.00D+00  THRCOARS=  0.00D+00  SYMTOL  =  1.00D-06  GRADTOL =  1.00D-06  THROVL  =  1.00D-08
 THRORTH =  1.00D-08  GRID    =  1.00D-06  GRIDMAX =  1.00D-03  DTMAX   =  0.00D+00  THROCCDE=  1.00D-01  THROCCDE=  1.00D-01



 Input parameters for SORTINT:

 COMPRESS =    0.000000
 C_FINAL  =    1.000000
 DEBUG    =   -1.000000
 C_SORT1  =    0.000000
 C_SEWARD =    0.000000
 THRESH   =    0.000000
 IO       =  molpro                                                          
 SPRI     =    0.000000
 SETTING GEOMTYP        =    XYZ
 ZUNIT=BOHR
 

 Variable memory set to  995000000 words,  buffer space   230000 words

 SETTING BASIS          =    AVQZ


 Recomputing integrals since basis changed


 Using spherical harmonics

 Library entry N      S aug-cc-pVQZ          selected for orbital group  1
 Library entry N      P aug-cc-pVQZ          selected for orbital group  1
 Library entry N      D aug-cc-pVQZ          selected for orbital group  1
 Library entry N      F aug-cc-pVQZ          selected for orbital group  1
 Library entry N      G aug-cc-pVQZ          selected for orbital group  1
 Library entry H      S aug-cc-pVQZ          selected for orbital group  2
 Library entry H      P aug-cc-pVQZ          selected for orbital group  2
 Library entry H      D aug-cc-pVQZ          selected for orbital group  2
 Library entry H      F aug-cc-pVQZ          selected for orbital group  2
 Library entry O      S aug-cc-pVQZ          selected for orbital group  3
 Library entry O      P aug-cc-pVQZ          selected for orbital group  3
 Library entry O      D aug-cc-pVQZ          selected for orbital group  3
 Library entry O      F aug-cc-pVQZ          selected for orbital group  3
 Library entry O      G aug-cc-pVQZ          selected for orbital group  3


 PROGRAM * SEWARD (Integral evaluation for generally contracted gaussian basis sets)     Author: Roland Lindh, 1990

 Geometry written to block  1 of record 700


 Point group  Cs  



 ATOMIC COORDINATES

 NR  ATOM    CHARGE       X              Y              Z

   1  N       7.00    0.000000000   -0.174226867   -1.139300764
   2  H       1.00    0.000000000    1.673574891   -1.922557696
   3  O       8.00    0.000000000    0.042419766    1.111268869

 Bond lengths in Bohr (Angstrom)

 1-2  2.006953602  1-3  2.260973117
     ( 1.062034110)     ( 1.196455448)

 Bond angles

  2-1-3  107.47287585

 NUCLEAR CHARGE:                   16
 NUMBER OF PRIMITIVE AOS:         293
 NUMBER OF SYMMETRY AOS:          234
 NUMBER OF CONTRACTIONS:          206   ( 130A'  +  76A"  )
 NUMBER OF CORE ORBITALS:           2   (   2A'  +   0A"  )
 NUMBER OF VALENCE ORBITALS:        9   (   7A'  +   2A"  )


 NUCLEAR REPULSION ENERGY   30.57849425

 Eigenvalues of metric

         1 0.593E-04 0.146E-03 0.315E-03 0.434E-03 0.574E-03 0.691E-03 0.101E-02 0.107E-02
         2 0.797E-03 0.168E-02 0.488E-02 0.889E-02 0.103E-01 0.120E-01 0.123E-01 0.188E-01


 Contracted 2-electron integrals neglected if value below      1.0D-22

      109945098. INTEGRALS WRITTEN OUT IN   26849 BLOCKS ON RECORD 1290 OF FILE 1


 NUMBER OF SORTED TWO-ELECTRON INTEGRALS:  115283741.     BUFFER LENGTH:  32768
 NUMBER OF SEGMENTS:   8  SEGMENT LENGTH:   15998004      RECORD LENGTH: 524288

 Memory used in sort:      16.56 MW

 SORT1 READ   109945098. AND WROTE   110865265. INTEGRALS IN    322 RECORDS. CPU TIME:     1.89 SEC, REAL TIME:     2.64 SEC
 SORT2 READ   110865265. AND WROTE   115283741. INTEGRALS IN      8 RECORDS. CPU TIME:     1.26 SEC, REAL TIME:     1.80 SEC

 FILE SIZES:   FILE 1:  1780.6 MBYTE,  FILE 4:  1350.6 MBYTE,   TOTAL:   3131.2 MBYTE

 OPERATOR DM      FOR CENTER  0  COORDINATES:    0.000000    0.000000    0.000000


 **********************************************************************************************************************************
 DATASETS  * FILE   NREC   LENGTH (MB)   RECORD NAMES
              1      19      944.14       500      610      700      900      950      970     1000      129      960     1100   
                                          VAR    BASINP    GEOM    SYMINP    ZMAT    AOBASIS   BASIS     P2S    ABASIS      S 
                                         1400     1410     1200     1210     1080     1600     1650     1300     1700   
                                           T        V       H0       H01     AOSYM     SMH    MOLCAS    ERIS     OPER   

 PROGRAMS   *        TOTAL       INT
 CPU TIMES  *        10.81     10.73
 REAL TIME  *        13.61 SEC
 DISK USED  *         3.13 GB      
 **********************************************************************************************************************************


 PROGRAM * RHF-SCF (CLOSED SHELL)       Authors: W. Meyer, H.-J. Werner


 NUMBER OF ELECTRONS:       8+    8-
 CONVERGENCE THRESHOLDS:    1.00E-10 (Density)    1.00E-13 (Energy)
 MAX. NUMBER OF ITERATIONS:      500
 INTERPOLATION TYPE:            DIIS
 INTERPOLATION STEPS:              2 (START)      1 (STEP)
 LEVEL SHIFTS:                  0.00 (CLOSED)  0.00 (OPEN) 



 Orbital guess generated from atomic densities. Full valence occupancy:    9   2

 Molecular orbital dump at record        2100.2

 Initial occupancy:   7   1

 ITERATION    DDIFF          GRAD             ENERGY        2-EL.EN.            DIPOLE MOMENTS         DIIS   ORB.
    1      0.000D+00      0.000D+00      -129.79878477    154.331005    0.00000    0.57636   -0.98832    0    start
    2      0.000D+00      0.805D-02      -129.82638629    155.594456    0.00000    0.60232   -0.20513    1    diag
    3      0.642D-02      0.602D-02      -129.84792785    155.689285    0.00000    0.54467   -0.57197    2    diag
    4      0.325D-02      0.955D-03      -129.84870578    155.412042    0.00000    0.55263   -0.51283    3    diag
    5      0.596D-03      0.312D-03      -129.84882960    155.505180    0.00000    0.55802   -0.51563    4    diag
    6      0.249D-03      0.909D-04      -129.84884943    155.489025    0.00000    0.55835   -0.51163    5    diag
    7      0.955D-04      0.447D-04      -129.84885503    155.491952    0.00000    0.55965   -0.50918    6    diag
    8      0.652D-04      0.151D-04      -129.84885561    155.491285    0.00000    0.55970   -0.50824    7    diag
    9      0.238D-04      0.286D-05      -129.84885563    155.491175    0.00000    0.55966   -0.50803    8    diag
   10      0.463D-05      0.663D-06      -129.84885563    155.491156    0.00000    0.55963   -0.50800    9    orth
   11      0.953D-06      0.136D-06      -129.84885563    155.491153    0.00000    0.55962   -0.50800    9    diag
   12      0.183D-06      0.275D-07      -129.84885563    155.491152    0.00000    0.55962   -0.50800    9    diag
   13      0.404D-07      0.705D-08      -129.84885563    155.491152    0.00000    0.55962   -0.50800    9    diag
   14      0.108D-07      0.143D-08      -129.84885563    155.491152    0.00000    0.55962   -0.50800    9    diag
   15      0.202D-08      0.420D-09      -129.84885563    155.491152    0.00000    0.55962   -0.50800    9    diag
   16      0.599D-09      0.131D-09      -129.84885563    155.491152    0.00000    0.55962   -0.50800    9    diag
   17      0.121D-09      0.369D-10      -129.84885563    155.491152    0.00000    0.55962   -0.50800    9    diag
   18      0.361D-10      0.124D-10      -129.84885563    155.491152    0.00000    0.55962   -0.50800    9    diag
   19      0.166D-10      0.305D-11      -129.84885563    155.491152    0.00000    0.55962   -0.50800    9    fixocc
   20      0.682D-11      0.517D-12      -129.84885563    155.491152    0.00000    0.55962   -0.50800    0    orth

 Final occupancy:   7   1

 !RHF STATE 1.1 Energy               -129.848855632242
 Nuclear energy                        30.57849425
 One-electron energy                 -238.17292594
 Two-electron energy                   77.74557606
 Virial quotient                       -1.00148818
 !RHF STATE 1.1 Dipole moment           0.00000000     0.55961939    -0.50799862
 Dipole moment /Debye                   0.00000000     1.42231744    -1.29111912

 Orbital energies:

         1.1          2.1          3.1          4.1          5.1          6.1          7.1          8.1          9.1
    -20.652617   -15.712170    -1.539411    -0.988933    -0.749752    -0.669289    -0.426829     0.026563     0.079521

         1.2          2.2          3.2
     -0.601886     0.066278     0.111265

 HOMO      7.1    -0.426829 =     -11.6146eV
 LUMO      8.1     0.026563 =       0.7228eV
 LUMO-HOMO         0.453392 =      12.3374eV


 **********************************************************************************************************************************
 DATASETS  * FILE   NREC   LENGTH (MB)   RECORD NAMES
              1      19      944.14       500      610      700      900      950      970     1000      129      960     1100   
                                          VAR    BASINP    GEOM    SYMINP    ZMAT    AOBASIS   BASIS     P2S    ABASIS      S 
                                         1400     1410     1200     1210     1080     1600     1650     1300     1700   
                                           T        V       H0       H01     AOSYM     SMH    MOLCAS    ERIS     OPER   

              2       4        3.27       700     1000      520     2100   
                                         GEOM     BASIS   MCVARS     RHF  

 PROGRAMS   *        TOTAL        HF       INT
 CPU TIMES  *        20.78      9.97     10.73
 REAL TIME  *        25.90 SEC
 DISK USED  *         3.13 GB      
 **********************************************************************************************************************************


 PROGRAM * CCSD (Closed-shell coupled cluster)     Authors: C. Hampel, H.-J. Werner, 1991, M. Deegan, P.J. Knowles, 1992


 Convergence thresholds:  THRVAR = 1.00D-08  THRDEN = 1.00D-12

 CCSD(T)     terms to be evaluated (factor= 1.000)


 Number of core orbitals:           2 (   2   0 )
 Number of closed-shell orbitals:   6 (   5   1 )
 Number of external orbitals:     198 ( 123  75 )

 Molecular orbitals read from record     2100.2  Type=RHF/CANONICAL (state 1.1)

 Number of N-1 electron functions:               6
 Number of N-2 electron functions:              21
 Number of singly external CSFs:               690
 Number of doubly external CSFs:            362646
 Total number of CSFs:                      363337

 Length of J-op  integral file:               0.00 MB
 Length of K-op  integral file:               1.60 MB
 Length of 3-ext integral record:             0.00 MB

 Memory could be reduced to 34.67 Mwords without degradation in triples

 Integral transformation finished. Total CPU:   1.41 sec, npass=  1  Memory used:   9.53 MW

 Reference energy:                   -129.84885563

 MP2 singlet pair energy:              -0.30067631
 MP2 triplet pair energy:              -0.16979348
 MP2 correlation energy:               -0.47046979
 MP2 total energy:                   -130.31932542

 SCS-MP2 correlation energy:           -0.46646085   (PS=  1.200000  PT=  0.333333)
 SCS-MP2 total energy:               -130.31531648

 ITER.      SQ.NORM     CORR.ENERGY   TOTAL ENERGY   ENERGY CHANGE        DEN1      VAR(S)    VAR(P)  DIIS     TIME  TIME/IT
   1      1.12012880    -0.47092770  -130.31978333    -0.00045791     0.01554418  0.30D-02  0.31D-02  1  1     2.62     1.36
   2      1.13060363    -0.47097615  -130.31983178    -0.00004845    -0.01226092  0.98D-04  0.48D-03  2  2     3.92     1.40
   3      1.13673324    -0.47134171  -130.32019734    -0.00036556    -0.00299678  0.46D-04  0.51D-04  3  3     5.19     1.41
   4      1.13936918    -0.47134716  -130.32020279    -0.00000545    -0.00090707  0.41D-05  0.91D-05  4  4     6.51     1.41
   5      1.14039690    -0.47137503  -130.32023066    -0.00002787    -0.00022546  0.11D-05  0.16D-05  5  5     7.78     1.42
   6      1.14073269    -0.47136148  -130.32021711     0.00001355    -0.00004797  0.11D-06  0.38D-06  6  6     9.06     1.42
   7      1.14080555    -0.47136163  -130.32021726    -0.00000015     0.00000187  0.19D-07  0.83D-07  6  1    10.34     1.42
   8      1.14082812    -0.47136201  -130.32021764    -0.00000038    -0.00000112  0.35D-08  0.16D-07  6  2    11.63     1.43
   9      1.14083646    -0.47136150  -130.32021713     0.00000052    -0.00000041  0.20D-08  0.16D-08  6  3    12.92     1.43
  10      1.14083212    -0.47136221  -130.32021784    -0.00000072     0.00000146  0.28D-09  0.25D-09  6  5    14.19     1.43
  11      1.14083370    -0.47136218  -130.32021781     0.00000004    -0.00000028  0.83D-10  0.21D-10  6  4    15.45     1.43
  12      1.14083330    -0.47136224  -130.32021787    -0.00000006     0.00000003  0.16D-10  0.54D-11  6  6    16.72     1.43
  13      1.14083313    -0.47136224  -130.32021787    -0.00000000    -0.00000004  0.30D-11  0.75D-12  6  1    18.02     1.43
  14      1.14083288    -0.47136225  -130.32021788    -0.00000001     0.00000003  0.41D-12  0.15D-12  6  3    19.33     1.43
  15      1.14083281    -0.47136225  -130.32021789    -0.00000000     0.00000001  0.11D-12  0.20D-13  6  2    20.60     1.43
  16      1.14083280    -0.47136225  -130.32021789     0.00000000     0.00000000  0.26D-13  0.91D-14  6  4    21.89     1.43
  17      1.14083280    -0.47136225  -130.32021789    -0.00000000    -0.00000000  0.12D-14  0.96D-15  6  5    23.16     1.43
  18      1.14083281    -0.47136225  -130.32021789     0.00000000    -0.00000000  0.22D-15  0.22D-15  6  6    24.47     1.43
  19      1.14083281    -0.47136225  -130.32021789     0.00000000    -0.00000000  0.44D-16  0.22D-16  6  1    25.76     1.43
  20      1.14083281    -0.47136225  -130.32021789     0.00000000    -0.00000000  0.74D-17  0.44D-17  6  2    27.07     1.43
  21      1.14083281    -0.47136225  -130.32021789    -0.00000000     0.00000000  0.96D-18  0.61D-18  6  3    28.37     1.44
  22      1.14083281    -0.47136225  -130.32021789    -0.00000000     0.00000000  0.14D-18  0.11D-18  6  5    29.72     1.44
  23      1.14083281    -0.47136225  -130.32021789    -0.00000000     0.00000000  0.21D-19  0.15D-19  6  4    31.00     1.44
  24      1.14083281    -0.47136225  -130.32021789    -0.00000000     0.00000000  0.47D-20  0.20D-20  6  1    32.24     1.44
  25      1.14083281    -0.47136225  -130.32021789     0.00000000    -0.00000000  0.10D-20  0.48D-21  6  6    33.49     1.44
  26      1.14083281    -0.47136225  -130.32021789     0.00000000    -0.00000000  0.24D-21  0.17D-21  6  2    34.72     1.44

 Norm of t1 vector:      0.07516167      S-energy:     0.00000000      T1 diagnostic:  0.01534231
                                                                       D1 diagnostic:  0.04063310

 Doubles amplitudes (print threshold =  0.500E-01):

         I         J         SYM. A    SYM. B    A         B      T(IJ, AB)

         6         6         2         2         1         1     -0.09219328


 Total CPU time for triples:     16.43 sec


 RESULTS
 =======

  Reference energy                   -129.848855632242
  CCSD singlet pair energy             -0.325632651057
  CCSD triplet pair energy             -0.145729602568
  CCSD correlation energy              -0.471362253624

  Triples (T) contribution             -0.022062620931
  Total correlation energy             -0.493424874555

  CCSD total energy                  -130.320217885866
  CCSD[T] energy                     -130.343311663049
  CCSD-T energy                      -130.341904220665
 !CCSD(T) total energy               -130.342280506797

 Timing summary (sec):

 STEP                 CPU(USER)    SYS     CPU(TOT)    WALL
 Transformation          1.43      0.26      1.69      1.70
 CCSD iterations        33.29      4.06     37.35     37.36
 Triples                16.43      0.44     16.87     16.87

 Program statistics:

 Available memory in ccsd:               994999756
 Min. memory needed in ccsd:               1265322
 Max. memory used in ccsd:                 1555950
 Max. memory used in cckext:               2415326 (26 integral passes)



 **********************************************************************************************************************************
 DATASETS  * FILE   NREC   LENGTH (MB)   RECORD NAMES
              1      20     1044.69       500      610      700      900      950      970     1000      129      960     1100   
                                          VAR    BASINP    GEOM    SYMINP    ZMAT    AOBASIS   BASIS     P2S    ABASIS      S 
                                         1400     1410     1200     1210     1080     1600     1650     1300     1700     1380   
                                           T        V       H0       H01     AOSYM     SMH    MOLCAS    ERIS     OPER     JKOP   

              2       4        3.27       700     1000      520     2100   
                                         GEOM     BASIS   MCVARS     RHF  

 PROGRAMS   *        TOTAL   CCSD(T)        HF       INT
 CPU TIMES  *        71.95     51.16      9.97     10.73
 REAL TIME  *        81.85 SEC
 DISK USED  *         3.13 GB      
 **********************************************************************************************************************************

 CCSD(T)/aug-cc-pVQZ energy=   -130.342280506797

        CCSD(T)         HF-SCF  
   -130.34228051   -129.84885563
 **********************************************************************************************************************************
 Molpro calculation terminated
 Variable memory released
