
 Primary working directories    : /tmp/r2666/234773.maple
 Secondary working directories  : /tmp/r2666/234773.maple
 Wavefunction directory         : /ddn/home4/r2666/wfu/
 Main file repository           : /tmp/r2666/234773.maple/

 SHA1      : d5ffa45e93fdbca01ffc919aa182cfdae0147319
 NAME      : 2015.1.35
 ARCHNAME  : linux/x86_64
 FC        : /opt/intel/composer_xe_2015.1.133/bin/intel64/ifort
 BLASLIB   : -Wl,-_start-group /opt/intel/mkl/lib/intel64/libmkl_intel_ilp64.a /opt/intel/mkl/lib/intel64/libmkl_intel_thread.a /opt/intel/mkl/lib/intel64/libmkl_core.a -Wl,-_end-group
 id        : olemiss

 Nodes     nprocs
 cn091        1

 Using customized tuning parameters: mindgm=1; mindgv=20; mindgc=4; mindgr=1; noblas=0; minvec=7
 default implementation of scratch files=df  

 ***,hno CCSD(T)/TZ-F12 QFF
 memory, 995, m;
 gthresh,energy=1.d-12,zero=1.d-22,oneint=1.d-22,twoint=1.d-22;
 gthresh,optgrad=1.d-8,optstep=1.d-8;
 nocompress;
 geomtyp=xyz
 bohr
 geometry={
 3
         16        16
 N        0.0000000000       -0.1562940370       -1.1626547811
 H        0.0000000000        1.6596243120       -1.9242505010
 O        0.0000000000        0.0384375150        1.1363156911
 }
 
 basis=avqz
   {hf,maxit=500;accu,20;}
 {ccsd(t),nocheck,maxit=250;orbital,IGNORE_ERROR;}

 Variables initialized (889), CPU time= 0.01 sec
 Commands  initialized (702), CPU time= 0.01 sec, 572 directives.
 Default parameters read. Elapsed time= 0.05 sec

 Checking input...
 Passed
1


                                         ***  PROGRAM SYSTEM MOLPRO  ***
                                       Copyright, TTI GmbH Stuttgart, 2015
                                    Version 2015.1 linked Jul  9 2018 13:16:40


 **********************************************************************************************************************************
 LABEL *   hno CCSD(T)/TZ-F12 QFF                                                        
  64 bit serial version                                                                  DATE: 08-Feb-20          TIME: 17:49:40  
 **********************************************************************************************************************************

 SHA1:             d5ffa45e93fdbca01ffc919aa182cfdae0147319
 **********************************************************************************************************************************

 THRESHOLDS:

 ZERO    =  1.00D-22  ONEINT  =  1.00D-22  TWOINT  =  1.00D-22  PREFAC  =  1.00D-14  LOCALI  =  1.00D-09  EORDER  =  1.00D-04
 ENERGY  =  1.00D-12  ETEST   =  0.00D+00  EDENS   =  0.00D+00  THRDEDEF=  1.00D-06  GRADIENT=  1.00D-02  STEP    =  1.00D-03
 ORBITAL =  1.00D-05  CIVEC   =  1.00D-05  COEFF   =  1.00D-04  PRINTCI =  5.00D-02  PUNCHCI =  9.90D+01  OPTGRAD =  3.00D-04
 OPTENERG=  1.00D-06  OPTSTEP =  3.00D-04  THRGRAD =  1.00D-10  COMPRESS=  1.00D-11  VARMIN  =  1.00D-07  VARMAX  =  1.00D-03
 THRDOUB =  0.00D+00  THRDIV  =  1.00D-05  THRRED  =  1.00D-07  THRPSP  =  1.00D+00  THRDC   =  1.00D-10  THRCS   =  1.00D-10
 THRNRM  =  1.00D-08  THREQ   =  0.00D+00  THRDE   =  1.00D+00  THRREF  =  1.00D-05  SPARFAC =  1.00D+00  THRDLP  =  1.00D-07
 THRDIA  =  1.00D-10  THRDLS  =  1.00D-07  THRGPS  =  0.00D+00  THRKEX  =  0.00D+00  THRDIS  =  2.00D-01  THRVAR  =  1.00D-10
 THRLOC  =  1.00D-06  THRGAP  =  1.00D-06  THRLOCT = -1.00D+00  THRGAPT = -1.00D+00  THRORB  =  1.00D-06  THRMLTP =  0.00D+00
 THRCPQCI=  1.00D-10  KEXTA   =  0.00D+00  THRCOARS=  0.00D+00  SYMTOL  =  1.00D-06  GRADTOL =  1.00D-06  THROVL  =  1.00D-08
 THRORTH =  1.00D-08  GRID    =  1.00D-06  GRIDMAX =  1.00D-03  DTMAX   =  0.00D+00  THROCCDE=  1.00D-01  THROCCDE=  1.00D-01



 THRESHOLDS:

 ZERO    =  1.00D-22  ONEINT  =  1.00D-22  TWOINT  =  1.00D-22  PREFAC  =  1.00D-14  LOCALI  =  1.00D-09  EORDER  =  1.00D-04
 ENERGY  =  1.00D-12  ETEST   =  0.00D+00  EDENS   =  0.00D+00  THRDEDEF=  1.00D-06  GRADIENT=  1.00D-02  STEP    =  1.00D-03
 ORBITAL =  1.00D-05  CIVEC   =  1.00D-05  COEFF   =  1.00D-04  PRINTCI =  5.00D-02  PUNCHCI =  9.90D+01  OPTGRAD =  1.00D-08
 OPTENERG=  1.00D-06  OPTSTEP =  1.00D-08  THRGRAD =  1.00D-10  COMPRESS=  1.00D-11  VARMIN  =  1.00D-07  VARMAX  =  1.00D-03
 THRDOUB =  0.00D+00  THRDIV  =  1.00D-05  THRRED  =  1.00D-07  THRPSP  =  1.00D+00  THRDC   =  1.00D-10  THRCS   =  1.00D-10
 THRNRM  =  1.00D-08  THREQ   =  0.00D+00  THRDE   =  1.00D+00  THRREF  =  1.00D-05  SPARFAC =  1.00D+00  THRDLP  =  1.00D-07
 THRDIA  =  1.00D-10  THRDLS  =  1.00D-07  THRGPS  =  0.00D+00  THRKEX  =  0.00D+00  THRDIS  =  2.00D-01  THRVAR  =  1.00D-10
 THRLOC  =  1.00D-06  THRGAP  =  1.00D-06  THRLOCT = -1.00D+00  THRGAPT = -1.00D+00  THRORB  =  1.00D-06  THRMLTP =  0.00D+00
 THRCPQCI=  1.00D-10  KEXTA   =  0.00D+00  THRCOARS=  0.00D+00  SYMTOL  =  1.00D-06  GRADTOL =  1.00D-06  THROVL  =  1.00D-08
 THRORTH =  1.00D-08  GRID    =  1.00D-06  GRIDMAX =  1.00D-03  DTMAX   =  0.00D+00  THROCCDE=  1.00D-01  THROCCDE=  1.00D-01



 Input parameters for SORTINT:

 COMPRESS =    0.000000
 C_FINAL  =    1.000000
 DEBUG    =   -1.000000
 C_SORT1  =    0.000000
 C_SEWARD =    0.000000
 THRESH   =    0.000000
 IO       =  molpro                                                          
 SPRI     =    0.000000
 SETTING GEOMTYP        =    XYZ
 ZUNIT=BOHR
 

 Variable memory set to  995000000 words,  buffer space   230000 words

 SETTING BASIS          =    AVQZ


 Recomputing integrals since basis changed


 Using spherical harmonics

 Library entry N      S aug-cc-pVQZ          selected for orbital group  1
 Library entry N      P aug-cc-pVQZ          selected for orbital group  1
 Library entry N      D aug-cc-pVQZ          selected for orbital group  1
 Library entry N      F aug-cc-pVQZ          selected for orbital group  1
 Library entry N      G aug-cc-pVQZ          selected for orbital group  1
 Library entry H      S aug-cc-pVQZ          selected for orbital group  2
 Library entry H      P aug-cc-pVQZ          selected for orbital group  2
 Library entry H      D aug-cc-pVQZ          selected for orbital group  2
 Library entry H      F aug-cc-pVQZ          selected for orbital group  2
 Library entry O      S aug-cc-pVQZ          selected for orbital group  3
 Library entry O      P aug-cc-pVQZ          selected for orbital group  3
 Library entry O      D aug-cc-pVQZ          selected for orbital group  3
 Library entry O      F aug-cc-pVQZ          selected for orbital group  3
 Library entry O      G aug-cc-pVQZ          selected for orbital group  3


 PROGRAM * SEWARD (Integral evaluation for generally contracted gaussian basis sets)     Author: Roland Lindh, 1990

 Geometry written to block  1 of record 700


 Point group  Cs  



 ATOMIC COORDINATES

 NR  ATOM    CHARGE       X              Y              Z

   1  N       7.00    0.000000000   -0.156294037   -1.162654781
   2  H       1.00    0.000000000    1.659624312   -1.924250501
   3  O       8.00    0.000000000    0.038437515    1.136315691

 Bond lengths in Bohr (Angstrom)

 1-2  1.969159082  1-3  2.307202984
     ( 1.042034111)     ( 1.220919240)

 Bond angles

  2-1-3  107.91155154

 NUCLEAR CHARGE:                   16
 NUMBER OF PRIMITIVE AOS:         293
 NUMBER OF SYMMETRY AOS:          234
 NUMBER OF CONTRACTIONS:          206   ( 130A'  +  76A"  )
 NUMBER OF CORE ORBITALS:           2   (   2A'  +   0A"  )
 NUMBER OF VALENCE ORBITALS:        9   (   7A'  +   2A"  )


 NUCLEAR REPULSION ENERGY   30.13648248

 Eigenvalues of metric

         1 0.595E-04 0.146E-03 0.321E-03 0.437E-03 0.607E-03 0.676E-03 0.101E-02 0.110E-02
         2 0.853E-03 0.158E-02 0.504E-02 0.897E-02 0.100E-01 0.125E-01 0.128E-01 0.188E-01


 Contracted 2-electron integrals neglected if value below      1.0D-22

      109945082. INTEGRALS WRITTEN OUT IN   26849 BLOCKS ON RECORD 1290 OF FILE 1


 NUMBER OF SORTED TWO-ELECTRON INTEGRALS:  115283741.     BUFFER LENGTH:  32768
 NUMBER OF SEGMENTS:   8  SEGMENT LENGTH:   15998004      RECORD LENGTH: 524288

 Memory used in sort:      16.56 MW

 SORT1 READ   109945082. AND WROTE   110865249. INTEGRALS IN    322 RECORDS. CPU TIME:     1.93 SEC, REAL TIME:     2.77 SEC
 SORT2 READ   110865249. AND WROTE   115283741. INTEGRALS IN      8 RECORDS. CPU TIME:     1.36 SEC, REAL TIME:     1.87 SEC

 FILE SIZES:   FILE 1:  1780.6 MBYTE,  FILE 4:  1350.6 MBYTE,   TOTAL:   3131.2 MBYTE

 OPERATOR DM      FOR CENTER  0  COORDINATES:    0.000000    0.000000    0.000000


 **********************************************************************************************************************************
 DATASETS  * FILE   NREC   LENGTH (MB)   RECORD NAMES
              1      19      944.14       500      610      700      900      950      970     1000      129      960     1100   
                                          VAR    BASINP    GEOM    SYMINP    ZMAT    AOBASIS   BASIS     P2S    ABASIS      S 
                                         1400     1410     1200     1210     1080     1600     1650     1300     1700   
                                           T        V       H0       H01     AOSYM     SMH    MOLCAS    ERIS     OPER   

 PROGRAMS   *        TOTAL       INT
 CPU TIMES  *        11.09     11.00
 REAL TIME  *        14.40 SEC
 DISK USED  *         3.13 GB      
 **********************************************************************************************************************************


 PROGRAM * RHF-SCF (CLOSED SHELL)       Authors: W. Meyer, H.-J. Werner


 NUMBER OF ELECTRONS:       8+    8-
 CONVERGENCE THRESHOLDS:    1.00E-10 (Density)    1.00E-13 (Energy)
 MAX. NUMBER OF ITERATIONS:      500
 INTERPOLATION TYPE:            DIIS
 INTERPOLATION STEPS:              2 (START)      1 (STEP)
 LEVEL SHIFTS:                  0.00 (CLOSED)  0.00 (OPEN) 



 Orbital guess generated from atomic densities. Full valence occupancy:    9   2

 Molecular orbital dump at record        2100.2

 Initial occupancy:   7   1

 ITERATION    DDIFF          GRAD             ENERGY        2-EL.EN.            DIPOLE MOMENTS         DIIS   ORB.
    1      0.000D+00      0.000D+00      -129.79349247    153.551636    0.00000    0.60355   -1.06592    0    start
    2      0.000D+00      0.820D-02      -129.82032231    154.744983    0.00000    0.61888   -0.20354    1    diag
    3      0.669D-02      0.641D-02      -129.84501290    154.900735    0.00000    0.56433   -0.61271    2    diag
    4      0.344D-02      0.988D-03      -129.84584416    154.606743    0.00000    0.57162   -0.54919    3    diag
    5      0.617D-03      0.321D-03      -129.84597413    154.700701    0.00000    0.57679   -0.55148    4    diag
    6      0.257D-03      0.923D-04      -129.84599482    154.684486    0.00000    0.57701   -0.54708    5    diag
    7      0.977D-04      0.466D-04      -129.84600106    154.687078    0.00000    0.57818   -0.54428    6    diag
    8      0.682D-04      0.169D-04      -129.84600185    154.686340    0.00000    0.57821   -0.54315    7    diag
    9      0.281D-04      0.329D-05      -129.84600188    154.686216    0.00000    0.57817   -0.54291    8    diag
   10      0.573D-05      0.725D-06      -129.84600188    154.686199    0.00000    0.57814   -0.54288    9    orth
   11      0.105D-05      0.142D-06      -129.84600188    154.686196    0.00000    0.57814   -0.54288    9    diag
   12      0.184D-06      0.299D-07      -129.84600188    154.686196    0.00000    0.57813   -0.54288    9    diag
   13      0.396D-07      0.797D-08      -129.84600188    154.686196    0.00000    0.57813   -0.54288    9    diag
   14      0.113D-07      0.156D-08      -129.84600188    154.686196    0.00000    0.57813   -0.54288    9    diag
   15      0.201D-08      0.443D-09      -129.84600188    154.686196    0.00000    0.57813   -0.54288    9    diag
   16      0.616D-09      0.130D-09      -129.84600188    154.686196    0.00000    0.57813   -0.54288    9    diag
   17      0.110D-09      0.326D-10      -129.84600188    154.686196    0.00000    0.57813   -0.54288    9    diag
   18      0.300D-10      0.107D-10      -129.84600188    154.686196    0.00000    0.57813   -0.54288    0    orth

 Final occupancy:   7   1

 !RHF STATE 1.1 Energy               -129.846001883747
 Nuclear energy                        30.13648248
 One-electron energy                 -237.32558219
 Two-electron energy                   77.34309782
 Virial quotient                       -1.00199350
 !RHF STATE 1.1 Dipole moment           0.00000000     0.57813324    -0.54287933
 Dipole moment /Debye                   0.00000000     1.46937187    -1.37977125

 Orbital energies:

         1.1          2.1          3.1          4.1          5.1          6.1          7.1          8.1          9.1
    -20.654694   -15.713596    -1.519439    -0.999949    -0.744441    -0.662396    -0.435251     0.026227     0.079446

         1.2          2.2          3.2
     -0.589928     0.059972     0.109703

 HOMO      7.1    -0.435251 =     -11.8438eV
 LUMO      8.1     0.026227 =       0.7137eV
 LUMO-HOMO         0.461478 =      12.5575eV


 **********************************************************************************************************************************
 DATASETS  * FILE   NREC   LENGTH (MB)   RECORD NAMES
              1      19      944.14       500      610      700      900      950      970     1000      129      960     1100   
                                          VAR    BASINP    GEOM    SYMINP    ZMAT    AOBASIS   BASIS     P2S    ABASIS      S 
                                         1400     1410     1200     1210     1080     1600     1650     1300     1700   
                                           T        V       H0       H01     AOSYM     SMH    MOLCAS    ERIS     OPER   

              2       4        3.27       700     1000      520     2100   
                                         GEOM     BASIS   MCVARS     RHF  

 PROGRAMS   *        TOTAL        HF       INT
 CPU TIMES  *        20.14      9.04     11.00
 REAL TIME  *        25.75 SEC
 DISK USED  *         3.13 GB      
 **********************************************************************************************************************************


 PROGRAM * CCSD (Closed-shell coupled cluster)     Authors: C. Hampel, H.-J. Werner, 1991, M. Deegan, P.J. Knowles, 1992


 Convergence thresholds:  THRVAR = 1.00D-08  THRDEN = 1.00D-12

 CCSD(T)     terms to be evaluated (factor= 1.000)


 Number of core orbitals:           2 (   2   0 )
 Number of closed-shell orbitals:   6 (   5   1 )
 Number of external orbitals:     198 ( 123  75 )

 Molecular orbitals read from record     2100.2  Type=RHF/CANONICAL (state 1.1)

 Number of N-1 electron functions:               6
 Number of N-2 electron functions:              21
 Number of singly external CSFs:               690
 Number of doubly external CSFs:            362646
 Total number of CSFs:                      363337

 Length of J-op  integral file:               0.00 MB
 Length of K-op  integral file:               1.60 MB
 Length of 3-ext integral record:             0.00 MB

 Memory could be reduced to 34.67 Mwords without degradation in triples

 Integral transformation finished. Total CPU:   1.48 sec, npass=  1  Memory used:   9.53 MW

 Reference energy:                   -129.84600188

 MP2 singlet pair energy:              -0.30273400
 MP2 triplet pair energy:              -0.17119916
 MP2 correlation energy:               -0.47393316
 MP2 total energy:                   -130.31993504

 SCS-MP2 correlation energy:           -0.46980472   (PS=  1.200000  PT=  0.333333)
 SCS-MP2 total energy:               -130.31580661

 ITER.      SQ.NORM     CORR.ENERGY   TOTAL ENERGY   ENERGY CHANGE        DEN1      VAR(S)    VAR(P)  DIIS     TIME  TIME/IT
   1      1.12209739    -0.47346606  -130.31946795     0.00046710     0.01736658  0.33D-02  0.33D-02  1  1     2.73     1.40
   2      1.13306722    -0.47331859  -130.31932048     0.00014747    -0.01278535  0.11D-03  0.51D-03  2  2     4.06     1.44
   3      1.13958389    -0.47371029  -130.31971217    -0.00039169    -0.00310869  0.51D-04  0.56D-04  3  3     5.36     1.45
   4      1.14247654    -0.47371923  -130.31972111    -0.00000894    -0.00097045  0.46D-05  0.10D-04  4  4     6.67     1.46
   5      1.14364465    -0.47375067  -130.31975256    -0.00003144    -0.00025369  0.11D-05  0.17D-05  5  5     7.98     1.46
   6      1.14401713    -0.47373437  -130.31973626     0.00001630    -0.00005405  0.11D-06  0.40D-06  6  6     9.28     1.46
   7      1.14408886    -0.47373518  -130.31973706    -0.00000080     0.00000334  0.15D-07  0.93D-07  6  1    10.58     1.47
   8      1.14411145    -0.47373539  -130.31973728    -0.00000022    -0.00000113  0.32D-08  0.19D-07  6  2    11.93     1.47
   9      1.14411611    -0.47373500  -130.31973689     0.00000039     0.00000105  0.27D-08  0.22D-08  6  4    13.23     1.47
  10      1.14411867    -0.47373538  -130.31973726    -0.00000038    -0.00000079  0.51D-09  0.28D-09  6  3    14.56     1.48
  11      1.14411847    -0.47373544  -130.31973732    -0.00000006    -0.00000015  0.16D-09  0.39D-10  6  5    15.93     1.48
  12      1.14411749    -0.47373559  -130.31973748    -0.00000015     0.00000037  0.20D-10  0.12D-10  6  6    17.19     1.48
  13      1.14411660    -0.47373563  -130.31973752    -0.00000004     0.00000022  0.60D-11  0.26D-11  6  1    18.45     1.48
  14      1.14411589    -0.47373567  -130.31973755    -0.00000004     0.00000017  0.35D-12  0.56D-12  6  4    19.77     1.48
  15      1.14411566    -0.47373568  -130.31973756    -0.00000001     0.00000004  0.76D-13  0.45D-13  6  2    21.08     1.48
  16      1.14411560    -0.47373568  -130.31973756    -0.00000000     0.00000001  0.20D-13  0.79D-14  6  3    22.40     1.48
  17      1.14411557    -0.47373568  -130.31973757    -0.00000000     0.00000001  0.38D-14  0.99D-15  6  5    23.72     1.48
  18      1.14411557    -0.47373568  -130.31973757    -0.00000000     0.00000000  0.84D-15  0.24D-15  6  6    25.02     1.48
  19      1.14411557    -0.47373568  -130.31973757    -0.00000000     0.00000000  0.12D-15  0.49D-16  6  1    26.31     1.48
  20      1.14411557    -0.47373568  -130.31973756     0.00000000    -0.00000000  0.11D-16  0.73D-17  6  4    27.66     1.48
  21      1.14411557    -0.47373568  -130.31973756     0.00000000    -0.00000000  0.49D-18  0.60D-18  6  3    28.95     1.48
  22      1.14411557    -0.47373568  -130.31973756     0.00000000    -0.00000000  0.12D-18  0.96D-19  6  2    30.25     1.48
  23      1.14411557    -0.47373568  -130.31973756     0.00000000     0.00000000  0.34D-19  0.37D-19  6  5    31.55     1.48
  24      1.14411557    -0.47373568  -130.31973756    -0.00000000     0.00000000  0.33D-20  0.83D-20  6  1    32.84     1.48

 Norm of t1 vector:      0.07851028      S-energy:     0.00000000      T1 diagnostic:  0.01602584
                                                                       D1 diagnostic:  0.04386020

 Doubles amplitudes (print threshold =  0.500E-01):

         I         J         SYM. A    SYM. B    A         B      T(IJ, AB)

         6         6         2         2         1         1     -0.10554489


 Total CPU time for triples:     16.80 sec


 RESULTS
 =======

  Reference energy                   -129.846001883747
  CCSD singlet pair energy             -0.327700572686
  CCSD triplet pair energy             -0.146035108498
  CCSD correlation energy              -0.473735681183

  Triples (T) contribution             -0.022710427495
  Total correlation energy             -0.496446108677

  CCSD total energy                  -130.319737564930
  CCSD[T] energy                     -130.343568932519
  CCSD-T energy                      -130.342052809784
 !CCSD(T) total energy               -130.342447992424

 Timing summary (sec):

 STEP                 CPU(USER)    SYS     CPU(TOT)    WALL
 Transformation          1.49      0.30      1.79      1.81
 CCSD iterations        31.36      4.08     35.44     35.45
 Triples                16.80      0.44     17.24     17.23

 Program statistics:

 Available memory in ccsd:               994999756
 Min. memory needed in ccsd:               1265322
 Max. memory used in ccsd:                 1555950
 Max. memory used in cckext:               2415326 (24 integral passes)



 **********************************************************************************************************************************
 DATASETS  * FILE   NREC   LENGTH (MB)   RECORD NAMES
              1      20     1044.69       500      610      700      900      950      970     1000      129      960     1100   
                                          VAR    BASINP    GEOM    SYMINP    ZMAT    AOBASIS   BASIS     P2S    ABASIS      S 
                                         1400     1410     1200     1210     1080     1600     1650     1300     1700     1380   
                                           T        V       H0       H01     AOSYM     SMH    MOLCAS    ERIS     OPER     JKOP   

              2       4        3.27       700     1000      520     2100   
                                         GEOM     BASIS   MCVARS     RHF  

 PROGRAMS   *        TOTAL   CCSD(T)        HF       INT
 CPU TIMES  *        69.81     49.67      9.04     11.00
 REAL TIME  *        80.26 SEC
 DISK USED  *         3.13 GB      
 **********************************************************************************************************************************

 CCSD(T)/aug-cc-pVQZ energy=   -130.342447992424

        CCSD(T)         HF-SCF  
   -130.34244799   -129.84600188
 **********************************************************************************************************************************
 Molpro calculation terminated
 Variable memory released
