
 Primary working directories    : /tmp/r2666/234835.maple
 Secondary working directories  : /tmp/r2666/234835.maple
 Wavefunction directory         : /ddn/home4/r2666/wfu/
 Main file repository           : /tmp/r2666/234835.maple/

 SHA1      : d5ffa45e93fdbca01ffc919aa182cfdae0147319
 NAME      : 2015.1.35
 ARCHNAME  : linux/x86_64
 FC        : /opt/intel/composer_xe_2015.1.133/bin/intel64/ifort
 BLASLIB   : -Wl,-_start-group /opt/intel/mkl/lib/intel64/libmkl_intel_ilp64.a /opt/intel/mkl/lib/intel64/libmkl_intel_thread.a /opt/intel/mkl/lib/intel64/libmkl_core.a -Wl,-_end-group
 id        : olemiss

 Nodes     nprocs
 cn091        1

 Using customized tuning parameters: mindgm=1; mindgv=20; mindgc=4; mindgr=1; noblas=0; minvec=7
 default implementation of scratch files=df  

 ***,hno CCSD(T)/TZ-F12 QFF
 memory, 995, m;
 gthresh,energy=1.d-12,zero=1.d-22,oneint=1.d-22,twoint=1.d-22;
 gthresh,optgrad=1.d-8,optstep=1.d-8;
 nocompress;
 geomtyp=xyz
 bohr
 geometry={
 3
         78        78
 N        0.0000000000       -0.1558388963       -1.1468290584
 H        0.0000000000        1.6678456551       -1.9383735464
 O        0.0000000000        0.0297610312        1.1346130138
 }
 
 basis=avqz
   {hf,maxit=500;accu,20;}
 {ccsd(t),nocheck,maxit=250;orbital,IGNORE_ERROR;}

 Variables initialized (889), CPU time= 0.01 sec
 Commands  initialized (702), CPU time= 0.00 sec, 572 directives.
 Default parameters read. Elapsed time= 0.04 sec

 Checking input...
 Passed
1


                                         ***  PROGRAM SYSTEM MOLPRO  ***
                                       Copyright, TTI GmbH Stuttgart, 2015
                                    Version 2015.1 linked Jul  9 2018 13:16:40


 **********************************************************************************************************************************
 LABEL *   hno CCSD(T)/TZ-F12 QFF                                                        
  64 bit serial version                                                                  DATE: 08-Feb-20          TIME: 17:53:51  
 **********************************************************************************************************************************

 SHA1:             d5ffa45e93fdbca01ffc919aa182cfdae0147319
 **********************************************************************************************************************************

 THRESHOLDS:

 ZERO    =  1.00D-22  ONEINT  =  1.00D-22  TWOINT  =  1.00D-22  PREFAC  =  1.00D-14  LOCALI  =  1.00D-09  EORDER  =  1.00D-04
 ENERGY  =  1.00D-12  ETEST   =  0.00D+00  EDENS   =  0.00D+00  THRDEDEF=  1.00D-06  GRADIENT=  1.00D-02  STEP    =  1.00D-03
 ORBITAL =  1.00D-05  CIVEC   =  1.00D-05  COEFF   =  1.00D-04  PRINTCI =  5.00D-02  PUNCHCI =  9.90D+01  OPTGRAD =  3.00D-04
 OPTENERG=  1.00D-06  OPTSTEP =  3.00D-04  THRGRAD =  1.00D-10  COMPRESS=  1.00D-11  VARMIN  =  1.00D-07  VARMAX  =  1.00D-03
 THRDOUB =  0.00D+00  THRDIV  =  1.00D-05  THRRED  =  1.00D-07  THRPSP  =  1.00D+00  THRDC   =  1.00D-10  THRCS   =  1.00D-10
 THRNRM  =  1.00D-08  THREQ   =  0.00D+00  THRDE   =  1.00D+00  THRREF  =  1.00D-05  SPARFAC =  1.00D+00  THRDLP  =  1.00D-07
 THRDIA  =  1.00D-10  THRDLS  =  1.00D-07  THRGPS  =  0.00D+00  THRKEX  =  0.00D+00  THRDIS  =  2.00D-01  THRVAR  =  1.00D-10
 THRLOC  =  1.00D-06  THRGAP  =  1.00D-06  THRLOCT = -1.00D+00  THRGAPT = -1.00D+00  THRORB  =  1.00D-06  THRMLTP =  0.00D+00
 THRCPQCI=  1.00D-10  KEXTA   =  0.00D+00  THRCOARS=  0.00D+00  SYMTOL  =  1.00D-06  GRADTOL =  1.00D-06  THROVL  =  1.00D-08
 THRORTH =  1.00D-08  GRID    =  1.00D-06  GRIDMAX =  1.00D-03  DTMAX   =  0.00D+00  THROCCDE=  1.00D-01  THROCCDE=  1.00D-01



 THRESHOLDS:

 ZERO    =  1.00D-22  ONEINT  =  1.00D-22  TWOINT  =  1.00D-22  PREFAC  =  1.00D-14  LOCALI  =  1.00D-09  EORDER  =  1.00D-04
 ENERGY  =  1.00D-12  ETEST   =  0.00D+00  EDENS   =  0.00D+00  THRDEDEF=  1.00D-06  GRADIENT=  1.00D-02  STEP    =  1.00D-03
 ORBITAL =  1.00D-05  CIVEC   =  1.00D-05  COEFF   =  1.00D-04  PRINTCI =  5.00D-02  PUNCHCI =  9.90D+01  OPTGRAD =  1.00D-08
 OPTENERG=  1.00D-06  OPTSTEP =  1.00D-08  THRGRAD =  1.00D-10  COMPRESS=  1.00D-11  VARMIN  =  1.00D-07  VARMAX  =  1.00D-03
 THRDOUB =  0.00D+00  THRDIV  =  1.00D-05  THRRED  =  1.00D-07  THRPSP  =  1.00D+00  THRDC   =  1.00D-10  THRCS   =  1.00D-10
 THRNRM  =  1.00D-08  THREQ   =  0.00D+00  THRDE   =  1.00D+00  THRREF  =  1.00D-05  SPARFAC =  1.00D+00  THRDLP  =  1.00D-07
 THRDIA  =  1.00D-10  THRDLS  =  1.00D-07  THRGPS  =  0.00D+00  THRKEX  =  0.00D+00  THRDIS  =  2.00D-01  THRVAR  =  1.00D-10
 THRLOC  =  1.00D-06  THRGAP  =  1.00D-06  THRLOCT = -1.00D+00  THRGAPT = -1.00D+00  THRORB  =  1.00D-06  THRMLTP =  0.00D+00
 THRCPQCI=  1.00D-10  KEXTA   =  0.00D+00  THRCOARS=  0.00D+00  SYMTOL  =  1.00D-06  GRADTOL =  1.00D-06  THROVL  =  1.00D-08
 THRORTH =  1.00D-08  GRID    =  1.00D-06  GRIDMAX =  1.00D-03  DTMAX   =  0.00D+00  THROCCDE=  1.00D-01  THROCCDE=  1.00D-01



 Input parameters for SORTINT:

 COMPRESS =    0.000000
 C_FINAL  =    1.000000
 DEBUG    =   -1.000000
 C_SORT1  =    0.000000
 C_SEWARD =    0.000000
 THRESH   =    0.000000
 IO       =  molpro                                                          
 SPRI     =    0.000000
 SETTING GEOMTYP        =    XYZ
 ZUNIT=BOHR
 

 Variable memory set to  995000000 words,  buffer space   230000 words

 SETTING BASIS          =    AVQZ


 Recomputing integrals since basis changed


 Using spherical harmonics

 Library entry N      S aug-cc-pVQZ          selected for orbital group  1
 Library entry N      P aug-cc-pVQZ          selected for orbital group  1
 Library entry N      D aug-cc-pVQZ          selected for orbital group  1
 Library entry N      F aug-cc-pVQZ          selected for orbital group  1
 Library entry N      G aug-cc-pVQZ          selected for orbital group  1
 Library entry H      S aug-cc-pVQZ          selected for orbital group  2
 Library entry H      P aug-cc-pVQZ          selected for orbital group  2
 Library entry H      D aug-cc-pVQZ          selected for orbital group  2
 Library entry H      F aug-cc-pVQZ          selected for orbital group  2
 Library entry O      S aug-cc-pVQZ          selected for orbital group  3
 Library entry O      P aug-cc-pVQZ          selected for orbital group  3
 Library entry O      D aug-cc-pVQZ          selected for orbital group  3
 Library entry O      F aug-cc-pVQZ          selected for orbital group  3
 Library entry O      G aug-cc-pVQZ          selected for orbital group  3


 PROGRAM * SEWARD (Integral evaluation for generally contracted gaussian basis sets)     Author: Roland Lindh, 1990

 Geometry written to block  1 of record 700


 Point group  Cs  



 ATOMIC COORDINATES

 NR  ATOM    CHARGE       X              Y              Z

   1  N       7.00    0.000000000   -0.155838896   -1.146829058
   2  H       1.00    0.000000000    1.667845655   -1.938373546
   3  O       8.00    0.000000000    0.029761031    1.134613014

 Bond lengths in Bohr (Angstrom)

 1-2  1.988056342  1-3  2.288979087
     ( 1.052034110)     ( 1.211275569)

 Bond angles

  2-1-3  108.81168682

 NUCLEAR CHARGE:                   16
 NUMBER OF PRIMITIVE AOS:         293
 NUMBER OF SYMMETRY AOS:          234
 NUMBER OF CONTRACTIONS:          206   ( 130A'  +  76A"  )
 NUMBER OF CORE ORBITALS:           2   (   2A'  +   0A"  )
 NUMBER OF VALENCE ORBITALS:        9   (   7A'  +   2A"  )


 NUCLEAR REPULSION ENERGY   30.28339990

 Eigenvalues of metric

         1 0.596E-04 0.145E-03 0.319E-03 0.435E-03 0.590E-03 0.681E-03 0.101E-02 0.109E-02
         2 0.831E-03 0.162E-02 0.496E-02 0.895E-02 0.101E-01 0.124E-01 0.126E-01 0.189E-01


 Contracted 2-electron integrals neglected if value below      1.0D-22

      109945082. INTEGRALS WRITTEN OUT IN   26849 BLOCKS ON RECORD 1290 OF FILE 1


 NUMBER OF SORTED TWO-ELECTRON INTEGRALS:  115283741.     BUFFER LENGTH:  32768
 NUMBER OF SEGMENTS:   8  SEGMENT LENGTH:   15998004      RECORD LENGTH: 524288

 Memory used in sort:      16.56 MW

 SORT1 READ   109945082. AND WROTE   110865249. INTEGRALS IN    322 RECORDS. CPU TIME:     1.91 SEC, REAL TIME:     2.73 SEC
 SORT2 READ   110865249. AND WROTE   115283741. INTEGRALS IN      8 RECORDS. CPU TIME:     1.40 SEC, REAL TIME:     1.82 SEC

 FILE SIZES:   FILE 1:  1780.6 MBYTE,  FILE 4:  1350.6 MBYTE,   TOTAL:   3131.2 MBYTE

 OPERATOR DM      FOR CENTER  0  COORDINATES:    0.000000    0.000000    0.000000


 **********************************************************************************************************************************
 DATASETS  * FILE   NREC   LENGTH (MB)   RECORD NAMES
              1      19      944.14       500      610      700      900      950      970     1000      129      960     1100   
                                          VAR    BASINP    GEOM    SYMINP    ZMAT    AOBASIS   BASIS     P2S    ABASIS      S 
                                         1400     1410     1200     1210     1080     1600     1650     1300     1700   
                                           T        V       H0       H01     AOSYM     SMH    MOLCAS    ERIS     OPER   

 PROGRAMS   *        TOTAL       INT
 CPU TIMES  *        11.18     11.10
 REAL TIME  *        14.06 SEC
 DISK USED  *         3.13 GB      
 **********************************************************************************************************************************


 PROGRAM * RHF-SCF (CLOSED SHELL)       Authors: W. Meyer, H.-J. Werner


 NUMBER OF ELECTRONS:       8+    8-
 CONVERGENCE THRESHOLDS:    1.00E-10 (Density)    1.00E-13 (Energy)
 MAX. NUMBER OF ITERATIONS:      500
 INTERPOLATION TYPE:            DIIS
 INTERPOLATION STEPS:              2 (START)      1 (STEP)
 LEVEL SHIFTS:                  0.00 (CLOSED)  0.00 (OPEN) 



 Orbital guess generated from atomic densities. Full valence occupancy:    9   2

 Molecular orbital dump at record        2100.2

 Initial occupancy:   7   1

 ITERATION    DDIFF          GRAD             ENERGY        2-EL.EN.            DIPOLE MOMENTS         DIIS   ORB.
    1      0.000D+00      0.000D+00      -129.79573780    153.804901    0.00000    0.60137   -1.03855    0    start
    2      0.000D+00      0.814D-02      -129.82289970    155.033996    0.00000    0.61198   -0.20885    1    diag
    3      0.658D-02      0.625D-02      -129.84630461    155.163783    0.00000    0.56049   -0.60126    2    diag
    4      0.336D-02      0.978D-03      -129.84711810    154.875470    0.00000    0.56750   -0.53916    3    diag
    5      0.610D-03      0.317D-03      -129.84724577    154.969601    0.00000    0.57288   -0.54174    4    diag
    6      0.254D-03      0.916D-04      -129.84726611    154.953393    0.00000    0.57317   -0.53750    5    diag
    7      0.969D-04      0.458D-04      -129.84727208    154.956120    0.00000    0.57439   -0.53485    6    diag
    8      0.669D-04      0.162D-04      -129.84727277    154.955417    0.00000    0.57444   -0.53380    7    diag
    9      0.263D-04      0.313D-05      -129.84727280    154.955297    0.00000    0.57440   -0.53357    8    diag
   10      0.529D-05      0.710D-06      -129.84727281    154.955278    0.00000    0.57436   -0.53354    9    orth
   11      0.103D-05      0.141D-06      -129.84727281    154.955275    0.00000    0.57436   -0.53354    9    diag
   12      0.187D-06      0.287D-07      -129.84727281    154.955275    0.00000    0.57435   -0.53354    9    diag
   13      0.398D-07      0.747D-08      -129.84727281    154.955275    0.00000    0.57435   -0.53354    9    diag
   14      0.110D-07      0.147D-08      -129.84727281    154.955275    0.00000    0.57435   -0.53354    9    diag
   15      0.200D-08      0.418D-09      -129.84727281    154.955275    0.00000    0.57435   -0.53354    9    diag
   16      0.598D-09      0.124D-09      -129.84727281    154.955275    0.00000    0.57435   -0.53354    9    diag
   17      0.109D-09      0.317D-10      -129.84727281    154.955275    0.00000    0.57435   -0.53354    9    diag
   18      0.296D-10      0.106D-10      -129.84727281    154.955275    0.00000    0.57435   -0.53354    9    diag
   19      0.145D-10      0.249D-11      -129.84727281    154.955275    0.00000    0.57435   -0.53354    9    fixocc
   20      0.622D-11      0.454D-12      -129.84727281    154.955275    0.00000    0.57435   -0.53354    9    orth
   21      0.486D-11      0.226D-12      -129.84727281    154.955275    0.00000    0.57435   -0.53354    9    diag
   22      0.249D-11      0.171D-12      -129.84727281    154.955275    0.00000    0.57435   -0.53354    0    orth

 Final occupancy:   7   1

 !RHF STATE 1.1 Energy               -129.847272806313
 Nuclear energy                        30.28339990
 One-electron energy                 -237.60831002
 Two-electron energy                   77.47763732
 Virial quotient                       -1.00186276
 !RHF STATE 1.1 Dipole moment           0.00000000     0.57435304    -0.53353886
 Dipole moment /Debye                   0.00000000     1.45976419    -1.35603169

 Orbital energies:

         1.1          2.1          3.1          4.1          5.1          6.1          7.1          8.1          9.1
    -20.654153   -15.713101    -1.526577    -0.995678    -0.746182    -0.665276    -0.431124     0.026266     0.079453

         1.2          2.2          3.2
     -0.594427     0.062361     0.110271

 HOMO      7.1    -0.431124 =     -11.7315eV
 LUMO      8.1     0.026266 =       0.7147eV
 LUMO-HOMO         0.457390 =      12.4462eV


 **********************************************************************************************************************************
 DATASETS  * FILE   NREC   LENGTH (MB)   RECORD NAMES
              1      19      944.14       500      610      700      900      950      970     1000      129      960     1100   
                                          VAR    BASINP    GEOM    SYMINP    ZMAT    AOBASIS   BASIS     P2S    ABASIS      S 
                                         1400     1410     1200     1210     1080     1600     1650     1300     1700   
                                           T        V       H0       H01     AOSYM     SMH    MOLCAS    ERIS     OPER   

              2       4        3.27       700     1000      520     2100   
                                         GEOM     BASIS   MCVARS     RHF  

 PROGRAMS   *        TOTAL        HF       INT
 CPU TIMES  *        22.24     11.06     11.10
 REAL TIME  *        27.78 SEC
 DISK USED  *         3.13 GB      
 **********************************************************************************************************************************


 PROGRAM * CCSD (Closed-shell coupled cluster)     Authors: C. Hampel, H.-J. Werner, 1991, M. Deegan, P.J. Knowles, 1992


 Convergence thresholds:  THRVAR = 1.00D-08  THRDEN = 1.00D-12

 CCSD(T)     terms to be evaluated (factor= 1.000)


 Number of core orbitals:           2 (   2   0 )
 Number of closed-shell orbitals:   6 (   5   1 )
 Number of external orbitals:     198 ( 123  75 )

 Molecular orbitals read from record     2100.2  Type=RHF/CANONICAL (state 1.1)

 Number of N-1 electron functions:               6
 Number of N-2 electron functions:              21
 Number of singly external CSFs:               690
 Number of doubly external CSFs:            362646
 Total number of CSFs:                      363337

 Length of J-op  integral file:               0.00 MB
 Length of K-op  integral file:               1.60 MB
 Length of 3-ext integral record:             0.00 MB

 Memory could be reduced to 34.67 Mwords without degradation in triples

 Integral transformation finished. Total CPU:   1.48 sec, npass=  1  Memory used:   9.53 MW

 Reference energy:                   -129.84727281

 MP2 singlet pair energy:              -0.30195686
 MP2 triplet pair energy:              -0.17066441
 MP2 correlation energy:               -0.47262126
 MP2 total energy:                   -130.31989407

 SCS-MP2 correlation energy:           -0.46853942   (PS=  1.200000  PT=  0.333333)
 SCS-MP2 total energy:               -130.31581222

 ITER.      SQ.NORM     CORR.ENERGY   TOTAL ENERGY   ENERGY CHANGE        DEN1      VAR(S)    VAR(P)  DIIS     TIME  TIME/IT
   1      1.12140720    -0.47251997  -130.31979278     0.00010129     0.01667509  0.32D-02  0.32D-02  1  1     2.71     1.38
   2      1.13220355    -0.47244706  -130.31971986     0.00007291    -0.01259455  0.11D-03  0.50D-03  2  2     3.98     1.41
   3      1.13859193    -0.47283188  -130.32010469    -0.00038482    -0.00306980  0.50D-04  0.54D-04  3  3     5.28     1.43
   4      1.14139543    -0.47283850  -130.32011131    -0.00000662    -0.00094908  0.45D-05  0.99D-05  4  4     6.56     1.43
   5      1.14252186    -0.47286878  -130.32014158    -0.00003028    -0.00024514  0.12D-05  0.17D-05  5  5     7.85     1.44
   6      1.14288529    -0.47285352  -130.32012633     0.00001526    -0.00005217  0.11D-06  0.40D-06  6  6     9.18     1.45
   7      1.14295971    -0.47285400  -130.32012680    -0.00000048     0.00000261  0.17D-07  0.92D-07  6  1    10.46     1.45
   8      1.14298287    -0.47285432  -130.32012713    -0.00000033    -0.00000120  0.35D-08  0.19D-07  6  2    11.80     1.45
   9      1.14298807    -0.47285391  -130.32012672     0.00000041     0.00000100  0.26D-08  0.21D-08  6  4    13.10     1.46
  10      1.14299060    -0.47285430  -130.32012710    -0.00000038    -0.00000077  0.49D-09  0.26D-09  6  3    14.46     1.46
  11      1.14299033    -0.47285436  -130.32012717    -0.00000006    -0.00000012  0.16D-09  0.37D-10  6  5    15.74     1.47
  12      1.14298934    -0.47285451  -130.32012731    -0.00000015     0.00000036  0.20D-10  0.11D-10  6  6    17.03     1.47
  13      1.14298847    -0.47285455  -130.32012736    -0.00000004     0.00000022  0.61D-11  0.25D-11  6  1    18.30     1.47
  14      1.14298777    -0.47285458  -130.32012739    -0.00000003     0.00000016  0.40D-12  0.50D-12  6  4    19.61     1.47
  15      1.14298755    -0.47285459  -130.32012740    -0.00000001     0.00000003  0.88D-13  0.40D-13  6  2    20.90     1.47
  16      1.14298750    -0.47285459  -130.32012740    -0.00000000     0.00000001  0.24D-13  0.74D-14  6  3    22.18     1.47
  17      1.14298747    -0.47285459  -130.32012740    -0.00000000     0.00000001  0.43D-14  0.11D-14  6  5    23.45     1.47
  18      1.14298747    -0.47285459  -130.32012740    -0.00000000     0.00000000  0.88D-15  0.27D-15  6  6    24.73     1.47
  19      1.14298747    -0.47285459  -130.32012740    -0.00000000     0.00000000  0.11D-15  0.55D-16  6  1    26.03     1.47
  20      1.14298747    -0.47285459  -130.32012740     0.00000000    -0.00000000  0.11D-16  0.81D-17  6  4    27.32     1.47
  21      1.14298747    -0.47285459  -130.32012740     0.00000000    -0.00000000  0.53D-18  0.70D-18  6  3    28.61     1.47
  22      1.14298747    -0.47285459  -130.32012740     0.00000000    -0.00000000  0.13D-18  0.16D-18  6  2    29.91     1.47
  23      1.14298747    -0.47285459  -130.32012740     0.00000000     0.00000000  0.39D-19  0.58D-19  6  5    31.19     1.47
  24      1.14298747    -0.47285459  -130.32012740    -0.00000000     0.00000000  0.32D-20  0.13D-19  6  1    32.47     1.47

 Norm of t1 vector:      0.07750421      S-energy:    -0.00000000      T1 diagnostic:  0.01582048
                                                                       D1 diagnostic:  0.04266551

 Doubles amplitudes (print threshold =  0.500E-01):

         I         J         SYM. A    SYM. B    A         B      T(IJ, AB)

         6         6         2         2         1         1     -0.10041347


 Total CPU time for triples:     16.56 sec


 RESULTS
 =======

  Reference energy                   -129.847272806313
  CCSD singlet pair energy             -0.326933927459
  CCSD triplet pair energy             -0.145920666302
  CCSD correlation energy              -0.472854593762

  Triples (T) contribution             -0.022475190039
  Total correlation energy             -0.495329783801

  CCSD total energy                  -130.320127400075
  CCSD[T] energy                     -130.343694264440
  CCSD-T energy                      -130.342212884647
 !CCSD(T) total energy               -130.342602590114

 Timing summary (sec):

 STEP                 CPU(USER)    SYS     CPU(TOT)    WALL
 Transformation          1.49      0.26      1.75      1.75
 CCSD iterations        30.98      4.31     35.29     35.30
 Triples                16.56      0.46     17.02     17.01

 Program statistics:

 Available memory in ccsd:               994999756
 Min. memory needed in ccsd:               1265322
 Max. memory used in ccsd:                 1555950
 Max. memory used in cckext:               2415326 (24 integral passes)



 **********************************************************************************************************************************
 DATASETS  * FILE   NREC   LENGTH (MB)   RECORD NAMES
              1      20     1044.69       500      610      700      900      950      970     1000      129      960     1100   
                                          VAR    BASINP    GEOM    SYMINP    ZMAT    AOBASIS   BASIS     P2S    ABASIS      S 
                                         1400     1410     1200     1210     1080     1600     1650     1300     1700     1380   
                                           T        V       H0       H01     AOSYM     SMH    MOLCAS    ERIS     OPER     JKOP   

              2       4        3.27       700     1000      520     2100   
                                         GEOM     BASIS   MCVARS     RHF  

 PROGRAMS   *        TOTAL   CCSD(T)        HF       INT
 CPU TIMES  *        71.28     49.04     11.06     11.10
 REAL TIME  *        81.86 SEC
 DISK USED  *         3.13 GB      
 **********************************************************************************************************************************

 CCSD(T)/aug-cc-pVQZ energy=   -130.342602590114

        CCSD(T)         HF-SCF  
   -130.34260259   -129.84727281
 **********************************************************************************************************************************
 Molpro calculation terminated
 Variable memory released
