
 Primary working directories    : /tmp/r2666/234883.maple
 Secondary working directories  : /tmp/r2666/234883.maple
 Wavefunction directory         : /ddn/home4/r2666/wfu/
 Main file repository           : /tmp/r2666/234883.maple/

 SHA1      : d5ffa45e93fdbca01ffc919aa182cfdae0147319
 NAME      : 2015.1.35
 ARCHNAME  : linux/x86_64
 FC        : /opt/intel/composer_xe_2015.1.133/bin/intel64/ifort
 BLASLIB   : -Wl,-_start-group /opt/intel/mkl/lib/intel64/libmkl_intel_ilp64.a /opt/intel/mkl/lib/intel64/libmkl_intel_thread.a /opt/intel/mkl/lib/intel64/libmkl_core.a -Wl,-_end-group
 id        : olemiss

 Nodes     nprocs
 cn027        1

 Using customized tuning parameters: mindgm=1; mindgv=20; mindgc=4; mindgr=1; noblas=0; minvec=7
 default implementation of scratch files=df  

 ***,hno CCSD(T)/TZ-F12 QFF
 memory, 995, m;
 gthresh,energy=1.d-12,zero=1.d-22,oneint=1.d-22,twoint=1.d-22;
 gthresh,optgrad=1.d-8,optstep=1.d-8;
 nocompress;
 geomtyp=xyz
 bohr
 geometry={
 3
        126       126
 N        0.0000000000       -0.1771219916       -1.1422802340
 H        0.0000000000        1.6792535907       -1.9295207681
 O        0.0000000000        0.0396361909        1.1212114111
 }
 
 basis=avqz
   {hf,maxit=500;accu,20;}
 {ccsd(t),nocheck,maxit=250;orbital,IGNORE_ERROR;}

 Variables initialized (889), CPU time= 0.00 sec
 Commands  initialized (702), CPU time= 0.01 sec, 572 directives.
 Default parameters read. Elapsed time= 0.05 sec

 Checking input...
 Passed
1


                                         ***  PROGRAM SYSTEM MOLPRO  ***
                                       Copyright, TTI GmbH Stuttgart, 2015
                                    Version 2015.1 linked Jul  9 2018 13:16:40


 **********************************************************************************************************************************
 LABEL *   hno CCSD(T)/TZ-F12 QFF                                                        
  64 bit serial version                                                                  DATE: 08-Feb-20          TIME: 17:55:26  
 **********************************************************************************************************************************

 SHA1:             d5ffa45e93fdbca01ffc919aa182cfdae0147319
 **********************************************************************************************************************************

 THRESHOLDS:

 ZERO    =  1.00D-22  ONEINT  =  1.00D-22  TWOINT  =  1.00D-22  PREFAC  =  1.00D-14  LOCALI  =  1.00D-09  EORDER  =  1.00D-04
 ENERGY  =  1.00D-12  ETEST   =  0.00D+00  EDENS   =  0.00D+00  THRDEDEF=  1.00D-06  GRADIENT=  1.00D-02  STEP    =  1.00D-03
 ORBITAL =  1.00D-05  CIVEC   =  1.00D-05  COEFF   =  1.00D-04  PRINTCI =  5.00D-02  PUNCHCI =  9.90D+01  OPTGRAD =  3.00D-04
 OPTENERG=  1.00D-06  OPTSTEP =  3.00D-04  THRGRAD =  1.00D-10  COMPRESS=  1.00D-11  VARMIN  =  1.00D-07  VARMAX  =  1.00D-03
 THRDOUB =  0.00D+00  THRDIV  =  1.00D-05  THRRED  =  1.00D-07  THRPSP  =  1.00D+00  THRDC   =  1.00D-10  THRCS   =  1.00D-10
 THRNRM  =  1.00D-08  THREQ   =  0.00D+00  THRDE   =  1.00D+00  THRREF  =  1.00D-05  SPARFAC =  1.00D+00  THRDLP  =  1.00D-07
 THRDIA  =  1.00D-10  THRDLS  =  1.00D-07  THRGPS  =  0.00D+00  THRKEX  =  0.00D+00  THRDIS  =  2.00D-01  THRVAR  =  1.00D-10
 THRLOC  =  1.00D-06  THRGAP  =  1.00D-06  THRLOCT = -1.00D+00  THRGAPT = -1.00D+00  THRORB  =  1.00D-06  THRMLTP =  0.00D+00
 THRCPQCI=  1.00D-10  KEXTA   =  0.00D+00  THRCOARS=  0.00D+00  SYMTOL  =  1.00D-06  GRADTOL =  1.00D-06  THROVL  =  1.00D-08
 THRORTH =  1.00D-08  GRID    =  1.00D-06  GRIDMAX =  1.00D-03  DTMAX   =  0.00D+00  THROCCDE=  1.00D-01  THROCCDE=  1.00D-01



 THRESHOLDS:

 ZERO    =  1.00D-22  ONEINT  =  1.00D-22  TWOINT  =  1.00D-22  PREFAC  =  1.00D-14  LOCALI  =  1.00D-09  EORDER  =  1.00D-04
 ENERGY  =  1.00D-12  ETEST   =  0.00D+00  EDENS   =  0.00D+00  THRDEDEF=  1.00D-06  GRADIENT=  1.00D-02  STEP    =  1.00D-03
 ORBITAL =  1.00D-05  CIVEC   =  1.00D-05  COEFF   =  1.00D-04  PRINTCI =  5.00D-02  PUNCHCI =  9.90D+01  OPTGRAD =  1.00D-08
 OPTENERG=  1.00D-06  OPTSTEP =  1.00D-08  THRGRAD =  1.00D-10  COMPRESS=  1.00D-11  VARMIN  =  1.00D-07  VARMAX  =  1.00D-03
 THRDOUB =  0.00D+00  THRDIV  =  1.00D-05  THRRED  =  1.00D-07  THRPSP  =  1.00D+00  THRDC   =  1.00D-10  THRCS   =  1.00D-10
 THRNRM  =  1.00D-08  THREQ   =  0.00D+00  THRDE   =  1.00D+00  THRREF  =  1.00D-05  SPARFAC =  1.00D+00  THRDLP  =  1.00D-07
 THRDIA  =  1.00D-10  THRDLS  =  1.00D-07  THRGPS  =  0.00D+00  THRKEX  =  0.00D+00  THRDIS  =  2.00D-01  THRVAR  =  1.00D-10
 THRLOC  =  1.00D-06  THRGAP  =  1.00D-06  THRLOCT = -1.00D+00  THRGAPT = -1.00D+00  THRORB  =  1.00D-06  THRMLTP =  0.00D+00
 THRCPQCI=  1.00D-10  KEXTA   =  0.00D+00  THRCOARS=  0.00D+00  SYMTOL  =  1.00D-06  GRADTOL =  1.00D-06  THROVL  =  1.00D-08
 THRORTH =  1.00D-08  GRID    =  1.00D-06  GRIDMAX =  1.00D-03  DTMAX   =  0.00D+00  THROCCDE=  1.00D-01  THROCCDE=  1.00D-01



 Input parameters for SORTINT:

 COMPRESS =    0.000000
 C_FINAL  =    1.000000
 DEBUG    =   -1.000000
 C_SORT1  =    0.000000
 C_SEWARD =    0.000000
 THRESH   =    0.000000
 IO       =  molpro                                                          
 SPRI     =    0.000000
 SETTING GEOMTYP        =    XYZ
 ZUNIT=BOHR
 

 Variable memory set to  995000000 words,  buffer space   230000 words

 SETTING BASIS          =    AVQZ


 Recomputing integrals since basis changed


 Using spherical harmonics

 Library entry N      S aug-cc-pVQZ          selected for orbital group  1
 Library entry N      P aug-cc-pVQZ          selected for orbital group  1
 Library entry N      D aug-cc-pVQZ          selected for orbital group  1
 Library entry N      F aug-cc-pVQZ          selected for orbital group  1
 Library entry N      G aug-cc-pVQZ          selected for orbital group  1
 Library entry H      S aug-cc-pVQZ          selected for orbital group  2
 Library entry H      P aug-cc-pVQZ          selected for orbital group  2
 Library entry H      D aug-cc-pVQZ          selected for orbital group  2
 Library entry H      F aug-cc-pVQZ          selected for orbital group  2
 Library entry O      S aug-cc-pVQZ          selected for orbital group  3
 Library entry O      P aug-cc-pVQZ          selected for orbital group  3
 Library entry O      D aug-cc-pVQZ          selected for orbital group  3
 Library entry O      F aug-cc-pVQZ          selected for orbital group  3
 Library entry O      G aug-cc-pVQZ          selected for orbital group  3


 PROGRAM * SEWARD (Integral evaluation for generally contracted gaussian basis sets)     Author: Roland Lindh, 1990

 Geometry written to block  1 of record 700


 Point group  Cs  



 ATOMIC COORDINATES

 NR  ATOM    CHARGE       X              Y              Z

   1  N       7.00    0.000000000   -0.177121992   -1.142280234
   2  H       1.00    0.000000000    1.679253591   -1.929520768
   3  O       8.00    0.000000000    0.039636191    1.121211411

 Bond lengths in Bohr (Angstrom)

 1-2  2.016402232  1-3  2.273846639
     ( 1.067034109)     ( 1.203267822)

 Bond angles

  2-1-3  107.51041520

 NUCLEAR CHARGE:                   16
 NUMBER OF PRIMITIVE AOS:         293
 NUMBER OF SYMMETRY AOS:          234
 NUMBER OF CONTRACTIONS:          206   ( 130A'  +  76A"  )
 NUMBER OF CORE ORBITALS:           2   (   2A'  +   0A"  )
 NUMBER OF VALENCE ORBITALS:        9   (   7A'  +   2A"  )


 NUCLEAR REPULSION ENERGY   30.40925214

 Eigenvalues of metric

         1 0.604E-04 0.148E-03 0.318E-03 0.436E-03 0.586E-03 0.701E-03 0.103E-02 0.108E-02
         2 0.816E-03 0.171E-02 0.498E-02 0.893E-02 0.104E-01 0.123E-01 0.125E-01 0.193E-01


 Contracted 2-electron integrals neglected if value below      1.0D-22

      109944328. INTEGRALS WRITTEN OUT IN   26849 BLOCKS ON RECORD 1290 OF FILE 1


 NUMBER OF SORTED TWO-ELECTRON INTEGRALS:  115283741.     BUFFER LENGTH:  32768
 NUMBER OF SEGMENTS:   8  SEGMENT LENGTH:   15998004      RECORD LENGTH: 524288

 Memory used in sort:      16.56 MW

 SORT1 READ   109944328. AND WROTE   110864475. INTEGRALS IN    322 RECORDS. CPU TIME:     2.77 SEC, REAL TIME:     3.47 SEC
 SORT2 READ   110864475. AND WROTE   115283741. INTEGRALS IN      8 RECORDS. CPU TIME:     1.53 SEC, REAL TIME:     2.05 SEC

 FILE SIZES:   FILE 1:  1780.6 MBYTE,  FILE 4:  1350.6 MBYTE,   TOTAL:   3131.2 MBYTE

 OPERATOR DM      FOR CENTER  0  COORDINATES:    0.000000    0.000000    0.000000


 **********************************************************************************************************************************
 DATASETS  * FILE   NREC   LENGTH (MB)   RECORD NAMES
              1      19      944.13       500      610      700      900      950      970     1000      129      960     1100   
                                          VAR    BASINP    GEOM    SYMINP    ZMAT    AOBASIS   BASIS     P2S    ABASIS      S 
                                         1400     1410     1200     1210     1080     1600     1650     1300     1700   
                                           T        V       H0       H01     AOSYM     SMH    MOLCAS    ERIS     OPER   

 PROGRAMS   *        TOTAL       INT
 CPU TIMES  *        14.54     14.44
 REAL TIME  *        17.42 SEC
 DISK USED  *         3.13 GB      
 **********************************************************************************************************************************


 PROGRAM * RHF-SCF (CLOSED SHELL)       Authors: W. Meyer, H.-J. Werner


 NUMBER OF ELECTRONS:       8+    8-
 CONVERGENCE THRESHOLDS:    1.00E-10 (Density)    1.00E-13 (Energy)
 MAX. NUMBER OF ITERATIONS:      500
 INTERPOLATION TYPE:            DIIS
 INTERPOLATION STEPS:              2 (START)      1 (STEP)
 LEVEL SHIFTS:                  0.00 (CLOSED)  0.00 (OPEN) 



 Orbital guess generated from atomic densities. Full valence occupancy:    9   2

 Molecular orbital dump at record        2100.2

 Initial occupancy:   7   1

 ITERATION    DDIFF          GRAD             ENERGY        2-EL.EN.            DIPOLE MOMENTS         DIIS   ORB.
    1      0.000D+00      0.000D+00      -129.79654808    154.023565    0.00000    0.57643   -1.01092    0    start
    2      0.000D+00      0.813D-02      -129.82396388    155.281016    0.00000    0.60641   -0.20067    1    diag
    3      0.653D-02      0.618D-02      -129.84681334    155.389273    0.00000    0.54635   -0.58198    2    diag
    4      0.333D-02      0.963D-03      -129.84760821    155.105823    0.00000    0.55410   -0.52164    3    diag
    5      0.601D-03      0.316D-03      -129.84773585    155.200027    0.00000    0.55957   -0.52434    4    diag
    6      0.253D-03      0.923D-04      -129.84775641    155.183697    0.00000    0.55987   -0.52019    5    diag
    7      0.974D-04      0.456D-04      -129.84776231    155.186585    0.00000    0.56116   -0.51764    6    diag
    8      0.668D-04      0.157D-04      -129.84776295    155.185890    0.00000    0.56120   -0.51665    7    diag
    9      0.252D-04      0.302D-05      -129.84776298    155.185773    0.00000    0.56117   -0.51643    8    diag
   10      0.498D-05      0.690D-06      -129.84776298    155.185753    0.00000    0.56113   -0.51640    9    orth
   11      0.995D-06      0.140D-06      -129.84776298    155.185749    0.00000    0.56113   -0.51640    9    diag
   12      0.187D-06      0.285D-07      -129.84776298    155.185749    0.00000    0.56112   -0.51639    9    diag
   13      0.412D-07      0.738D-08      -129.84776298    155.185749    0.00000    0.56112   -0.51639    9    diag
   14      0.112D-07      0.148D-08      -129.84776298    155.185749    0.00000    0.56112   -0.51639    9    diag
   15      0.207D-08      0.430D-09      -129.84776298    155.185749    0.00000    0.56112   -0.51639    9    diag
   16      0.617D-09      0.132D-09      -129.84776298    155.185749    0.00000    0.56112   -0.51639    9    diag
   17      0.121D-09      0.369D-10      -129.84776298    155.185749    0.00000    0.56112   -0.51639    9    diag
   18      0.353D-10      0.126D-10      -129.84776298    155.185749    0.00000    0.56112   -0.51639    9    diag
   19      0.171D-10      0.310D-11      -129.84776298    155.185749    0.00000    0.56112   -0.51639    9    fixocc
   20      0.562D-11      0.545D-12      -129.84776298    155.185749    0.00000    0.56112   -0.51639    9    orth
   21      0.595D-11      0.265D-12      -129.84776298    155.185749    0.00000    0.56112   -0.51639    9    diag
   22      0.342D-11      0.164D-12      -129.84776298    155.185749    0.00000    0.56112   -0.51639    9    diag
   23      0.132D-11      0.133D-12      -129.84776298    155.185749    0.00000    0.56112   -0.51639    9    diag
   24      0.872D-12      0.122D-12      -129.84776298    155.185749    0.00000    0.56112   -0.51639    9    diag
   25      0.804D-12      0.957D-13      -129.84776298    155.185749    0.00000    0.56112   -0.51639    0    orth

 Final occupancy:   7   1

 !RHF STATE 1.1 Energy               -129.847762979726
 Nuclear energy                        30.40925214
 One-electron energy                 -237.84988953
 Two-electron energy                   77.59287441
 Virial quotient                       -1.00175870
 !RHF STATE 1.1 Dipole moment           0.00000000     0.56112341    -0.51639384
 Dipole moment /Debye                   0.00000000     1.42614003    -1.31245625

 Orbital energies:

         1.1          2.1          3.1          4.1          5.1          6.1          7.1          8.1          9.1
    -20.653382   -15.714001    -1.533662    -0.989343    -0.747061    -0.667341    -0.428629     0.026466     0.079500

         1.2          2.2          3.2
     -0.598653     0.064595     0.111007

 HOMO      7.1    -0.428629 =     -11.6636eV
 LUMO      8.1     0.026466 =       0.7202eV
 LUMO-HOMO         0.455095 =      12.3838eV


 **********************************************************************************************************************************
 DATASETS  * FILE   NREC   LENGTH (MB)   RECORD NAMES
              1      19      944.13       500      610      700      900      950      970     1000      129      960     1100   
                                          VAR    BASINP    GEOM    SYMINP    ZMAT    AOBASIS   BASIS     P2S    ABASIS      S 
                                         1400     1410     1200     1210     1080     1600     1650     1300     1700   
                                           T        V       H0       H01     AOSYM     SMH    MOLCAS    ERIS     OPER   

              2       4        3.27       700     1000      520     2100   
                                         GEOM     BASIS   MCVARS     RHF  

 PROGRAMS   *        TOTAL        HF       INT
 CPU TIMES  *        30.03     15.49     14.44
 REAL TIME  *        35.99 SEC
 DISK USED  *         3.13 GB      
 **********************************************************************************************************************************


 PROGRAM * CCSD (Closed-shell coupled cluster)     Authors: C. Hampel, H.-J. Werner, 1991, M. Deegan, P.J. Knowles, 1992


 Convergence thresholds:  THRVAR = 1.00D-08  THRDEN = 1.00D-12

 CCSD(T)     terms to be evaluated (factor= 1.000)


 Number of core orbitals:           2 (   2   0 )
 Number of closed-shell orbitals:   6 (   5   1 )
 Number of external orbitals:     198 ( 123  75 )

 Molecular orbitals read from record     2100.2  Type=RHF/CANONICAL (state 1.1)

 Number of N-1 electron functions:               6
 Number of N-2 electron functions:              21
 Number of singly external CSFs:               690
 Number of doubly external CSFs:            362646
 Total number of CSFs:                      363337

 Length of J-op  integral file:               0.00 MB
 Length of K-op  integral file:               1.60 MB
 Length of 3-ext integral record:             0.00 MB

 Memory could be reduced to 34.67 Mwords without degradation in triples

 Integral transformation finished. Total CPU:   1.95 sec, npass=  1  Memory used:   9.53 MW

 Reference energy:                   -129.84776298

 MP2 singlet pair energy:              -0.30148015
 MP2 triplet pair energy:              -0.17032208
 MP2 correlation energy:               -0.47180223
 MP2 total energy:                   -130.31956521

 SCS-MP2 correlation energy:           -0.46775436   (PS=  1.200000  PT=  0.333333)
 SCS-MP2 total energy:               -130.31551734

 ITER.      SQ.NORM     CORR.ENERGY   TOTAL ENERGY   ENERGY CHANGE        DEN1      VAR(S)    VAR(P)  DIIS     TIME  TIME/IT
   1      1.12102656    -0.47198085  -130.31974383    -0.00017862     0.01615642  0.31D-02  0.32D-02  1  1     3.76     3.07
   2      1.13169991    -0.47197085  -130.31973383     0.00001001    -0.01245959  0.10D-03  0.49D-03  2  2     5.61     2.52
   3      1.13799185    -0.47234998  -130.32011296    -0.00037913    -0.00304940  0.49D-04  0.53D-04  3  3     7.43     2.34
   4      1.14071450    -0.47235494  -130.32011792    -0.00000496    -0.00093147  0.44D-05  0.94D-05  4  4     9.24     2.25
   5      1.14179310    -0.47238436  -130.32014734    -0.00002942    -0.00023610  0.12D-05  0.16D-05  5  5    11.06     2.19
   6      1.14214200    -0.47237000  -130.32013298     0.00001436    -0.00004999  0.12D-06  0.38D-06  6  6    12.88     2.15
   7      1.14221603    -0.47237013  -130.32013311    -0.00000013     0.00000209  0.19D-07  0.85D-07  6  1    14.71     2.13
   8      1.14223919    -0.47237043  -130.32013341    -0.00000031    -0.00000124  0.35D-08  0.17D-07  6  2    16.56     2.11
   9      1.14224785    -0.47236988  -130.32013286     0.00000056    -0.00000038  0.21D-08  0.17D-08  6  3    18.39     2.09
  10      1.14224334    -0.47237062  -130.32013360    -0.00000075     0.00000151  0.29D-09  0.27D-09  6  5    20.21     2.08
  11      1.14224505    -0.47237058  -130.32013356     0.00000004    -0.00000031  0.90D-10  0.24D-10  6  4    22.07     2.07
  12      1.14224465    -0.47237065  -130.32013363    -0.00000007     0.00000002  0.17D-10  0.58D-11  6  6    23.91     2.06
  13      1.14224447    -0.47237065  -130.32013363    -0.00000000    -0.00000004  0.31D-11  0.80D-12  6  1    25.74     2.05
  14      1.14224420    -0.47237066  -130.32013364    -0.00000001     0.00000004  0.42D-12  0.16D-12  6  3    27.58     2.05
  15      1.14224413    -0.47237066  -130.32013364    -0.00000000     0.00000001  0.12D-12  0.22D-13  6  2    29.44     2.04
  16      1.14224412    -0.47237066  -130.32013364     0.00000000     0.00000000  0.28D-13  0.96D-14  6  4    31.29     2.04
  17      1.14224412    -0.47237066  -130.32013364    -0.00000000    -0.00000000  0.13D-14  0.10D-14  6  5    33.13     2.03
  18      1.14224413    -0.47237066  -130.32013364     0.00000000    -0.00000000  0.22D-15  0.23D-15  6  6    35.00     2.03
  19      1.14224413    -0.47237066  -130.32013364     0.00000000    -0.00000000  0.29D-16  0.25D-16  6  5    36.80     2.03
  20      1.14224413    -0.47237066  -130.32013364     0.00000000    -0.00000000  0.56D-17  0.36D-17  6  1    38.63     2.02
  21      1.14224413    -0.47237066  -130.32013364    -0.00000000     0.00000000  0.70D-18  0.51D-18  6  3    40.46     2.02
  22      1.14224413    -0.47237066  -130.32013364    -0.00000000     0.00000000  0.92D-19  0.54D-19  6  2    42.31     2.02
  23      1.14224413    -0.47237066  -130.32013364    -0.00000000     0.00000000  0.19D-19  0.10D-19  6  4    44.15     2.02
  24      1.14224413    -0.47237066  -130.32013364    -0.00000000     0.00000000  0.69D-20  0.16D-20  6  6    46.01     2.02
  25      1.14224413    -0.47237066  -130.32013364     0.00000000    -0.00000000  0.23D-20  0.58D-21  6  5    47.89     2.01

 Norm of t1 vector:      0.07647172      S-energy:    -0.00000000      T1 diagnostic:  0.01560973
                                                                       D1 diagnostic:  0.04152049

 Doubles amplitudes (print threshold =  0.500E-01):

         I         J         SYM. A    SYM. B    A         B      T(IJ, AB)

         6         6         2         2         1         1     -0.09601610


 Total CPU time for triples:     22.23 sec


 RESULTS
 =======

  Reference energy                   -129.847762979726
  CCSD singlet pair energy             -0.326503893856
  CCSD triplet pair energy             -0.145866769013
  CCSD correlation energy              -0.472370662870

  Triples (T) contribution             -0.022310105843
  Total correlation energy             -0.494680768713

  CCSD total energy                  -130.320133642596
  CCSD[T] energy                     -130.343509036976
  CCSD-T energy                      -130.342058354052
 !CCSD(T) total energy               -130.342443748439

 Timing summary (sec):

 STEP                 CPU(USER)    SYS     CPU(TOT)    WALL
 Transformation          1.97      0.27      2.24      2.44
 CCSD iterations        45.93      3.29     49.22     50.39
 Triples                22.23      0.41     22.64     22.65

 Program statistics:

 Available memory in ccsd:               994999756
 Min. memory needed in ccsd:               1265322
 Max. memory used in ccsd:                 1555950
 Max. memory used in cckext:               2415326 (25 integral passes)



 **********************************************************************************************************************************
 DATASETS  * FILE   NREC   LENGTH (MB)   RECORD NAMES
              1      20     1044.68       500      610      700      900      950      970     1000      129      960     1100   
                                          VAR    BASINP    GEOM    SYMINP    ZMAT    AOBASIS   BASIS     P2S    ABASIS      S 
                                         1400     1410     1200     1210     1080     1600     1650     1300     1700     1380   
                                           T        V       H0       H01     AOSYM     SMH    MOLCAS    ERIS     OPER     JKOP   

              2       4        3.27       700     1000      520     2100   
                                         GEOM     BASIS   MCVARS     RHF  

 PROGRAMS   *        TOTAL   CCSD(T)        HF       INT
 CPU TIMES  *       100.19     70.15     15.49     14.44
 REAL TIME  *       111.50 SEC
 DISK USED  *         3.13 GB      
 **********************************************************************************************************************************

 CCSD(T)/aug-cc-pVQZ energy=   -130.342443748439

        CCSD(T)         HF-SCF  
   -130.34244375   -129.84776298
 **********************************************************************************************************************************
 Molpro calculation terminated
 Variable memory released
