
 Primary working directories    : /tmp/r2666/234799.maple
 Secondary working directories  : /tmp/r2666/234799.maple
 Wavefunction directory         : /ddn/home4/r2666/wfu/
 Main file repository           : /tmp/r2666/234799.maple/

 SHA1      : d5ffa45e93fdbca01ffc919aa182cfdae0147319
 NAME      : 2015.1.35
 ARCHNAME  : linux/x86_64
 FC        : /opt/intel/composer_xe_2015.1.133/bin/intel64/ifort
 BLASLIB   : -Wl,-_start-group /opt/intel/mkl/lib/intel64/libmkl_intel_ilp64.a /opt/intel/mkl/lib/intel64/libmkl_intel_thread.a /opt/intel/mkl/lib/intel64/libmkl_core.a -Wl,-_end-group
 id        : olemiss

 Nodes     nprocs
 cn096        1

 Using customized tuning parameters: mindgm=1; mindgv=20; mindgc=4; mindgr=1; noblas=0; minvec=7
 default implementation of scratch files=df  

 ***,hno CCSD(T)/TZ-F12 QFF
 memory, 995, m;
 gthresh,energy=1.d-12,zero=1.d-22,oneint=1.d-22,twoint=1.d-22;
 gthresh,optgrad=1.d-8,optstep=1.d-8;
 nocompress;
 geomtyp=xyz
 bohr
 geometry={
 3
         42        42
 N        0.0000000000       -0.1505436156       -1.1486938794
 H        0.0000000000        1.6637098651       -1.9382334832
 O        0.0000000000        0.0286015405        1.1363377716
 }
 
 basis=avqz
   {hf,maxit=500;accu,20;}
 {ccsd(t),nocheck,maxit=250;orbital,IGNORE_ERROR;}

 Variables initialized (889), CPU time= 0.01 sec
 Commands  initialized (702), CPU time= 0.01 sec, 572 directives.
 Default parameters read. Elapsed time= 0.06 sec

 Checking input...
 Passed
1


                                         ***  PROGRAM SYSTEM MOLPRO  ***
                                       Copyright, TTI GmbH Stuttgart, 2015
                                    Version 2015.1 linked Jul  9 2018 13:16:40


 **********************************************************************************************************************************
 LABEL *   hno CCSD(T)/TZ-F12 QFF                                                        
  64 bit serial version                                                                  DATE: 08-Feb-20          TIME: 17:52:09  
 **********************************************************************************************************************************

 SHA1:             d5ffa45e93fdbca01ffc919aa182cfdae0147319
 **********************************************************************************************************************************

 THRESHOLDS:

 ZERO    =  1.00D-22  ONEINT  =  1.00D-22  TWOINT  =  1.00D-22  PREFAC  =  1.00D-14  LOCALI  =  1.00D-09  EORDER  =  1.00D-04
 ENERGY  =  1.00D-12  ETEST   =  0.00D+00  EDENS   =  0.00D+00  THRDEDEF=  1.00D-06  GRADIENT=  1.00D-02  STEP    =  1.00D-03
 ORBITAL =  1.00D-05  CIVEC   =  1.00D-05  COEFF   =  1.00D-04  PRINTCI =  5.00D-02  PUNCHCI =  9.90D+01  OPTGRAD =  3.00D-04
 OPTENERG=  1.00D-06  OPTSTEP =  3.00D-04  THRGRAD =  1.00D-10  COMPRESS=  1.00D-11  VARMIN  =  1.00D-07  VARMAX  =  1.00D-03
 THRDOUB =  0.00D+00  THRDIV  =  1.00D-05  THRRED  =  1.00D-07  THRPSP  =  1.00D+00  THRDC   =  1.00D-10  THRCS   =  1.00D-10
 THRNRM  =  1.00D-08  THREQ   =  0.00D+00  THRDE   =  1.00D+00  THRREF  =  1.00D-05  SPARFAC =  1.00D+00  THRDLP  =  1.00D-07
 THRDIA  =  1.00D-10  THRDLS  =  1.00D-07  THRGPS  =  0.00D+00  THRKEX  =  0.00D+00  THRDIS  =  2.00D-01  THRVAR  =  1.00D-10
 THRLOC  =  1.00D-06  THRGAP  =  1.00D-06  THRLOCT = -1.00D+00  THRGAPT = -1.00D+00  THRORB  =  1.00D-06  THRMLTP =  0.00D+00
 THRCPQCI=  1.00D-10  KEXTA   =  0.00D+00  THRCOARS=  0.00D+00  SYMTOL  =  1.00D-06  GRADTOL =  1.00D-06  THROVL  =  1.00D-08
 THRORTH =  1.00D-08  GRID    =  1.00D-06  GRIDMAX =  1.00D-03  DTMAX   =  0.00D+00  THROCCDE=  1.00D-01  THROCCDE=  1.00D-01



 THRESHOLDS:

 ZERO    =  1.00D-22  ONEINT  =  1.00D-22  TWOINT  =  1.00D-22  PREFAC  =  1.00D-14  LOCALI  =  1.00D-09  EORDER  =  1.00D-04
 ENERGY  =  1.00D-12  ETEST   =  0.00D+00  EDENS   =  0.00D+00  THRDEDEF=  1.00D-06  GRADIENT=  1.00D-02  STEP    =  1.00D-03
 ORBITAL =  1.00D-05  CIVEC   =  1.00D-05  COEFF   =  1.00D-04  PRINTCI =  5.00D-02  PUNCHCI =  9.90D+01  OPTGRAD =  1.00D-08
 OPTENERG=  1.00D-06  OPTSTEP =  1.00D-08  THRGRAD =  1.00D-10  COMPRESS=  1.00D-11  VARMIN  =  1.00D-07  VARMAX  =  1.00D-03
 THRDOUB =  0.00D+00  THRDIV  =  1.00D-05  THRRED  =  1.00D-07  THRPSP  =  1.00D+00  THRDC   =  1.00D-10  THRCS   =  1.00D-10
 THRNRM  =  1.00D-08  THREQ   =  0.00D+00  THRDE   =  1.00D+00  THRREF  =  1.00D-05  SPARFAC =  1.00D+00  THRDLP  =  1.00D-07
 THRDIA  =  1.00D-10  THRDLS  =  1.00D-07  THRGPS  =  0.00D+00  THRKEX  =  0.00D+00  THRDIS  =  2.00D-01  THRVAR  =  1.00D-10
 THRLOC  =  1.00D-06  THRGAP  =  1.00D-06  THRLOCT = -1.00D+00  THRGAPT = -1.00D+00  THRORB  =  1.00D-06  THRMLTP =  0.00D+00
 THRCPQCI=  1.00D-10  KEXTA   =  0.00D+00  THRCOARS=  0.00D+00  SYMTOL  =  1.00D-06  GRADTOL =  1.00D-06  THROVL  =  1.00D-08
 THRORTH =  1.00D-08  GRID    =  1.00D-06  GRIDMAX =  1.00D-03  DTMAX   =  0.00D+00  THROCCDE=  1.00D-01  THROCCDE=  1.00D-01



 Input parameters for SORTINT:

 COMPRESS =    0.000000
 C_FINAL  =    1.000000
 DEBUG    =   -1.000000
 C_SORT1  =    0.000000
 C_SEWARD =    0.000000
 THRESH   =    0.000000
 IO       =  molpro                                                          
 SPRI     =    0.000000
 SETTING GEOMTYP        =    XYZ
 ZUNIT=BOHR
 

 Variable memory set to  995000000 words,  buffer space   230000 words

 SETTING BASIS          =    AVQZ


 Recomputing integrals since basis changed


 Using spherical harmonics

 Library entry N      S aug-cc-pVQZ          selected for orbital group  1
 Library entry N      P aug-cc-pVQZ          selected for orbital group  1
 Library entry N      D aug-cc-pVQZ          selected for orbital group  1
 Library entry N      F aug-cc-pVQZ          selected for orbital group  1
 Library entry N      G aug-cc-pVQZ          selected for orbital group  1
 Library entry H      S aug-cc-pVQZ          selected for orbital group  2
 Library entry H      P aug-cc-pVQZ          selected for orbital group  2
 Library entry H      D aug-cc-pVQZ          selected for orbital group  2
 Library entry H      F aug-cc-pVQZ          selected for orbital group  2
 Library entry O      S aug-cc-pVQZ          selected for orbital group  3
 Library entry O      P aug-cc-pVQZ          selected for orbital group  3
 Library entry O      D aug-cc-pVQZ          selected for orbital group  3
 Library entry O      F aug-cc-pVQZ          selected for orbital group  3
 Library entry O      G aug-cc-pVQZ          selected for orbital group  3


 PROGRAM * SEWARD (Integral evaluation for generally contracted gaussian basis sets)     Author: Roland Lindh, 1990

 Geometry written to block  1 of record 700


 Point group  Cs  



 ATOMIC COORDINATES

 NR  ATOM    CHARGE       X              Y              Z

   1  N       7.00    0.000000000   -0.150543616   -1.148693879
   2  H       1.00    0.000000000    1.663709865   -1.938233483
   3  O       8.00    0.000000000    0.028601541    1.136337772

 Bond lengths in Bohr (Angstrom)

 1-2  1.978607712  1-3  2.292043331
     ( 1.047034111)     ( 1.212897097)

 Bond angles

  2-1-3  109.03526462

 NUCLEAR CHARGE:                   16
 NUMBER OF PRIMITIVE AOS:         293
 NUMBER OF SYMMETRY AOS:          234
 NUMBER OF CONTRACTIONS:          206   ( 130A'  +  76A"  )
 NUMBER OF CORE ORBITALS:           2   (   2A'  +   0A"  )
 NUMBER OF VALENCE ORBITALS:        9   (   7A'  +   2A"  )


 NUCLEAR REPULSION ENERGY   30.26750673

 Eigenvalues of metric

         1 0.593E-04 0.144E-03 0.319E-03 0.435E-03 0.590E-03 0.674E-03 0.101E-02 0.109E-02
         2 0.833E-03 0.160E-02 0.494E-02 0.895E-02 0.100E-01 0.124E-01 0.126E-01 0.187E-01


 Contracted 2-electron integrals neglected if value below      1.0D-22

      109945081. INTEGRALS WRITTEN OUT IN   26849 BLOCKS ON RECORD 1290 OF FILE 1


 NUMBER OF SORTED TWO-ELECTRON INTEGRALS:  115283741.     BUFFER LENGTH:  32768
 NUMBER OF SEGMENTS:   8  SEGMENT LENGTH:   15998004      RECORD LENGTH: 524288

 Memory used in sort:      16.56 MW

 SORT1 READ   109945081. AND WROTE   110865248. INTEGRALS IN    322 RECORDS. CPU TIME:     1.84 SEC, REAL TIME:     2.70 SEC
 SORT2 READ   110865248. AND WROTE   115283741. INTEGRALS IN      8 RECORDS. CPU TIME:     1.31 SEC, REAL TIME:     1.88 SEC

 FILE SIZES:   FILE 1:  1780.6 MBYTE,  FILE 4:  1350.6 MBYTE,   TOTAL:   3131.2 MBYTE

 OPERATOR DM      FOR CENTER  0  COORDINATES:    0.000000    0.000000    0.000000


 **********************************************************************************************************************************
 DATASETS  * FILE   NREC   LENGTH (MB)   RECORD NAMES
              1      19      944.14       500      610      700      900      950      970     1000      129      960     1100   
                                          VAR    BASINP    GEOM    SYMINP    ZMAT    AOBASIS   BASIS     P2S    ABASIS      S 
                                         1400     1410     1200     1210     1080     1600     1650     1300     1700   
                                           T        V       H0       H01     AOSYM     SMH    MOLCAS    ERIS     OPER   

 PROGRAMS   *        TOTAL       INT
 CPU TIMES  *        11.06     10.95
 REAL TIME  *        14.48 SEC
 DISK USED  *         3.13 GB      
 **********************************************************************************************************************************


 PROGRAM * RHF-SCF (CLOSED SHELL)       Authors: W. Meyer, H.-J. Werner


 NUMBER OF ELECTRONS:       8+    8-
 CONVERGENCE THRESHOLDS:    1.00E-10 (Density)    1.00E-13 (Energy)
 MAX. NUMBER OF ITERATIONS:      500
 INTERPOLATION TYPE:            DIIS
 INTERPOLATION STEPS:              2 (START)      1 (STEP)
 LEVEL SHIFTS:                  0.00 (CLOSED)  0.00 (OPEN) 



 Orbital guess generated from atomic densities. Full valence occupancy:    9   2

 Molecular orbital dump at record        2100.2

 Initial occupancy:   7   1

 ITERATION    DDIFF          GRAD             ENERGY        2-EL.EN.            DIPOLE MOMENTS         DIIS   ORB.
    1      0.000D+00      0.000D+00      -129.79565679    153.778805    0.00000    0.60715   -1.04351    0    start
    2      0.000D+00      0.813D-02      -129.82276774    154.999984    0.00000    0.61317   -0.21100    1    diag
    3      0.658D-02      0.625D-02      -129.84619392    155.134567    0.00000    0.56375   -0.60503    2    diag
    4      0.336D-02      0.981D-03      -129.84701084    154.845579    0.00000    0.57064   -0.54259    3    diag
    5      0.612D-03      0.317D-03      -129.84713812    154.939523    0.00000    0.57597   -0.54513    4    diag
    6      0.254D-03      0.913D-04      -129.84715833    154.923368    0.00000    0.57625   -0.54088    5    diag
    7      0.966D-04      0.457D-04      -129.84716429    154.926053    0.00000    0.57746   -0.53821    6    diag
    8      0.668D-04      0.162D-04      -129.84716499    154.925350    0.00000    0.57750   -0.53715    7    diag
    9      0.265D-04      0.314D-05      -129.84716503    154.925230    0.00000    0.57746   -0.53692    8    diag
   10      0.534D-05      0.712D-06      -129.84716503    154.925212    0.00000    0.57743   -0.53689    9    orth
   11      0.103D-05      0.141D-06      -129.84716503    154.925208    0.00000    0.57742   -0.53689    9    diag
   12      0.186D-06      0.287D-07      -129.84716503    154.925208    0.00000    0.57742   -0.53689    9    diag
   13      0.394D-07      0.749D-08      -129.84716503    154.925208    0.00000    0.57742   -0.53689    9    diag
   14      0.109D-07      0.147D-08      -129.84716503    154.925208    0.00000    0.57742   -0.53689    9    diag
   15      0.198D-08      0.418D-09      -129.84716503    154.925208    0.00000    0.57742   -0.53689    9    diag
   16      0.593D-09      0.123D-09      -129.84716503    154.925208    0.00000    0.57742   -0.53689    9    diag
   17      0.108D-09      0.309D-10      -129.84716503    154.925208    0.00000    0.57742   -0.53689    9    diag
   18      0.286D-10      0.101D-10      -129.84716503    154.925208    0.00000    0.57742   -0.53689    9    diag
   19      0.132D-10      0.233D-11      -129.84716503    154.925208    0.00000    0.57742   -0.53689    9    fixocc
   20      0.396D-11      0.379D-12      -129.84716503    154.925208    0.00000    0.57742   -0.53689    9    orth
   21      0.228D-11      0.195D-12      -129.84716503    154.925208    0.00000    0.57742   -0.53689    9    diag
   22      0.236D-11      0.124D-12      -129.84716503    154.925208    0.00000    0.57742   -0.53689    9    diag
   23      0.979D-12      0.172D-12      -129.84716503    154.925208    0.00000    0.57742   -0.53689    9    diag
   24      0.109D-11      0.826D-13      -129.84716503    154.925208    0.00000    0.57742   -0.53689    9    diag
   25      0.950D-12      0.131D-12      -129.84716503    154.925208    0.00000    0.57742   -0.53689    9    diag
   26      0.511D-12      0.962D-13      -129.84716503    154.925208    0.00000    0.57742   -0.53689    0    orth

 Final occupancy:   7   1

 !RHF STATE 1.1 Energy               -129.847165026541
 Nuclear energy                        30.26750673
 One-electron energy                 -237.57727588
 Two-electron energy                   77.46260412
 Virial quotient                       -1.00185643
 !RHF STATE 1.1 Dipole moment           0.00000000     0.57741963    -0.53688508
 Dipole moment /Debye                   0.00000000     1.46755818    -1.36453638

 Orbital energies:

         1.1          2.1          3.1          4.1          5.1          6.1          7.1          8.1          9.1
    -20.654272   -15.712664    -1.525210    -0.997473    -0.746242    -0.664856    -0.431751     0.026231     0.079444

         1.2          2.2          3.2
     -0.593565     0.061902     0.110084

 HOMO      7.1    -0.431751 =     -11.7485eV
 LUMO      8.1     0.026231 =       0.7138eV
 LUMO-HOMO         0.457982 =      12.4623eV


 **********************************************************************************************************************************
 DATASETS  * FILE   NREC   LENGTH (MB)   RECORD NAMES
              1      19      944.14       500      610      700      900      950      970     1000      129      960     1100   
                                          VAR    BASINP    GEOM    SYMINP    ZMAT    AOBASIS   BASIS     P2S    ABASIS      S 
                                         1400     1410     1200     1210     1080     1600     1650     1300     1700   
                                           T        V       H0       H01     AOSYM     SMH    MOLCAS    ERIS     OPER   

              2       4        3.27       700     1000      520     2100   
                                         GEOM     BASIS   MCVARS     RHF  

 PROGRAMS   *        TOTAL        HF       INT
 CPU TIMES  *        24.43     13.37     10.95
 REAL TIME  *        31.24 SEC
 DISK USED  *         3.13 GB      
 **********************************************************************************************************************************


 PROGRAM * CCSD (Closed-shell coupled cluster)     Authors: C. Hampel, H.-J. Werner, 1991, M. Deegan, P.J. Knowles, 1992


 Convergence thresholds:  THRVAR = 1.00D-08  THRDEN = 1.00D-12

 CCSD(T)     terms to be evaluated (factor= 1.000)


 Number of core orbitals:           2 (   2   0 )
 Number of closed-shell orbitals:   6 (   5   1 )
 Number of external orbitals:     198 ( 123  75 )

 Molecular orbitals read from record     2100.2  Type=RHF/CANONICAL (state 1.1)

 Number of N-1 electron functions:               6
 Number of N-2 electron functions:              21
 Number of singly external CSFs:               690
 Number of doubly external CSFs:            362646
 Total number of CSFs:                      363337

 Length of J-op  integral file:               0.00 MB
 Length of K-op  integral file:               1.60 MB
 Length of 3-ext integral record:             0.00 MB

 Memory could be reduced to 34.67 Mwords without degradation in triples

 Integral transformation finished. Total CPU:   1.58 sec, npass=  1  Memory used:   9.53 MW

 Reference energy:                   -129.84716503

 MP2 singlet pair energy:              -0.30201252
 MP2 triplet pair energy:              -0.17070840
 MP2 correlation energy:               -0.47272092
 MP2 total energy:                   -130.31988595

 SCS-MP2 correlation energy:           -0.46863358   (PS=  1.200000  PT=  0.333333)
 SCS-MP2 total energy:               -130.31579861

 ITER.      SQ.NORM     CORR.ENERGY   TOTAL ENERGY   ENERGY CHANGE        DEN1      VAR(S)    VAR(P)  DIIS     TIME  TIME/IT
   1      1.12142196    -0.47256787  -130.31973289     0.00015305     0.01675860  0.32D-02  0.32D-02  1  1     2.92     1.50
   2      1.13223221    -0.47248379  -130.31964882     0.00008408    -0.01261168  0.11D-03  0.50D-03  2  2     4.27     1.52
   3      1.13863030    -0.47286860  -130.32003362    -0.00038481    -0.00307024  0.50D-04  0.55D-04  3  3     5.64     1.53
   4      1.14144745    -0.47287589  -130.32004092    -0.00000729    -0.00095142  0.45D-05  0.99D-05  4  4     7.00     1.53
   5      1.14258070    -0.47290623  -130.32007125    -0.00003034    -0.00024632  0.11D-05  0.17D-05  5  5     8.38     1.53
   6      1.14294630    -0.47289081  -130.32005584     0.00001542    -0.00005252  0.11D-06  0.41D-06  6  6     9.78     1.53
   7      1.14302048    -0.47289140  -130.32005643    -0.00000059     0.00000275  0.16D-07  0.93D-07  6  1    11.14     1.53
   8      1.14304354    -0.47289173  -130.32005676    -0.00000033    -0.00000117  0.35D-08  0.19D-07  6  2    12.50     1.53
   9      1.14304863    -0.47289133  -130.32005636     0.00000040     0.00000101  0.27D-08  0.22D-08  6  4    13.87     1.53
  10      1.14305116    -0.47289172  -130.32005674    -0.00000039    -0.00000078  0.51D-09  0.26D-09  6  3    15.25     1.53
  11      1.14305090    -0.47289178  -130.32005681    -0.00000006    -0.00000013  0.16D-09  0.38D-10  6  5    16.58     1.53
  12      1.14304991    -0.47289193  -130.32005696    -0.00000015     0.00000037  0.20D-10  0.11D-10  6  6    17.99     1.53
  13      1.14304903    -0.47289197  -130.32005700    -0.00000004     0.00000022  0.61D-11  0.25D-11  6  1    19.31     1.53
  14      1.14304833    -0.47289201  -130.32005703    -0.00000003     0.00000016  0.39D-12  0.52D-12  6  4    20.73     1.54
  15      1.14304811    -0.47289201  -130.32005704    -0.00000001     0.00000004  0.85D-13  0.41D-13  6  2    22.37     1.56
  16      1.14304806    -0.47289202  -130.32005704    -0.00000000     0.00000001  0.23D-13  0.76D-14  6  3    24.04     1.58
  17      1.14304803    -0.47289202  -130.32005704    -0.00000000     0.00000001  0.42D-14  0.11D-14  6  5    25.69     1.59
  18      1.14304802    -0.47289202  -130.32005704    -0.00000000     0.00000000  0.88D-15  0.26D-15  6  6    27.25     1.60
  19      1.14304802    -0.47289202  -130.32005704    -0.00000000     0.00000000  0.11D-15  0.54D-16  6  1    28.83     1.61
  20      1.14304803    -0.47289202  -130.32005704     0.00000000    -0.00000000  0.11D-16  0.80D-17  6  4    30.45     1.62
  21      1.14304803    -0.47289202  -130.32005704     0.00000000    -0.00000000  0.51D-18  0.71D-18  6  3    32.09     1.62
  22      1.14304803    -0.47289202  -130.32005704     0.00000000    -0.00000000  0.13D-18  0.16D-18  6  2    33.65     1.63
  23      1.14304803    -0.47289202  -130.32005704     0.00000000     0.00000000  0.36D-19  0.59D-19  6  5    35.22     1.64
  24      1.14304803    -0.47289202  -130.32005704    -0.00000000     0.00000000  0.28D-20  0.12D-19  6  1    36.82     1.64

 Norm of t1 vector:      0.07763269      S-energy:    -0.00000000      T1 diagnostic:  0.01584671
                                                                       D1 diagnostic:  0.04289357

 Doubles amplitudes (print threshold =  0.500E-01):

         I         J         SYM. A    SYM. B    A         B      T(IJ, AB)

         6         6         2         2         1         1     -0.10130351


 Total CPU time for triples:     18.39 sec


 RESULTS
 =======

  Reference energy                   -129.847165026541
  CCSD singlet pair energy             -0.326969708808
  CCSD triplet pair energy             -0.145922307421
  CCSD correlation energy              -0.472892016230

  Triples (T) contribution             -0.022496146052
  Total correlation energy             -0.495388162282

  CCSD total energy                  -130.320057042772
  CCSD[T] energy                     -130.343648165309
  CCSD-T energy                      -130.342163383460
 !CCSD(T) total energy               -130.342553188823

 Timing summary (sec):

 STEP                 CPU(USER)    SYS     CPU(TOT)    WALL
 Transformation          1.60      0.35      1.95      2.13
 CCSD iterations        35.23      4.24     39.47     39.61
 Triples                18.39      0.45     18.84     18.84

 Program statistics:

 Available memory in ccsd:               994999756
 Min. memory needed in ccsd:               1265322
 Max. memory used in ccsd:                 1555950
 Max. memory used in cckext:               2415326 (24 integral passes)



 **********************************************************************************************************************************
 DATASETS  * FILE   NREC   LENGTH (MB)   RECORD NAMES
              1      20     1044.69       500      610      700      900      950      970     1000      129      960     1100   
                                          VAR    BASINP    GEOM    SYMINP    ZMAT    AOBASIS   BASIS     P2S    ABASIS      S 
                                         1400     1410     1200     1210     1080     1600     1650     1300     1700     1380   
                                           T        V       H0       H01     AOSYM     SMH    MOLCAS    ERIS     OPER     JKOP   

              2       4        3.27       700     1000      520     2100   
                                         GEOM     BASIS   MCVARS     RHF  

 PROGRAMS   *        TOTAL   CCSD(T)        HF       INT
 CPU TIMES  *        79.68     55.25     13.37     10.95
 REAL TIME  *        92.00 SEC
 DISK USED  *         3.13 GB      
 **********************************************************************************************************************************

 CCSD(T)/aug-cc-pVQZ energy=   -130.342553188823

        CCSD(T)         HF-SCF  
   -130.34255319   -129.84716503
 **********************************************************************************************************************************
 Molpro calculation terminated
 Variable memory released
