
 Primary working directories    : /tmp/r2666/234815.maple
 Secondary working directories  : /tmp/r2666/234815.maple
 Wavefunction directory         : /ddn/home4/r2666/wfu/
 Main file repository           : /tmp/r2666/234815.maple/

 SHA1      : d5ffa45e93fdbca01ffc919aa182cfdae0147319
 NAME      : 2015.1.35
 ARCHNAME  : linux/x86_64
 FC        : /opt/intel/composer_xe_2015.1.133/bin/intel64/ifort
 BLASLIB   : -Wl,-_start-group /opt/intel/mkl/lib/intel64/libmkl_intel_ilp64.a /opt/intel/mkl/lib/intel64/libmkl_intel_thread.a /opt/intel/mkl/lib/intel64/libmkl_core.a -Wl,-_end-group
 id        : olemiss

 Nodes     nprocs
 cn039        1

 Using customized tuning parameters: mindgm=1; mindgv=20; mindgc=4; mindgr=1; noblas=0; minvec=7
 default implementation of scratch files=df  

 ***,hno CCSD(T)/TZ-F12 QFF
 memory, 995, m;
 gthresh,energy=1.d-12,zero=1.d-22,oneint=1.d-22,twoint=1.d-22;
 gthresh,optgrad=1.d-8,optstep=1.d-8;
 nocompress;
 geomtyp=xyz
 bohr
 geometry={
 3
         58        58
 N        0.0000000000       -0.1623772975       -1.1453007113
 H        0.0000000000        1.6660785145       -1.9257604237
 O        0.0000000000        0.0380665730        1.1204715440
 }
 
 basis=avqz
   {hf,maxit=500;accu,20;}
 {ccsd(t),nocheck,maxit=250;orbital,IGNORE_ERROR;}

 Variables initialized (889), CPU time= 0.01 sec
 Commands  initialized (702), CPU time= 0.00 sec, 572 directives.
 Default parameters read. Elapsed time= 0.05 sec

 Checking input...
 Passed
1


                                         ***  PROGRAM SYSTEM MOLPRO  ***
                                       Copyright, TTI GmbH Stuttgart, 2015
                                    Version 2015.1 linked Jul  9 2018 13:16:40


 **********************************************************************************************************************************
 LABEL *   hno CCSD(T)/TZ-F12 QFF                                                        
  64 bit serial version                                                                  DATE: 08-Feb-20          TIME: 17:53:02  
 **********************************************************************************************************************************

 SHA1:             d5ffa45e93fdbca01ffc919aa182cfdae0147319
 **********************************************************************************************************************************

 THRESHOLDS:

 ZERO    =  1.00D-22  ONEINT  =  1.00D-22  TWOINT  =  1.00D-22  PREFAC  =  1.00D-14  LOCALI  =  1.00D-09  EORDER  =  1.00D-04
 ENERGY  =  1.00D-12  ETEST   =  0.00D+00  EDENS   =  0.00D+00  THRDEDEF=  1.00D-06  GRADIENT=  1.00D-02  STEP    =  1.00D-03
 ORBITAL =  1.00D-05  CIVEC   =  1.00D-05  COEFF   =  1.00D-04  PRINTCI =  5.00D-02  PUNCHCI =  9.90D+01  OPTGRAD =  3.00D-04
 OPTENERG=  1.00D-06  OPTSTEP =  3.00D-04  THRGRAD =  1.00D-10  COMPRESS=  1.00D-11  VARMIN  =  1.00D-07  VARMAX  =  1.00D-03
 THRDOUB =  0.00D+00  THRDIV  =  1.00D-05  THRRED  =  1.00D-07  THRPSP  =  1.00D+00  THRDC   =  1.00D-10  THRCS   =  1.00D-10
 THRNRM  =  1.00D-08  THREQ   =  0.00D+00  THRDE   =  1.00D+00  THRREF  =  1.00D-05  SPARFAC =  1.00D+00  THRDLP  =  1.00D-07
 THRDIA  =  1.00D-10  THRDLS  =  1.00D-07  THRGPS  =  0.00D+00  THRKEX  =  0.00D+00  THRDIS  =  2.00D-01  THRVAR  =  1.00D-10
 THRLOC  =  1.00D-06  THRGAP  =  1.00D-06  THRLOCT = -1.00D+00  THRGAPT = -1.00D+00  THRORB  =  1.00D-06  THRMLTP =  0.00D+00
 THRCPQCI=  1.00D-10  KEXTA   =  0.00D+00  THRCOARS=  0.00D+00  SYMTOL  =  1.00D-06  GRADTOL =  1.00D-06  THROVL  =  1.00D-08
 THRORTH =  1.00D-08  GRID    =  1.00D-06  GRIDMAX =  1.00D-03  DTMAX   =  0.00D+00  THROCCDE=  1.00D-01  THROCCDE=  1.00D-01



 THRESHOLDS:

 ZERO    =  1.00D-22  ONEINT  =  1.00D-22  TWOINT  =  1.00D-22  PREFAC  =  1.00D-14  LOCALI  =  1.00D-09  EORDER  =  1.00D-04
 ENERGY  =  1.00D-12  ETEST   =  0.00D+00  EDENS   =  0.00D+00  THRDEDEF=  1.00D-06  GRADIENT=  1.00D-02  STEP    =  1.00D-03
 ORBITAL =  1.00D-05  CIVEC   =  1.00D-05  COEFF   =  1.00D-04  PRINTCI =  5.00D-02  PUNCHCI =  9.90D+01  OPTGRAD =  1.00D-08
 OPTENERG=  1.00D-06  OPTSTEP =  1.00D-08  THRGRAD =  1.00D-10  COMPRESS=  1.00D-11  VARMIN  =  1.00D-07  VARMAX  =  1.00D-03
 THRDOUB =  0.00D+00  THRDIV  =  1.00D-05  THRRED  =  1.00D-07  THRPSP  =  1.00D+00  THRDC   =  1.00D-10  THRCS   =  1.00D-10
 THRNRM  =  1.00D-08  THREQ   =  0.00D+00  THRDE   =  1.00D+00  THRREF  =  1.00D-05  SPARFAC =  1.00D+00  THRDLP  =  1.00D-07
 THRDIA  =  1.00D-10  THRDLS  =  1.00D-07  THRGPS  =  0.00D+00  THRKEX  =  0.00D+00  THRDIS  =  2.00D-01  THRVAR  =  1.00D-10
 THRLOC  =  1.00D-06  THRGAP  =  1.00D-06  THRLOCT = -1.00D+00  THRGAPT = -1.00D+00  THRORB  =  1.00D-06  THRMLTP =  0.00D+00
 THRCPQCI=  1.00D-10  KEXTA   =  0.00D+00  THRCOARS=  0.00D+00  SYMTOL  =  1.00D-06  GRADTOL =  1.00D-06  THROVL  =  1.00D-08
 THRORTH =  1.00D-08  GRID    =  1.00D-06  GRIDMAX =  1.00D-03  DTMAX   =  0.00D+00  THROCCDE=  1.00D-01  THROCCDE=  1.00D-01



 Input parameters for SORTINT:

 COMPRESS =    0.000000
 C_FINAL  =    1.000000
 DEBUG    =   -1.000000
 C_SORT1  =    0.000000
 C_SEWARD =    0.000000
 THRESH   =    0.000000
 IO       =  molpro                                                          
 SPRI     =    0.000000
 SETTING GEOMTYP        =    XYZ
 ZUNIT=BOHR
 

 Variable memory set to  995000000 words,  buffer space   230000 words

 SETTING BASIS          =    AVQZ


 Recomputing integrals since basis changed


 Using spherical harmonics

 Library entry N      S aug-cc-pVQZ          selected for orbital group  1
 Library entry N      P aug-cc-pVQZ          selected for orbital group  1
 Library entry N      D aug-cc-pVQZ          selected for orbital group  1
 Library entry N      F aug-cc-pVQZ          selected for orbital group  1
 Library entry N      G aug-cc-pVQZ          selected for orbital group  1
 Library entry H      S aug-cc-pVQZ          selected for orbital group  2
 Library entry H      P aug-cc-pVQZ          selected for orbital group  2
 Library entry H      D aug-cc-pVQZ          selected for orbital group  2
 Library entry H      F aug-cc-pVQZ          selected for orbital group  2
 Library entry O      S aug-cc-pVQZ          selected for orbital group  3
 Library entry O      P aug-cc-pVQZ          selected for orbital group  3
 Library entry O      D aug-cc-pVQZ          selected for orbital group  3
 Library entry O      F aug-cc-pVQZ          selected for orbital group  3
 Library entry O      G aug-cc-pVQZ          selected for orbital group  3


 PROGRAM * SEWARD (Integral evaluation for generally contracted gaussian basis sets)     Author: Roland Lindh, 1990

 Geometry written to block  1 of record 700


 Point group  Cs  



 ATOMIC COORDINATES

 NR  ATOM    CHARGE       X              Y              Z

   1  N       7.00    0.000000000   -0.162377297   -1.145300711
   2  H       1.00    0.000000000    1.666078515   -1.925760424
   3  O       8.00    0.000000000    0.038066573    1.120471544

 Bond lengths in Bohr (Angstrom)

 1-2  1.988056342  1-3  2.274621212
     ( 1.052034110)     ( 1.203677709)

 Bond angles

  2-1-3  108.05920269

 NUCLEAR CHARGE:                   16
 NUMBER OF PRIMITIVE AOS:         293
 NUMBER OF SYMMETRY AOS:          234
 NUMBER OF CONTRACTIONS:          206   ( 130A'  +  76A"  )
 NUMBER OF CORE ORBITALS:           2   (   2A'  +   0A"  )
 NUMBER OF VALENCE ORBITALS:        9   (   7A'  +   2A"  )


 NUCLEAR REPULSION ENERGY   30.45668183

 Eigenvalues of metric

         1 0.590E-04 0.145E-03 0.316E-03 0.435E-03 0.581E-03 0.679E-03 0.100E-02 0.107E-02
         2 0.812E-03 0.162E-02 0.489E-02 0.892E-02 0.101E-01 0.122E-01 0.124E-01 0.186E-01


 Contracted 2-electron integrals neglected if value below      1.0D-22

      109945081. INTEGRALS WRITTEN OUT IN   26849 BLOCKS ON RECORD 1290 OF FILE 1


 NUMBER OF SORTED TWO-ELECTRON INTEGRALS:  115283741.     BUFFER LENGTH:  32768
 NUMBER OF SEGMENTS:   8  SEGMENT LENGTH:   15998004      RECORD LENGTH: 524288

 Memory used in sort:      16.56 MW

 SORT1 READ   109945081. AND WROTE   110865248. INTEGRALS IN    322 RECORDS. CPU TIME:     3.91 SEC, REAL TIME:     5.01 SEC
 SORT2 READ   110865248. AND WROTE   115283741. INTEGRALS IN      8 RECORDS. CPU TIME:     1.62 SEC, REAL TIME:     2.43 SEC

 FILE SIZES:   FILE 1:  1780.6 MBYTE,  FILE 4:  1350.6 MBYTE,   TOTAL:   3131.2 MBYTE

 OPERATOR DM      FOR CENTER  0  COORDINATES:    0.000000    0.000000    0.000000


 **********************************************************************************************************************************
 DATASETS  * FILE   NREC   LENGTH (MB)   RECORD NAMES
              1      19      944.14       500      610      700      900      950      970     1000      129      960     1100   
                                          VAR    BASINP    GEOM    SYMINP    ZMAT    AOBASIS   BASIS     P2S    ABASIS      S 
                                         1400     1410     1200     1210     1080     1600     1650     1300     1700   
                                           T        V       H0       H01     AOSYM     SMH    MOLCAS    ERIS     OPER   

 PROGRAMS   *        TOTAL       INT
 CPU TIMES  *        18.68     18.57
 REAL TIME  *        22.49 SEC
 DISK USED  *         3.13 GB      
 **********************************************************************************************************************************


 PROGRAM * RHF-SCF (CLOSED SHELL)       Authors: W. Meyer, H.-J. Werner


 NUMBER OF ELECTRONS:       8+    8-
 CONVERGENCE THRESHOLDS:    1.00E-10 (Density)    1.00E-13 (Energy)
 MAX. NUMBER OF ITERATIONS:      500
 INTERPOLATION TYPE:            DIIS
 INTERPOLATION STEPS:              2 (START)      1 (STEP)
 LEVEL SHIFTS:                  0.00 (CLOSED)  0.00 (OPEN) 



 Orbital guess generated from atomic densities. Full valence occupancy:    9   2

 Molecular orbital dump at record        2100.2

 Initial occupancy:   7   1

 ITERATION    DDIFF          GRAD             ENERGY        2-EL.EN.            DIPOLE MOMENTS         DIIS   ORB.
    1      0.000D+00      0.000D+00      -129.79785221    154.119003    0.00000    0.59140   -1.01229    0    start
    2      0.000D+00      0.808D-02      -129.82526374    155.359371    0.00000    0.60776   -0.20923    1    diag
    3      0.648D-02      0.610D-02      -129.84747197    155.472753    0.00000    0.55405   -0.58683    2    diag
    4      0.329D-02      0.966D-03      -129.84826612    155.190832    0.00000    0.56162   -0.52625    3    diag
    5      0.602D-03      0.314D-03      -129.84839092    155.284009    0.00000    0.56693   -0.52890    4    diag
    6      0.251D-03      0.909D-04      -129.84841081    155.267895    0.00000    0.56724   -0.52480    5    diag
    7      0.957D-04      0.451D-04      -129.84841654    155.270697    0.00000    0.56848   -0.52224    6    diag
    8      0.658D-04      0.155D-04      -129.84841717    155.270015    0.00000    0.56852   -0.52125    7    diag
    9      0.249D-04      0.296D-05      -129.84841719    155.269903    0.00000    0.56849   -0.52103    8    diag
   10      0.490D-05      0.680D-06      -129.84841720    155.269885    0.00000    0.56846   -0.52100    9    orth
   11      0.981D-06      0.137D-06      -129.84841720    155.269881    0.00000    0.56845   -0.52100    9    diag
   12      0.183D-06      0.277D-07      -129.84841720    155.269881    0.00000    0.56845   -0.52100    9    diag
   13      0.395D-07      0.711D-08      -129.84841720    155.269881    0.00000    0.56845   -0.52100    9    diag
   14      0.106D-07      0.141D-08      -129.84841720    155.269881    0.00000    0.56845   -0.52100    9    diag
   15      0.196D-08      0.407D-09      -129.84841720    155.269881    0.00000    0.56845   -0.52100    9    diag
   16      0.583D-09      0.124D-09      -129.84841720    155.269881    0.00000    0.56845   -0.52100    9    diag
   17      0.113D-09      0.334D-10      -129.84841720    155.269881    0.00000    0.56845   -0.52100    9    diag
   18      0.323D-10      0.113D-10      -129.84841720    155.269881    0.00000    0.56845   -0.52100    9    diag
   19      0.149D-10      0.279D-11      -129.84841720    155.269881    0.00000    0.56845   -0.52100    9    fixocc
   20      0.626D-11      0.514D-12      -129.84841720    155.269881    0.00000    0.56845   -0.52100    9    orth
   21      0.282D-11      0.210D-12      -129.84841720    155.269881    0.00000    0.56845   -0.52100    9    diag
   22      0.177D-11      0.160D-12      -129.84841720    155.269881    0.00000    0.56845   -0.52100    9    diag
   23      0.175D-11      0.162D-12      -129.84841720    155.269881    0.00000    0.56845   -0.52100    9    diag
   24      0.811D-12      0.113D-12      -129.84841720    155.269881    0.00000    0.56845   -0.52100    9    diag
   25      0.796D-12      0.144D-12      -129.84841720    155.269881    0.00000    0.56845   -0.52100    9    diag
   26      0.652D-12      0.137D-12      -129.84841720    155.269881    0.00000    0.56845   -0.52100    0    orth

 Final occupancy:   7   1

 !RHF STATE 1.1 Energy               -129.848417195672
 Nuclear energy                        30.45668183
 One-electron energy                 -237.94003960
 Two-electron energy                   77.63494057
 Virial quotient                       -1.00161331
 !RHF STATE 1.1 Dipole moment           0.00000000     0.56844645    -0.52100151
 Dipole moment /Debye                   0.00000000     1.44475213    -1.32416702

 Orbital energies:

         1.1          2.1          3.1          4.1          5.1          6.1          7.1          8.1          9.1
    -20.653234   -15.711932    -1.533184    -0.993442    -0.748534    -0.667312    -0.429302     0.026424     0.079494

         1.2          2.2          3.2
     -0.598139     0.064395     0.110663

 HOMO      7.1    -0.429302 =     -11.6819eV
 LUMO      8.1     0.026424 =       0.7190eV
 LUMO-HOMO         0.455726 =      12.4009eV


 **********************************************************************************************************************************
 DATASETS  * FILE   NREC   LENGTH (MB)   RECORD NAMES
              1      19      944.14       500      610      700      900      950      970     1000      129      960     1100   
                                          VAR    BASINP    GEOM    SYMINP    ZMAT    AOBASIS   BASIS     P2S    ABASIS      S 
                                         1400     1410     1200     1210     1080     1600     1650     1300     1700   
                                           T        V       H0       H01     AOSYM     SMH    MOLCAS    ERIS     OPER   

              2       4        3.27       700     1000      520     2100   
                                         GEOM     BASIS   MCVARS     RHF  

 PROGRAMS   *        TOTAL        HF       INT
 CPU TIMES  *        37.31     18.63     18.57
 REAL TIME  *        46.33 SEC
 DISK USED  *         3.13 GB      
 **********************************************************************************************************************************


 PROGRAM * CCSD (Closed-shell coupled cluster)     Authors: C. Hampel, H.-J. Werner, 1991, M. Deegan, P.J. Knowles, 1992


 Convergence thresholds:  THRVAR = 1.00D-08  THRDEN = 1.00D-12

 CCSD(T)     terms to be evaluated (factor= 1.000)


 Number of core orbitals:           2 (   2   0 )
 Number of closed-shell orbitals:   6 (   5   1 )
 Number of external orbitals:     198 ( 123  75 )

 Molecular orbitals read from record     2100.2  Type=RHF/CANONICAL (state 1.1)

 Number of N-1 electron functions:               6
 Number of N-2 electron functions:              21
 Number of singly external CSFs:               690
 Number of doubly external CSFs:            362646
 Total number of CSFs:                      363337

 Length of J-op  integral file:               0.00 MB
 Length of K-op  integral file:               1.60 MB
 Length of 3-ext integral record:             0.00 MB

 Memory could be reduced to 34.67 Mwords without degradation in triples

 Integral transformation finished. Total CPU:   2.27 sec, npass=  1  Memory used:   9.53 MW

 Reference energy:                   -129.84841720

 MP2 singlet pair energy:              -0.30117895
 MP2 triplet pair energy:              -0.17014291
 MP2 correlation energy:               -0.47132186
 MP2 total energy:                   -130.31973906

 SCS-MP2 correlation energy:           -0.46728144   (PS=  1.200000  PT=  0.333333)
 SCS-MP2 total energy:               -130.31569863

 ITER.      SQ.NORM     CORR.ENERGY   TOTAL ENERGY   ENERGY CHANGE        DEN1      VAR(S)    VAR(P)  DIIS     TIME  TIME/IT
   1      1.12056888    -0.47152353  -130.31994073    -0.00020167     0.01602720  0.31D-02  0.31D-02  1  1     4.20     2.14
   2      1.13116351    -0.47151776  -130.31993495     0.00000578    -0.01239179  0.10D-03  0.49D-03  2  2     6.22     2.22
   3      1.13738604    -0.47188899  -130.32030619    -0.00037124    -0.00302104  0.47D-04  0.52D-04  3  3     8.25     2.23
   4      1.14009115    -0.47189575  -130.32031294    -0.00000675    -0.00092329  0.42D-05  0.94D-05  4  4    10.23     2.24
   5      1.14115615    -0.47192441  -130.32034160    -0.00002866    -0.00023278  0.11D-05  0.16D-05  5  5    12.24     2.24
   6      1.14150225    -0.47191011  -130.32032730     0.00001430    -0.00004965  0.11D-06  0.39D-06  6  6    14.23     2.25
   7      1.14157475    -0.47191051  -130.32032771    -0.00000040     0.00000232  0.17D-07  0.88D-07  6  1    16.24     2.25
   8      1.14159721    -0.47191088  -130.32032807    -0.00000037    -0.00000109  0.35D-08  0.17D-07  6  2    18.25     2.25
   9      1.14160224    -0.47191050  -130.32032770     0.00000038     0.00000091  0.25D-08  0.19D-08  6  4    20.29     2.26
  10      1.14160462    -0.47191087  -130.32032807    -0.00000037    -0.00000072  0.45D-09  0.23D-09  6  3    22.33     2.26
  11      1.14160432    -0.47191093  -130.32032813    -0.00000006    -0.00000010  0.14D-09  0.33D-10  6  5    24.33     2.26
  12      1.14160338    -0.47191107  -130.32032826    -0.00000014     0.00000035  0.18D-10  0.10D-10  6  6    26.29     2.26
  13      1.14160256    -0.47191111  -130.32032830    -0.00000004     0.00000021  0.55D-11  0.22D-11  6  1    28.30     2.26
  14      1.14160192    -0.47191114  -130.32032833    -0.00000003     0.00000015  0.38D-12  0.44D-12  6  4    30.34     2.26
  15      1.14160172    -0.47191115  -130.32032834    -0.00000001     0.00000003  0.83D-13  0.34D-13  6  2    32.40     2.26
  16      1.14160168    -0.47191115  -130.32032834    -0.00000000     0.00000001  0.23D-13  0.65D-14  6  3    34.42     2.26
  17      1.14160165    -0.47191115  -130.32032834    -0.00000000     0.00000001  0.40D-14  0.10D-14  6  5    36.42     2.26
  18      1.14160165    -0.47191115  -130.32032834     0.00000000     0.00000000  0.80D-15  0.26D-15  6  6    38.43     2.26
  19      1.14160165    -0.47191115  -130.32032834     0.00000000     0.00000000  0.88D-16  0.51D-16  6  1    40.41     2.26
  20      1.14160165    -0.47191115  -130.32032834     0.00000000    -0.00000000  0.90D-17  0.74D-17  6  4    42.38     2.26
  21      1.14160165    -0.47191115  -130.32032834     0.00000000    -0.00000000  0.49D-18  0.62D-18  6  3    44.41     2.26
  22      1.14160165    -0.47191115  -130.32032834     0.00000000    -0.00000000  0.12D-18  0.14D-18  6  2    46.45     2.26
  23      1.14160165    -0.47191115  -130.32032834     0.00000000    -0.00000000  0.96D-20  0.31D-19  6  1    48.49     2.26
  24      1.14160165    -0.47191115  -130.32032834    -0.00000000     0.00000000  0.13D-20  0.63D-20  6  5    50.51     2.26
  25      1.14160165    -0.47191115  -130.32032834     0.00000000     0.00000000  0.10D-20  0.15D-20  6  6    52.55     2.26

 Norm of t1 vector:      0.07604316      S-energy:     0.00000000      T1 diagnostic:  0.01552224
                                                                       D1 diagnostic:  0.04159466

 Doubles amplitudes (print threshold =  0.500E-01):

         I         J         SYM. A    SYM. B    A         B      T(IJ, AB)

         6         6         2         2         1         1     -0.09625438


 Total CPU time for triples:     22.70 sec


 RESULTS
 =======

  Reference energy                   -129.848417195672
  CCSD singlet pair energy             -0.326114900833
  CCSD triplet pair energy             -0.145796246921
  CCSD correlation energy              -0.471911147753

  Triples (T) contribution             -0.022225460122
  Total correlation energy             -0.494136607875

  CCSD total energy                  -130.320328343425
  CCSD[T] energy                     -130.343608198260
  CCSD-T energy                      -130.342173030317
 !CCSD(T) total energy               -130.342553803547

 Timing summary (sec):

 STEP                 CPU(USER)    SYS     CPU(TOT)    WALL
 Transformation          2.29      0.34      2.63      2.65
 CCSD iterations        50.27      6.16     56.43     56.47
 Triples                22.70      0.55     23.25     23.25

 Program statistics:

 Available memory in ccsd:               994999756
 Min. memory needed in ccsd:               1265322
 Max. memory used in ccsd:                 1555950
 Max. memory used in cckext:               2415326 (25 integral passes)



 **********************************************************************************************************************************
 DATASETS  * FILE   NREC   LENGTH (MB)   RECORD NAMES
              1      20     1044.69       500      610      700      900      950      970     1000      129      960     1100   
                                          VAR    BASINP    GEOM    SYMINP    ZMAT    AOBASIS   BASIS     P2S    ABASIS      S 
                                         1400     1410     1200     1210     1080     1600     1650     1300     1700     1380   
                                           T        V       H0       H01     AOSYM     SMH    MOLCAS    ERIS     OPER     JKOP   

              2       4        3.27       700     1000      520     2100   
                                         GEOM     BASIS   MCVARS     RHF  

 PROGRAMS   *        TOTAL   CCSD(T)        HF       INT
 CPU TIMES  *       112.59     75.28     18.63     18.57
 REAL TIME  *       128.74 SEC
 DISK USED  *         3.13 GB      
 **********************************************************************************************************************************

 CCSD(T)/aug-cc-pVQZ energy=   -130.342553803547

        CCSD(T)         HF-SCF  
   -130.34255380   -129.84841720
 **********************************************************************************************************************************
 Molpro calculation terminated
 Variable memory released
