
 Primary working directories    : /tmp/r2666/234857.maple
 Secondary working directories  : /tmp/r2666/234857.maple
 Wavefunction directory         : /ddn/home4/r2666/wfu/
 Main file repository           : /tmp/r2666/234857.maple/

 SHA1      : d5ffa45e93fdbca01ffc919aa182cfdae0147319
 NAME      : 2015.1.35
 ARCHNAME  : linux/x86_64
 FC        : /opt/intel/composer_xe_2015.1.133/bin/intel64/ifort
 BLASLIB   : -Wl,-_start-group /opt/intel/mkl/lib/intel64/libmkl_intel_ilp64.a /opt/intel/mkl/lib/intel64/libmkl_intel_thread.a /opt/intel/mkl/lib/intel64/libmkl_core.a -Wl,-_end-group
 id        : olemiss

 Nodes     nprocs
 cn037        1

 Using customized tuning parameters: mindgm=1; mindgv=20; mindgc=4; mindgr=1; noblas=0; minvec=7
 default implementation of scratch files=df  

 ***,hno CCSD(T)/TZ-F12 QFF
 memory, 995, m;
 gthresh,energy=1.d-12,zero=1.d-22,oneint=1.d-22,twoint=1.d-22;
 gthresh,optgrad=1.d-8,optstep=1.d-8;
 nocompress;
 geomtyp=xyz
 bohr
 geometry={
 3
        100       100
 N        0.0000000000       -0.1722600250       -1.1573284142
 H        0.0000000000        1.6720201903       -1.9245680121
 O        0.0000000000        0.0420076248        1.1313068353
 }
 
 basis=avqz
   {hf,maxit=500;accu,20;}
 {ccsd(t),nocheck,maxit=250;orbital,IGNORE_ERROR;}

 Variables initialized (889), CPU time= 0.00 sec
 Commands  initialized (702), CPU time= 0.00 sec, 572 directives.
 Default parameters read. Elapsed time= 0.05 sec

 Checking input...
 Passed
1


                                         ***  PROGRAM SYSTEM MOLPRO  ***
                                       Copyright, TTI GmbH Stuttgart, 2015
                                    Version 2015.1 linked Jul  9 2018 13:16:40


 **********************************************************************************************************************************
 LABEL *   hno CCSD(T)/TZ-F12 QFF                                                        
  64 bit serial version                                                                  DATE: 08-Feb-20          TIME: 17:54:36  
 **********************************************************************************************************************************

 SHA1:             d5ffa45e93fdbca01ffc919aa182cfdae0147319
 **********************************************************************************************************************************

 THRESHOLDS:

 ZERO    =  1.00D-22  ONEINT  =  1.00D-22  TWOINT  =  1.00D-22  PREFAC  =  1.00D-14  LOCALI  =  1.00D-09  EORDER  =  1.00D-04
 ENERGY  =  1.00D-12  ETEST   =  0.00D+00  EDENS   =  0.00D+00  THRDEDEF=  1.00D-06  GRADIENT=  1.00D-02  STEP    =  1.00D-03
 ORBITAL =  1.00D-05  CIVEC   =  1.00D-05  COEFF   =  1.00D-04  PRINTCI =  5.00D-02  PUNCHCI =  9.90D+01  OPTGRAD =  3.00D-04
 OPTENERG=  1.00D-06  OPTSTEP =  3.00D-04  THRGRAD =  1.00D-10  COMPRESS=  1.00D-11  VARMIN  =  1.00D-07  VARMAX  =  1.00D-03
 THRDOUB =  0.00D+00  THRDIV  =  1.00D-05  THRRED  =  1.00D-07  THRPSP  =  1.00D+00  THRDC   =  1.00D-10  THRCS   =  1.00D-10
 THRNRM  =  1.00D-08  THREQ   =  0.00D+00  THRDE   =  1.00D+00  THRREF  =  1.00D-05  SPARFAC =  1.00D+00  THRDLP  =  1.00D-07
 THRDIA  =  1.00D-10  THRDLS  =  1.00D-07  THRGPS  =  0.00D+00  THRKEX  =  0.00D+00  THRDIS  =  2.00D-01  THRVAR  =  1.00D-10
 THRLOC  =  1.00D-06  THRGAP  =  1.00D-06  THRLOCT = -1.00D+00  THRGAPT = -1.00D+00  THRORB  =  1.00D-06  THRMLTP =  0.00D+00
 THRCPQCI=  1.00D-10  KEXTA   =  0.00D+00  THRCOARS=  0.00D+00  SYMTOL  =  1.00D-06  GRADTOL =  1.00D-06  THROVL  =  1.00D-08
 THRORTH =  1.00D-08  GRID    =  1.00D-06  GRIDMAX =  1.00D-03  DTMAX   =  0.00D+00  THROCCDE=  1.00D-01  THROCCDE=  1.00D-01



 THRESHOLDS:

 ZERO    =  1.00D-22  ONEINT  =  1.00D-22  TWOINT  =  1.00D-22  PREFAC  =  1.00D-14  LOCALI  =  1.00D-09  EORDER  =  1.00D-04
 ENERGY  =  1.00D-12  ETEST   =  0.00D+00  EDENS   =  0.00D+00  THRDEDEF=  1.00D-06  GRADIENT=  1.00D-02  STEP    =  1.00D-03
 ORBITAL =  1.00D-05  CIVEC   =  1.00D-05  COEFF   =  1.00D-04  PRINTCI =  5.00D-02  PUNCHCI =  9.90D+01  OPTGRAD =  1.00D-08
 OPTENERG=  1.00D-06  OPTSTEP =  1.00D-08  THRGRAD =  1.00D-10  COMPRESS=  1.00D-11  VARMIN  =  1.00D-07  VARMAX  =  1.00D-03
 THRDOUB =  0.00D+00  THRDIV  =  1.00D-05  THRRED  =  1.00D-07  THRPSP  =  1.00D+00  THRDC   =  1.00D-10  THRCS   =  1.00D-10
 THRNRM  =  1.00D-08  THREQ   =  0.00D+00  THRDE   =  1.00D+00  THRREF  =  1.00D-05  SPARFAC =  1.00D+00  THRDLP  =  1.00D-07
 THRDIA  =  1.00D-10  THRDLS  =  1.00D-07  THRGPS  =  0.00D+00  THRKEX  =  0.00D+00  THRDIS  =  2.00D-01  THRVAR  =  1.00D-10
 THRLOC  =  1.00D-06  THRGAP  =  1.00D-06  THRLOCT = -1.00D+00  THRGAPT = -1.00D+00  THRORB  =  1.00D-06  THRMLTP =  0.00D+00
 THRCPQCI=  1.00D-10  KEXTA   =  0.00D+00  THRCOARS=  0.00D+00  SYMTOL  =  1.00D-06  GRADTOL =  1.00D-06  THROVL  =  1.00D-08
 THRORTH =  1.00D-08  GRID    =  1.00D-06  GRIDMAX =  1.00D-03  DTMAX   =  0.00D+00  THROCCDE=  1.00D-01  THROCCDE=  1.00D-01



 Input parameters for SORTINT:

 COMPRESS =    0.000000
 C_FINAL  =    1.000000
 DEBUG    =   -1.000000
 C_SORT1  =    0.000000
 C_SEWARD =    0.000000
 THRESH   =    0.000000
 IO       =  molpro                                                          
 SPRI     =    0.000000
 SETTING GEOMTYP        =    XYZ
 ZUNIT=BOHR
 

 Variable memory set to  995000000 words,  buffer space   230000 words

 SETTING BASIS          =    AVQZ


 Recomputing integrals since basis changed


 Using spherical harmonics

 Library entry N      S aug-cc-pVQZ          selected for orbital group  1
 Library entry N      P aug-cc-pVQZ          selected for orbital group  1
 Library entry N      D aug-cc-pVQZ          selected for orbital group  1
 Library entry N      F aug-cc-pVQZ          selected for orbital group  1
 Library entry N      G aug-cc-pVQZ          selected for orbital group  1
 Library entry H      S aug-cc-pVQZ          selected for orbital group  2
 Library entry H      P aug-cc-pVQZ          selected for orbital group  2
 Library entry H      D aug-cc-pVQZ          selected for orbital group  2
 Library entry H      F aug-cc-pVQZ          selected for orbital group  2
 Library entry O      S aug-cc-pVQZ          selected for orbital group  3
 Library entry O      P aug-cc-pVQZ          selected for orbital group  3
 Library entry O      D aug-cc-pVQZ          selected for orbital group  3
 Library entry O      F aug-cc-pVQZ          selected for orbital group  3
 Library entry O      G aug-cc-pVQZ          selected for orbital group  3


 PROGRAM * SEWARD (Integral evaluation for generally contracted gaussian basis sets)     Author: Roland Lindh, 1990

 Geometry written to block  1 of record 700


 Point group  Cs  



 ATOMIC COORDINATES

 NR  ATOM    CHARGE       X              Y              Z

   1  N       7.00    0.000000000   -0.172260025   -1.157328414
   2  H       1.00    0.000000000    1.672020190   -1.924568012
   3  O       8.00    0.000000000    0.042007625    1.131306835

 Bond lengths in Bohr (Angstrom)

 1-2  1.997504972  1-3  2.298643498
     ( 1.057034110)     ( 1.216389755)

 Bond angles

  2-1-3  107.23923365

 NUCLEAR CHARGE:                   16
 NUMBER OF PRIMITIVE AOS:         293
 NUMBER OF SYMMETRY AOS:          234
 NUMBER OF CONTRACTIONS:          206   ( 130A'  +  76A"  )
 NUMBER OF CORE ORBITALS:           2   (   2A'  +   0A"  )
 NUMBER OF VALENCE ORBITALS:        9   (   7A'  +   2A"  )


 NUCLEAR REPULSION ENERGY   30.17641857

 Eigenvalues of metric

         1 0.606E-04 0.149E-03 0.321E-03 0.438E-03 0.607E-03 0.696E-03 0.103E-02 0.110E-02
         2 0.847E-03 0.166E-02 0.509E-02 0.898E-02 0.102E-01 0.125E-01 0.128E-01 0.193E-01


 Contracted 2-electron integrals neglected if value below      1.0D-22

      109945096. INTEGRALS WRITTEN OUT IN   26849 BLOCKS ON RECORD 1290 OF FILE 1


 NUMBER OF SORTED TWO-ELECTRON INTEGRALS:  115283741.     BUFFER LENGTH:  32768
 NUMBER OF SEGMENTS:   8  SEGMENT LENGTH:   15998004      RECORD LENGTH: 524288

 Memory used in sort:      16.56 MW

 SORT1 READ   109945096. AND WROTE   110865263. INTEGRALS IN    322 RECORDS. CPU TIME:     3.07 SEC, REAL TIME:     3.99 SEC
 SORT2 READ   110865263. AND WROTE   115283741. INTEGRALS IN      8 RECORDS. CPU TIME:     1.47 SEC, REAL TIME:     2.06 SEC

 FILE SIZES:   FILE 1:  1780.6 MBYTE,  FILE 4:  1350.6 MBYTE,   TOTAL:   3131.2 MBYTE

 OPERATOR DM      FOR CENTER  0  COORDINATES:    0.000000    0.000000    0.000000


 **********************************************************************************************************************************
 DATASETS  * FILE   NREC   LENGTH (MB)   RECORD NAMES
              1      19      944.14       500      610      700      900      950      970     1000      129      960     1100   
                                          VAR    BASINP    GEOM    SYMINP    ZMAT    AOBASIS   BASIS     P2S    ABASIS      S 
                                         1400     1410     1200     1210     1080     1600     1650     1300     1700   
                                           T        V       H0       H01     AOSYM     SMH    MOLCAS    ERIS     OPER   

 PROGRAMS   *        TOTAL       INT
 CPU TIMES  *        15.43     15.34
 REAL TIME  *        19.34 SEC
 DISK USED  *         3.13 GB      
 **********************************************************************************************************************************


 PROGRAM * RHF-SCF (CLOSED SHELL)       Authors: W. Meyer, H.-J. Werner


 NUMBER OF ELECTRONS:       8+    8-
 CONVERGENCE THRESHOLDS:    1.00E-10 (Density)    1.00E-13 (Energy)
 MAX. NUMBER OF ITERATIONS:      500
 INTERPOLATION TYPE:            DIIS
 INTERPOLATION STEPS:              2 (START)      1 (STEP)
 LEVEL SHIFTS:                  0.00 (CLOSED)  0.00 (OPEN) 



 Orbital guess generated from atomic densities. Full valence occupancy:    9   2

 Molecular orbital dump at record        2100.2

 Initial occupancy:   7   1

 ITERATION    DDIFF          GRAD             ENERGY        2-EL.EN.            DIPOLE MOMENTS         DIIS   ORB.
    1      0.000D+00      0.000D+00      -129.79358730    153.617445    0.00000    0.58652   -1.05246    0    start
    2      0.000D+00      0.822D-02      -129.82057300    154.833660    0.00000    0.61611   -0.19736    1    diag
    3      0.668D-02      0.641D-02      -129.84525946    154.975601    0.00000    0.55505   -0.60211    2    diag
    4      0.343D-02      0.979D-03      -129.84608108    154.683413    0.00000    0.56269   -0.53960    3    diag
    5      0.612D-03      0.321D-03      -129.84621234    154.777944    0.00000    0.56799   -0.54197    4    diag
    6      0.257D-03      0.933D-04      -129.84623346    154.761552    0.00000    0.56821   -0.53760    5    diag
    7      0.987D-04      0.468D-04      -129.84623973    154.764263    0.00000    0.56944   -0.53485    6    diag
    8      0.685D-04      0.168D-04      -129.84624049    154.763522    0.00000    0.56947   -0.53375    7    diag
    9      0.276D-04      0.325D-05      -129.84624053    154.763398    0.00000    0.56943   -0.53351    8    diag
   10      0.558D-05      0.722D-06      -129.84624053    154.763379    0.00000    0.56940   -0.53348    9    orth
   11      0.104D-05      0.143D-06      -129.84624053    154.763376    0.00000    0.56939   -0.53348    9    diag
   12      0.187D-06      0.297D-07      -129.84624053    154.763376    0.00000    0.56939   -0.53348    9    diag
   13      0.409D-07      0.786D-08      -129.84624053    154.763376    0.00000    0.56939   -0.53348    9    diag
   14      0.115D-07      0.153D-08      -129.84624053    154.763376    0.00000    0.56939   -0.53348    9    diag
   15      0.205D-08      0.434D-09      -129.84624053    154.763376    0.00000    0.56939   -0.53348    9    diag
   16      0.617D-09      0.127D-09      -129.84624053    154.763376    0.00000    0.56939   -0.53348    9    diag
   17      0.112D-09      0.326D-10      -129.84624053    154.763376    0.00000    0.56939   -0.53348    9    diag
   18      0.305D-10      0.109D-10      -129.84624053    154.763376    0.00000    0.56939   -0.53348    9    diag
   19      0.145D-10      0.248D-11      -129.84624053    154.763376    0.00000    0.56939   -0.53348    9    fixocc
   20      0.398D-11      0.419D-12      -129.84624053    154.763376    0.00000    0.56939   -0.53348    9    orth
   21      0.204D-11      0.186D-12      -129.84624053    154.763376    0.00000    0.56939   -0.53348    9    diag
   22      0.193D-11      0.154D-12      -129.84624053    154.763376    0.00000    0.56939   -0.53348    9    diag
   23      0.141D-11      0.853D-13      -129.84624053    154.763376    0.00000    0.56939   -0.53348    9    diag
   24      0.675D-12      0.994D-13      -129.84624053    154.763376    0.00000    0.56939   -0.53348    9    diag
   25      0.336D-12      0.811D-13      -129.84624053    154.763376    0.00000    0.56939   -0.53348    0    orth

 Final occupancy:   7   1

 !RHF STATE 1.1 Energy               -129.846240528217
 Nuclear energy                        30.17641857
 One-electron energy                 -237.40434689
 Two-electron energy                   77.38168779
 Virial quotient                       -1.00202485
 !RHF STATE 1.1 Dipole moment           0.00000000     0.56938984    -0.53348053
 Dipole moment /Debye                   0.00000000     1.44714983    -1.35588345

 Orbital energies:

         1.1          2.1          3.1          4.1          5.1          6.1          7.1          8.1          9.1
    -20.654333   -15.714934    -1.523174    -0.994663    -0.744140    -0.663526    -0.433417     0.026322     0.079474

         1.2          2.2          3.2
     -0.592299     0.061290     0.110233

 HOMO      7.1    -0.433417 =     -11.7939eV
 LUMO      8.1     0.026322 =       0.7163eV
 LUMO-HOMO         0.459739 =      12.5101eV


 **********************************************************************************************************************************
 DATASETS  * FILE   NREC   LENGTH (MB)   RECORD NAMES
              1      19      944.14       500      610      700      900      950      970     1000      129      960     1100   
                                          VAR    BASINP    GEOM    SYMINP    ZMAT    AOBASIS   BASIS     P2S    ABASIS      S 
                                         1400     1410     1200     1210     1080     1600     1650     1300     1700   
                                           T        V       H0       H01     AOSYM     SMH    MOLCAS    ERIS     OPER   

              2       4        3.27       700     1000      520     2100   
                                         GEOM     BASIS   MCVARS     RHF  

 PROGRAMS   *        TOTAL        HF       INT
 CPU TIMES  *        29.40     13.97     15.34
 REAL TIME  *        37.72 SEC
 DISK USED  *         3.13 GB      
 **********************************************************************************************************************************


 PROGRAM * CCSD (Closed-shell coupled cluster)     Authors: C. Hampel, H.-J. Werner, 1991, M. Deegan, P.J. Knowles, 1992


 Convergence thresholds:  THRVAR = 1.00D-08  THRDEN = 1.00D-12

 CCSD(T)     terms to be evaluated (factor= 1.000)


 Number of core orbitals:           2 (   2   0 )
 Number of closed-shell orbitals:   6 (   5   1 )
 Number of external orbitals:     198 ( 123  75 )

 Molecular orbitals read from record     2100.2  Type=RHF/CANONICAL (state 1.1)

 Number of N-1 electron functions:               6
 Number of N-2 electron functions:              21
 Number of singly external CSFs:               690
 Number of doubly external CSFs:            362646
 Total number of CSFs:                      363337

 Length of J-op  integral file:               0.00 MB
 Length of K-op  integral file:               1.60 MB
 Length of 3-ext integral record:             0.00 MB

 Memory could be reduced to 34.67 Mwords without degradation in triples

 Integral transformation finished. Total CPU:   1.81 sec, npass=  1  Memory used:   9.53 MW

 Reference energy:                   -129.84624053

 MP2 singlet pair energy:              -0.30259772
 MP2 triplet pair energy:              -0.17108634
 MP2 correlation energy:               -0.47368407
 MP2 total energy:                   -130.31992459

 SCS-MP2 correlation energy:           -0.46957099   (PS=  1.200000  PT=  0.333333)
 SCS-MP2 total energy:               -130.31581152

 ITER.      SQ.NORM     CORR.ENERGY   TOTAL ENERGY   ENERGY CHANGE        DEN1      VAR(S)    VAR(P)  DIIS     TIME  TIME/IT
   1      1.12208419    -0.47336237  -130.31960289     0.00032170     0.01713456  0.33D-02  0.33D-02  1  1     3.36     1.73
   2      1.13301761    -0.47324741  -130.31948794     0.00011495    -0.01273939  0.11D-03  0.51D-03  2  2     4.96     1.76
   3      1.13950981    -0.47363967  -130.31988019    -0.00039225    -0.00310928  0.51D-04  0.55D-04  3  3     6.52     1.76
   4      1.14236424    -0.47364672  -130.31988724    -0.00000705    -0.00096428  0.46D-05  0.99D-05  4  4     8.10     1.76
   5      1.14351241    -0.47367804  -130.31991857    -0.00003133    -0.00025027  0.12D-05  0.16D-05  5  5     9.66     1.76
   6      1.14387857    -0.47366221  -130.31990274     0.00001583    -0.00005303  0.12D-06  0.39D-06  6  6    11.26     1.76
   7      1.14395099    -0.47366269  -130.31990322    -0.00000048     0.00000293  0.17D-07  0.89D-07  6  1    12.86     1.76
   8      1.14397387    -0.47366289  -130.31990342    -0.00000020    -0.00000122  0.32D-08  0.18D-07  6  2    14.44     1.76
   9      1.14397887    -0.47366247  -130.31990300     0.00000042     0.00000103  0.25D-08  0.22D-08  6  4    16.01     1.76
  10      1.14398143    -0.47366285  -130.31990338    -0.00000038    -0.00000077  0.48D-09  0.26D-09  6  3    17.58     1.76
  11      1.14398121    -0.47366291  -130.31990344    -0.00000006    -0.00000013  0.16D-09  0.37D-10  6  5    19.13     1.76
  12      1.14398023    -0.47366306  -130.31990359    -0.00000015     0.00000036  0.19D-10  0.11D-10  6  6    20.71     1.76
  13      1.14397936    -0.47366310  -130.31990363    -0.00000004     0.00000022  0.60D-11  0.24D-11  6  1    22.30     1.76
  14      1.14397867    -0.47366313  -130.31990366    -0.00000003     0.00000016  0.37D-12  0.51D-12  6  4    23.87     1.76
  15      1.14397845    -0.47366314  -130.31990367    -0.00000001     0.00000003  0.86D-13  0.40D-13  6  2    25.49     1.76
  16      1.14397840    -0.47366314  -130.31990367    -0.00000000     0.00000001  0.23D-13  0.74D-14  6  3    27.09     1.76
  17      1.14397837    -0.47366314  -130.31990367    -0.00000000     0.00000001  0.42D-14  0.10D-14  6  5    28.70     1.76
  18      1.14397837    -0.47366314  -130.31990367    -0.00000000     0.00000000  0.88D-15  0.27D-15  6  6    30.24     1.76
  19      1.14397837    -0.47366314  -130.31990367    -0.00000000     0.00000000  0.11D-15  0.53D-16  6  1    31.80     1.76
  20      1.14397837    -0.47366314  -130.31990367     0.00000000    -0.00000000  0.10D-16  0.77D-17  6  4    33.37     1.76
  21      1.14397837    -0.47366314  -130.31990367     0.00000000    -0.00000000  0.53D-18  0.60D-18  6  3    34.99     1.76
  22      1.14397837    -0.47366314  -130.31990367     0.00000000    -0.00000000  0.13D-18  0.11D-18  6  2    36.59     1.76
  23      1.14397837    -0.47366314  -130.31990367     0.00000000     0.00000000  0.40D-19  0.41D-19  6  5    38.20     1.76
  24      1.14397837    -0.47366314  -130.31990367    -0.00000000     0.00000000  0.34D-20  0.91D-20  6  1    39.79     1.76

 Norm of t1 vector:      0.07814299      S-energy:    -0.00000000      T1 diagnostic:  0.01595087
                                                                       D1 diagnostic:  0.04321647

 Doubles amplitudes (print threshold =  0.500E-01):

         I         J         SYM. A    SYM. B    A         B      T(IJ, AB)

         6         6         2         2         1         1     -0.10309640


 Total CPU time for triples:     16.79 sec


 RESULTS
 =======

  Reference energy                   -129.846240528217
  CCSD singlet pair energy             -0.327627942695
  CCSD triplet pair energy             -0.146035201682
  CCSD correlation energy              -0.473663144378

  Triples (T) contribution             -0.022655698942
  Total correlation energy             -0.496318843321

  CCSD total energy                  -130.319903672595
  CCSD[T] energy                     -130.343670963246
  CCSD-T energy                      -130.342164335959
 !CCSD(T) total energy               -130.342559371537

 Timing summary (sec):

 STEP                 CPU(USER)    SYS     CPU(TOT)    WALL
 Transformation          1.83      0.31      2.14      2.14
 CCSD iterations        37.96      4.36     42.32     42.34
 Triples                16.79      0.47     17.26     17.26

 Program statistics:

 Available memory in ccsd:               994999756
 Min. memory needed in ccsd:               1265322
 Max. memory used in ccsd:                 1555950
 Max. memory used in cckext:               2415326 (24 integral passes)



 **********************************************************************************************************************************
 DATASETS  * FILE   NREC   LENGTH (MB)   RECORD NAMES
              1      20     1044.69       500      610      700      900      950      970     1000      129      960     1100   
                                          VAR    BASINP    GEOM    SYMINP    ZMAT    AOBASIS   BASIS     P2S    ABASIS      S 
                                         1400     1410     1200     1210     1080     1600     1650     1300     1700     1380   
                                           T        V       H0       H01     AOSYM     SMH    MOLCAS    ERIS     OPER     JKOP   

              2       4        3.27       700     1000      520     2100   
                                         GEOM     BASIS   MCVARS     RHF  

 PROGRAMS   *        TOTAL   CCSD(T)        HF       INT
 CPU TIMES  *        86.01     56.60     13.97     15.34
 REAL TIME  *        99.51 SEC
 DISK USED  *         3.13 GB      
 **********************************************************************************************************************************

 CCSD(T)/aug-cc-pVQZ energy=   -130.342559371537

        CCSD(T)         HF-SCF  
   -130.34255937   -129.84624053
 **********************************************************************************************************************************
 Molpro calculation terminated
 Variable memory released
