
 Primary working directories    : /tmp/r2666/234831.maple
 Secondary working directories  : /tmp/r2666/234831.maple
 Wavefunction directory         : /ddn/home4/r2666/wfu/
 Main file repository           : /tmp/r2666/234831.maple/

 SHA1      : d5ffa45e93fdbca01ffc919aa182cfdae0147319
 NAME      : 2015.1.35
 ARCHNAME  : linux/x86_64
 FC        : /opt/intel/composer_xe_2015.1.133/bin/intel64/ifort
 BLASLIB   : -Wl,-_start-group /opt/intel/mkl/lib/intel64/libmkl_intel_ilp64.a /opt/intel/mkl/lib/intel64/libmkl_intel_thread.a /opt/intel/mkl/lib/intel64/libmkl_core.a -Wl,-_end-group
 id        : olemiss

 Nodes     nprocs
 cn092        1

 Using customized tuning parameters: mindgm=1; mindgv=20; mindgc=4; mindgr=1; noblas=0; minvec=7
 default implementation of scratch files=df  

 ***,hno CCSD(T)/TZ-F12 QFF
 memory, 995, m;
 gthresh,energy=1.d-12,zero=1.d-22,oneint=1.d-22,twoint=1.d-22;
 gthresh,optgrad=1.d-8,optstep=1.d-8;
 nocompress;
 geomtyp=xyz
 bohr
 geometry={
 3
         74        74
 N        0.0000000000       -0.1628606138       -1.1558002927
 H        0.0000000000        1.6681522482       -1.9302419746
 O        0.0000000000        0.0364761556        1.1354526763
 }
 
 basis=avqz
   {hf,maxit=500;accu,20;}
 {ccsd(t),nocheck,maxit=250;orbital,IGNORE_ERROR;}

 Variables initialized (889), CPU time= 0.00 sec
 Commands  initialized (702), CPU time= 0.01 sec, 572 directives.
 Default parameters read. Elapsed time= 0.04 sec

 Checking input...
 Passed
1


                                         ***  PROGRAM SYSTEM MOLPRO  ***
                                       Copyright, TTI GmbH Stuttgart, 2015
                                    Version 2015.1 linked Jul  9 2018 13:16:40


 **********************************************************************************************************************************
 LABEL *   hno CCSD(T)/TZ-F12 QFF                                                        
  64 bit serial version                                                                  DATE: 08-Feb-20          TIME: 17:53:44  
 **********************************************************************************************************************************

 SHA1:             d5ffa45e93fdbca01ffc919aa182cfdae0147319
 **********************************************************************************************************************************

 THRESHOLDS:

 ZERO    =  1.00D-22  ONEINT  =  1.00D-22  TWOINT  =  1.00D-22  PREFAC  =  1.00D-14  LOCALI  =  1.00D-09  EORDER  =  1.00D-04
 ENERGY  =  1.00D-12  ETEST   =  0.00D+00  EDENS   =  0.00D+00  THRDEDEF=  1.00D-06  GRADIENT=  1.00D-02  STEP    =  1.00D-03
 ORBITAL =  1.00D-05  CIVEC   =  1.00D-05  COEFF   =  1.00D-04  PRINTCI =  5.00D-02  PUNCHCI =  9.90D+01  OPTGRAD =  3.00D-04
 OPTENERG=  1.00D-06  OPTSTEP =  3.00D-04  THRGRAD =  1.00D-10  COMPRESS=  1.00D-11  VARMIN  =  1.00D-07  VARMAX  =  1.00D-03
 THRDOUB =  0.00D+00  THRDIV  =  1.00D-05  THRRED  =  1.00D-07  THRPSP  =  1.00D+00  THRDC   =  1.00D-10  THRCS   =  1.00D-10
 THRNRM  =  1.00D-08  THREQ   =  0.00D+00  THRDE   =  1.00D+00  THRREF  =  1.00D-05  SPARFAC =  1.00D+00  THRDLP  =  1.00D-07
 THRDIA  =  1.00D-10  THRDLS  =  1.00D-07  THRGPS  =  0.00D+00  THRKEX  =  0.00D+00  THRDIS  =  2.00D-01  THRVAR  =  1.00D-10
 THRLOC  =  1.00D-06  THRGAP  =  1.00D-06  THRLOCT = -1.00D+00  THRGAPT = -1.00D+00  THRORB  =  1.00D-06  THRMLTP =  0.00D+00
 THRCPQCI=  1.00D-10  KEXTA   =  0.00D+00  THRCOARS=  0.00D+00  SYMTOL  =  1.00D-06  GRADTOL =  1.00D-06  THROVL  =  1.00D-08
 THRORTH =  1.00D-08  GRID    =  1.00D-06  GRIDMAX =  1.00D-03  DTMAX   =  0.00D+00  THROCCDE=  1.00D-01  THROCCDE=  1.00D-01



 THRESHOLDS:

 ZERO    =  1.00D-22  ONEINT  =  1.00D-22  TWOINT  =  1.00D-22  PREFAC  =  1.00D-14  LOCALI  =  1.00D-09  EORDER  =  1.00D-04
 ENERGY  =  1.00D-12  ETEST   =  0.00D+00  EDENS   =  0.00D+00  THRDEDEF=  1.00D-06  GRADIENT=  1.00D-02  STEP    =  1.00D-03
 ORBITAL =  1.00D-05  CIVEC   =  1.00D-05  COEFF   =  1.00D-04  PRINTCI =  5.00D-02  PUNCHCI =  9.90D+01  OPTGRAD =  1.00D-08
 OPTENERG=  1.00D-06  OPTSTEP =  1.00D-08  THRGRAD =  1.00D-10  COMPRESS=  1.00D-11  VARMIN  =  1.00D-07  VARMAX  =  1.00D-03
 THRDOUB =  0.00D+00  THRDIV  =  1.00D-05  THRRED  =  1.00D-07  THRPSP  =  1.00D+00  THRDC   =  1.00D-10  THRCS   =  1.00D-10
 THRNRM  =  1.00D-08  THREQ   =  0.00D+00  THRDE   =  1.00D+00  THRREF  =  1.00D-05  SPARFAC =  1.00D+00  THRDLP  =  1.00D-07
 THRDIA  =  1.00D-10  THRDLS  =  1.00D-07  THRGPS  =  0.00D+00  THRKEX  =  0.00D+00  THRDIS  =  2.00D-01  THRVAR  =  1.00D-10
 THRLOC  =  1.00D-06  THRGAP  =  1.00D-06  THRLOCT = -1.00D+00  THRGAPT = -1.00D+00  THRORB  =  1.00D-06  THRMLTP =  0.00D+00
 THRCPQCI=  1.00D-10  KEXTA   =  0.00D+00  THRCOARS=  0.00D+00  SYMTOL  =  1.00D-06  GRADTOL =  1.00D-06  THROVL  =  1.00D-08
 THRORTH =  1.00D-08  GRID    =  1.00D-06  GRIDMAX =  1.00D-03  DTMAX   =  0.00D+00  THROCCDE=  1.00D-01  THROCCDE=  1.00D-01



 Input parameters for SORTINT:

 COMPRESS =    0.000000
 C_FINAL  =    1.000000
 DEBUG    =   -1.000000
 C_SORT1  =    0.000000
 C_SEWARD =    0.000000
 THRESH   =    0.000000
 IO       =  molpro                                                          
 SPRI     =    0.000000
 SETTING GEOMTYP        =    XYZ
 ZUNIT=BOHR
 

 Variable memory set to  995000000 words,  buffer space   230000 words

 SETTING BASIS          =    AVQZ


 Recomputing integrals since basis changed


 Using spherical harmonics

 Library entry N      S aug-cc-pVQZ          selected for orbital group  1
 Library entry N      P aug-cc-pVQZ          selected for orbital group  1
 Library entry N      D aug-cc-pVQZ          selected for orbital group  1
 Library entry N      F aug-cc-pVQZ          selected for orbital group  1
 Library entry N      G aug-cc-pVQZ          selected for orbital group  1
 Library entry H      S aug-cc-pVQZ          selected for orbital group  2
 Library entry H      P aug-cc-pVQZ          selected for orbital group  2
 Library entry H      D aug-cc-pVQZ          selected for orbital group  2
 Library entry H      F aug-cc-pVQZ          selected for orbital group  2
 Library entry O      S aug-cc-pVQZ          selected for orbital group  3
 Library entry O      P aug-cc-pVQZ          selected for orbital group  3
 Library entry O      D aug-cc-pVQZ          selected for orbital group  3
 Library entry O      F aug-cc-pVQZ          selected for orbital group  3
 Library entry O      G aug-cc-pVQZ          selected for orbital group  3


 PROGRAM * SEWARD (Integral evaluation for generally contracted gaussian basis sets)     Author: Roland Lindh, 1990

 Geometry written to block  1 of record 700


 Point group  Cs  



 ATOMIC COORDINATES

 NR  ATOM    CHARGE       X              Y              Z

   1  N       7.00    0.000000000   -0.162860614   -1.155800293
   2  H       1.00    0.000000000    1.668152248   -1.930241975
   3  O       8.00    0.000000000    0.036476156    1.135452676

 Bond lengths in Bohr (Angstrom)

 1-2  1.988056342  1-3  2.299907675
     ( 1.052034110)     ( 1.217058729)

 Bond angles

  2-1-3  107.95416710

 NUCLEAR CHARGE:                   16
 NUMBER OF PRIMITIVE AOS:         293
 NUMBER OF SYMMETRY AOS:          234
 NUMBER OF CONTRACTIONS:          206   ( 130A'  +  76A"  )
 NUMBER OF CORE ORBITALS:           2   (   2A'  +   0A"  )
 NUMBER OF VALENCE ORBITALS:        9   (   7A'  +   2A"  )


 NUCLEAR REPULSION ENERGY   30.17339835

 Eigenvalues of metric

         1 0.602E-04 0.147E-03 0.321E-03 0.437E-03 0.603E-03 0.687E-03 0.102E-02 0.110E-02
         2 0.847E-03 0.163E-02 0.505E-02 0.898E-02 0.101E-01 0.125E-01 0.128E-01 0.191E-01


 Contracted 2-electron integrals neglected if value below      1.0D-22

      109945075. INTEGRALS WRITTEN OUT IN   26849 BLOCKS ON RECORD 1290 OF FILE 1


 NUMBER OF SORTED TWO-ELECTRON INTEGRALS:  115283741.     BUFFER LENGTH:  32768
 NUMBER OF SEGMENTS:   8  SEGMENT LENGTH:   15998004      RECORD LENGTH: 524288

 Memory used in sort:      16.56 MW

 SORT1 READ   109945075. AND WROTE   110865242. INTEGRALS IN    322 RECORDS. CPU TIME:     1.87 SEC, REAL TIME:     2.67 SEC
 SORT2 READ   110865242. AND WROTE   115283741. INTEGRALS IN      8 RECORDS. CPU TIME:     1.26 SEC, REAL TIME:     1.79 SEC

 FILE SIZES:   FILE 1:  1780.6 MBYTE,  FILE 4:  1350.6 MBYTE,   TOTAL:   3131.2 MBYTE

 OPERATOR DM      FOR CENTER  0  COORDINATES:    0.000000    0.000000    0.000000


 **********************************************************************************************************************************
 DATASETS  * FILE   NREC   LENGTH (MB)   RECORD NAMES
              1      19      944.14       500      610      700      900      950      970     1000      129      960     1100   
                                          VAR    BASINP    GEOM    SYMINP    ZMAT    AOBASIS   BASIS     P2S    ABASIS      S 
                                         1400     1410     1200     1210     1080     1600     1650     1300     1700   
                                           T        V       H0       H01     AOSYM     SMH    MOLCAS    ERIS     OPER   

 PROGRAMS   *        TOTAL       INT
 CPU TIMES  *        10.82     10.75
 REAL TIME  *        13.65 SEC
 DISK USED  *         3.13 GB      
 **********************************************************************************************************************************


 PROGRAM * RHF-SCF (CLOSED SHELL)       Authors: W. Meyer, H.-J. Werner


 NUMBER OF ELECTRONS:       8+    8-
 CONVERGENCE THRESHOLDS:    1.00E-10 (Density)    1.00E-13 (Energy)
 MAX. NUMBER OF ITERATIONS:      500
 INTERPOLATION TYPE:            DIIS
 INTERPOLATION STEPS:              2 (START)      1 (STEP)
 LEVEL SHIFTS:                  0.00 (CLOSED)  0.00 (OPEN) 



 Orbital guess generated from atomic densities. Full valence occupancy:    9   2

 Molecular orbital dump at record        2100.2

 Initial occupancy:   7   1

 ITERATION    DDIFF          GRAD             ENERGY        2-EL.EN.            DIPOLE MOMENTS         DIIS   ORB.
    1      0.000D+00      0.000D+00      -129.79391420    153.611914    0.00000    0.59631   -1.05547    0    start
    2      0.000D+00      0.820D-02      -129.82087565    154.824551    0.00000    0.61618   -0.20204    1    diag
    3      0.667D-02      0.638D-02      -129.84537095    154.968709    0.00000    0.55976   -0.60645    2    diag
    4      0.342D-02      0.982D-03      -129.84619514    154.676314    0.00000    0.56706   -0.54361    3    diag
    5      0.613D-03      0.321D-03      -129.84632547    154.770728    0.00000    0.57236   -0.54601    4    diag
    6      0.257D-03      0.927D-04      -129.84634632    154.754419    0.00000    0.57260   -0.54165    5    diag
    7      0.981D-04      0.466D-04      -129.84635253    154.757096    0.00000    0.57381   -0.53891    6    diag
    8      0.681D-04      0.167D-04      -129.84635329    154.756363    0.00000    0.57384   -0.53780    7    diag
    9      0.275D-04      0.325D-05      -129.84635332    154.756239    0.00000    0.57381   -0.53757    8    diag
   10      0.559D-05      0.723D-06      -129.84635333    154.756221    0.00000    0.57377   -0.53754    9    orth
   11      0.105D-05      0.143D-06      -129.84635333    154.756217    0.00000    0.57377   -0.53754    9    diag
   12      0.187D-06      0.296D-07      -129.84635333    154.756217    0.00000    0.57376   -0.53754    9    diag
   13      0.403D-07      0.783D-08      -129.84635333    154.756217    0.00000    0.57376   -0.53754    9    diag
   14      0.113D-07      0.153D-08      -129.84635333    154.756217    0.00000    0.57376   -0.53754    9    diag
   15      0.203D-08      0.433D-09      -129.84635333    154.756217    0.00000    0.57376   -0.53753    9    diag
   16      0.613D-09      0.127D-09      -129.84635333    154.756217    0.00000    0.57376   -0.53753    9    diag
   17      0.110D-09      0.320D-10      -129.84635333    154.756217    0.00000    0.57376   -0.53753    9    diag
   18      0.285D-10      0.105D-10      -129.84635333    154.756217    0.00000    0.57376   -0.53753    9    diag
   19      0.143D-10      0.237D-11      -129.84635333    154.756217    0.00000    0.57376   -0.53753    9    fixocc
   20      0.406D-11      0.374D-12      -129.84635333    154.756217    0.00000    0.57376   -0.53753    9    orth
   21      0.284D-11      0.221D-12      -129.84635333    154.756217    0.00000    0.57376   -0.53753    9    diag
   22      0.304D-11      0.110D-12      -129.84635333    154.756217    0.00000    0.57376   -0.53753    9    diag
   23      0.107D-11      0.936D-13      -129.84635333    154.756217    0.00000    0.57376   -0.53753    0    orth

 Final occupancy:   7   1

 !RHF STATE 1.1 Energy               -129.846353326348
 Nuclear energy                        30.17339835
 One-electron energy                 -237.39786030
 Two-electron energy                   77.37810863
 Virial quotient                       -1.00200619
 !RHF STATE 1.1 Dipole moment           0.00000000     0.57376297    -0.53753499
 Dipole moment /Debye                   0.00000000     1.45826448    -1.36618817

 Orbital energies:

         1.1          2.1          3.1          4.1          5.1          6.1          7.1          8.1          9.1
    -20.654490   -15.714255    -1.522339    -0.996506    -0.744469    -0.663472    -0.433462     0.026261     0.079457

         1.2          2.2          3.2
     -0.591828     0.061000     0.110068

 HOMO      7.1    -0.433462 =     -11.7951eV
 LUMO      8.1     0.026261 =       0.7146eV
 LUMO-HOMO         0.459723 =      12.5097eV


 **********************************************************************************************************************************
 DATASETS  * FILE   NREC   LENGTH (MB)   RECORD NAMES
              1      19      944.14       500      610      700      900      950      970     1000      129      960     1100   
                                          VAR    BASINP    GEOM    SYMINP    ZMAT    AOBASIS   BASIS     P2S    ABASIS      S 
                                         1400     1410     1200     1210     1080     1600     1650     1300     1700   
                                           T        V       H0       H01     AOSYM     SMH    MOLCAS    ERIS     OPER   

              2       4        3.27       700     1000      520     2100   
                                         GEOM     BASIS   MCVARS     RHF  

 PROGRAMS   *        TOTAL        HF       INT
 CPU TIMES  *        22.33     11.51     10.75
 REAL TIME  *        27.77 SEC
 DISK USED  *         3.13 GB      
 **********************************************************************************************************************************


 PROGRAM * CCSD (Closed-shell coupled cluster)     Authors: C. Hampel, H.-J. Werner, 1991, M. Deegan, P.J. Knowles, 1992


 Convergence thresholds:  THRVAR = 1.00D-08  THRDEN = 1.00D-12

 CCSD(T)     terms to be evaluated (factor= 1.000)


 Number of core orbitals:           2 (   2   0 )
 Number of closed-shell orbitals:   6 (   5   1 )
 Number of external orbitals:     198 ( 123  75 )

 Molecular orbitals read from record     2100.2  Type=RHF/CANONICAL (state 1.1)

 Number of N-1 electron functions:               6
 Number of N-2 electron functions:              21
 Number of singly external CSFs:               690
 Number of doubly external CSFs:            362646
 Total number of CSFs:                      363337

 Length of J-op  integral file:               0.00 MB
 Length of K-op  integral file:               1.60 MB
 Length of 3-ext integral record:             0.00 MB

 Memory could be reduced to 34.67 Mwords without degradation in triples

 Integral transformation finished. Total CPU:   1.47 sec, npass=  1  Memory used:   9.53 MW

 Reference energy:                   -129.84635333

 MP2 singlet pair energy:              -0.30255356
 MP2 triplet pair energy:              -0.17106365
 MP2 correlation energy:               -0.47361721
 MP2 total energy:                   -130.31997054

 SCS-MP2 correlation energy:           -0.46950388   (PS=  1.200000  PT=  0.333333)
 SCS-MP2 total energy:               -130.31585721

 ITER.      SQ.NORM     CORR.ENERGY   TOTAL ENERGY   ENERGY CHANGE        DEN1      VAR(S)    VAR(P)  DIIS     TIME  TIME/IT
   1      1.12200834    -0.47328207  -130.31963540     0.00033514     0.01714828  0.33D-02  0.33D-02  1  1     2.73     1.37
   2      1.13293897    -0.47316183  -130.31951516     0.00012024    -0.01273704  0.11D-03  0.51D-03  2  2     4.00     1.40
   3      1.13943006    -0.47355368  -130.31990700    -0.00039185    -0.00310451  0.51D-04  0.56D-04  3  3     5.28     1.41
   4      1.14229255    -0.47356102  -130.31991435    -0.00000734    -0.00096494  0.47D-05  0.10D-04  4  4     6.55     1.42
   5      1.14344787    -0.47359230  -130.31994563    -0.00003128    -0.00025135  0.12D-05  0.17D-05  5  5     7.84     1.42
   6      1.14381716    -0.47357639  -130.31992972     0.00001592    -0.00005338  0.11D-06  0.39D-06  6  6     9.15     1.43
   7      1.14389020    -0.47357695  -130.31993028    -0.00000056     0.00000297  0.17D-07  0.91D-07  6  1    10.43     1.43
   8      1.14391317    -0.47357719  -130.31993051    -0.00000023    -0.00000120  0.33D-08  0.19D-07  6  2    11.71     1.43
   9      1.14391816    -0.47357677  -130.31993010     0.00000041     0.00000104  0.26D-08  0.22D-08  6  4    12.98     1.43
  10      1.14392073    -0.47357715  -130.31993048    -0.00000038    -0.00000078  0.50D-09  0.27D-09  6  3    14.27     1.43
  11      1.14392050    -0.47357722  -130.31993054    -0.00000006    -0.00000014  0.16D-09  0.38D-10  6  5    15.50     1.43
  12      1.14391952    -0.47357736  -130.31993069    -0.00000015     0.00000037  0.20D-10  0.11D-10  6  6    16.79     1.43
  13      1.14391863    -0.47357741  -130.31993073    -0.00000004     0.00000022  0.61D-11  0.25D-11  6  1    18.06     1.43
  14      1.14391793    -0.47357744  -130.31993077    -0.00000004     0.00000016  0.37D-12  0.53D-12  6  4    19.32     1.43
  15      1.14391770    -0.47357745  -130.31993078    -0.00000001     0.00000004  0.85D-13  0.42D-13  6  2    20.58     1.43
  16      1.14391765    -0.47357745  -130.31993078    -0.00000000     0.00000001  0.23D-13  0.76D-14  6  3    21.88     1.43
  17      1.14391762    -0.47357745  -130.31993078    -0.00000000     0.00000001  0.42D-14  0.10D-14  6  5    23.14     1.43
  18      1.14391762    -0.47357745  -130.31993078    -0.00000000     0.00000000  0.89D-15  0.26D-15  6  6    24.37     1.43
  19      1.14391762    -0.47357745  -130.31993078    -0.00000000     0.00000000  0.11D-15  0.53D-16  6  1    25.67     1.43
  20      1.14391762    -0.47357745  -130.31993078     0.00000000    -0.00000000  0.11D-16  0.78D-17  6  4    26.98     1.43
  21      1.14391762    -0.47357745  -130.31993078     0.00000000    -0.00000000  0.52D-18  0.64D-18  6  3    28.25     1.43
  22      1.14391762    -0.47357745  -130.31993078     0.00000000    -0.00000000  0.13D-18  0.12D-18  6  2    29.55     1.43
  23      1.14391762    -0.47357745  -130.31993078     0.00000000     0.00000000  0.38D-19  0.46D-19  6  5    30.80     1.43
  24      1.14391762    -0.47357745  -130.31993078    -0.00000000     0.00000000  0.32D-20  0.10D-19  6  1    32.04     1.43

 Norm of t1 vector:      0.07824974      S-energy:    -0.00000000      T1 diagnostic:  0.01597266
                                                                       D1 diagnostic:  0.04336263

 Doubles amplitudes (print threshold =  0.500E-01):

         I         J         SYM. A    SYM. B    A         B      T(IJ, AB)

         6         6         2         2         1         1     -0.10347712


 Total CPU time for triples:     16.43 sec


 RESULTS
 =======

  Reference energy                   -129.846353326349
  CCSD singlet pair energy             -0.327558794621
  CCSD triplet pair energy             -0.146018657826
  CCSD correlation energy              -0.473577452448

  Triples (T) contribution             -0.022651421616
  Total correlation energy             -0.496228874064

  CCSD total energy                  -130.319930778797
  CCSD[T] energy                     -130.343695561641
  CCSD-T energy                      -130.342187422242
 !CCSD(T) total energy               -130.342582200412

 Timing summary (sec):

 STEP                 CPU(USER)    SYS     CPU(TOT)    WALL
 Transformation          1.48      0.30      1.78      1.78
 CCSD iterations        30.56      3.89     34.45     34.45
 Triples                16.43      0.43     16.86     16.87

 Program statistics:

 Available memory in ccsd:               994999756
 Min. memory needed in ccsd:               1265322
 Max. memory used in ccsd:                 1555950
 Max. memory used in cckext:               2415326 (24 integral passes)



 **********************************************************************************************************************************
 DATASETS  * FILE   NREC   LENGTH (MB)   RECORD NAMES
              1      20     1044.69       500      610      700      900      950      970     1000      129      960     1100   
                                          VAR    BASINP    GEOM    SYMINP    ZMAT    AOBASIS   BASIS     P2S    ABASIS      S 
                                         1400     1410     1200     1210     1080     1600     1650     1300     1700     1380   
                                           T        V       H0       H01     AOSYM     SMH    MOLCAS    ERIS     OPER     JKOP   

              2       4        3.27       700     1000      520     2100   
                                         GEOM     BASIS   MCVARS     RHF  

 PROGRAMS   *        TOTAL   CCSD(T)        HF       INT
 CPU TIMES  *        70.82     48.48     11.51     10.75
 REAL TIME  *        80.90 SEC
 DISK USED  *         3.13 GB      
 **********************************************************************************************************************************

 CCSD(T)/aug-cc-pVQZ energy=   -130.342582200412

        CCSD(T)         HF-SCF  
   -130.34258220   -129.84635333
 **********************************************************************************************************************************
 Molpro calculation terminated
 Variable memory released
