
 Primary working directories    : /tmp/r2666/234870.maple
 Secondary working directories  : /tmp/r2666/234870.maple
 Wavefunction directory         : /ddn/home4/r2666/wfu/
 Main file repository           : /tmp/r2666/234870.maple/

 SHA1      : d5ffa45e93fdbca01ffc919aa182cfdae0147319
 NAME      : 2015.1.35
 ARCHNAME  : linux/x86_64
 FC        : /opt/intel/composer_xe_2015.1.133/bin/intel64/ifort
 BLASLIB   : -Wl,-_start-group /opt/intel/mkl/lib/intel64/libmkl_intel_ilp64.a /opt/intel/mkl/lib/intel64/libmkl_intel_thread.a /opt/intel/mkl/lib/intel64/libmkl_core.a -Wl,-_end-group
 id        : olemiss

 Nodes     nprocs
 cn037        1

 Using customized tuning parameters: mindgm=1; mindgv=20; mindgc=4; mindgr=1; noblas=0; minvec=7
 default implementation of scratch files=df  

 ***,hno CCSD(T)/TZ-F12 QFF
 memory, 995, m;
 gthresh,energy=1.d-12,zero=1.d-22,oneint=1.d-22,twoint=1.d-22;
 gthresh,optgrad=1.d-8,optstep=1.d-8;
 nocompress;
 geomtyp=xyz
 bohr
 geometry={
 3
        113       113
 N        0.0000000000       -0.1730126296       -1.1416875392
 H        0.0000000000        1.6743472089       -1.9259861988
 O        0.0000000000        0.0404332107        1.1170841470
 }
 
 basis=avqz
   {hf,maxit=500;accu,20;}
 {ccsd(t),nocheck,maxit=250;orbital,IGNORE_ERROR;}

 Variables initialized (889), CPU time= 0.00 sec
 Commands  initialized (702), CPU time= 0.01 sec, 572 directives.
 Default parameters read. Elapsed time= 0.05 sec

 Checking input...
 Passed
1


                                         ***  PROGRAM SYSTEM MOLPRO  ***
                                       Copyright, TTI GmbH Stuttgart, 2015
                                    Version 2015.1 linked Jul  9 2018 13:16:40


 **********************************************************************************************************************************
 LABEL *   hno CCSD(T)/TZ-F12 QFF                                                        
  64 bit serial version                                                                  DATE: 08-Feb-20          TIME: 17:55:06  
 **********************************************************************************************************************************

 SHA1:             d5ffa45e93fdbca01ffc919aa182cfdae0147319
 **********************************************************************************************************************************

 THRESHOLDS:

 ZERO    =  1.00D-22  ONEINT  =  1.00D-22  TWOINT  =  1.00D-22  PREFAC  =  1.00D-14  LOCALI  =  1.00D-09  EORDER  =  1.00D-04
 ENERGY  =  1.00D-12  ETEST   =  0.00D+00  EDENS   =  0.00D+00  THRDEDEF=  1.00D-06  GRADIENT=  1.00D-02  STEP    =  1.00D-03
 ORBITAL =  1.00D-05  CIVEC   =  1.00D-05  COEFF   =  1.00D-04  PRINTCI =  5.00D-02  PUNCHCI =  9.90D+01  OPTGRAD =  3.00D-04
 OPTENERG=  1.00D-06  OPTSTEP =  3.00D-04  THRGRAD =  1.00D-10  COMPRESS=  1.00D-11  VARMIN  =  1.00D-07  VARMAX  =  1.00D-03
 THRDOUB =  0.00D+00  THRDIV  =  1.00D-05  THRRED  =  1.00D-07  THRPSP  =  1.00D+00  THRDC   =  1.00D-10  THRCS   =  1.00D-10
 THRNRM  =  1.00D-08  THREQ   =  0.00D+00  THRDE   =  1.00D+00  THRREF  =  1.00D-05  SPARFAC =  1.00D+00  THRDLP  =  1.00D-07
 THRDIA  =  1.00D-10  THRDLS  =  1.00D-07  THRGPS  =  0.00D+00  THRKEX  =  0.00D+00  THRDIS  =  2.00D-01  THRVAR  =  1.00D-10
 THRLOC  =  1.00D-06  THRGAP  =  1.00D-06  THRLOCT = -1.00D+00  THRGAPT = -1.00D+00  THRORB  =  1.00D-06  THRMLTP =  0.00D+00
 THRCPQCI=  1.00D-10  KEXTA   =  0.00D+00  THRCOARS=  0.00D+00  SYMTOL  =  1.00D-06  GRADTOL =  1.00D-06  THROVL  =  1.00D-08
 THRORTH =  1.00D-08  GRID    =  1.00D-06  GRIDMAX =  1.00D-03  DTMAX   =  0.00D+00  THROCCDE=  1.00D-01  THROCCDE=  1.00D-01



 THRESHOLDS:

 ZERO    =  1.00D-22  ONEINT  =  1.00D-22  TWOINT  =  1.00D-22  PREFAC  =  1.00D-14  LOCALI  =  1.00D-09  EORDER  =  1.00D-04
 ENERGY  =  1.00D-12  ETEST   =  0.00D+00  EDENS   =  0.00D+00  THRDEDEF=  1.00D-06  GRADIENT=  1.00D-02  STEP    =  1.00D-03
 ORBITAL =  1.00D-05  CIVEC   =  1.00D-05  COEFF   =  1.00D-04  PRINTCI =  5.00D-02  PUNCHCI =  9.90D+01  OPTGRAD =  1.00D-08
 OPTENERG=  1.00D-06  OPTSTEP =  1.00D-08  THRGRAD =  1.00D-10  COMPRESS=  1.00D-11  VARMIN  =  1.00D-07  VARMAX  =  1.00D-03
 THRDOUB =  0.00D+00  THRDIV  =  1.00D-05  THRRED  =  1.00D-07  THRPSP  =  1.00D+00  THRDC   =  1.00D-10  THRCS   =  1.00D-10
 THRNRM  =  1.00D-08  THREQ   =  0.00D+00  THRDE   =  1.00D+00  THRREF  =  1.00D-05  SPARFAC =  1.00D+00  THRDLP  =  1.00D-07
 THRDIA  =  1.00D-10  THRDLS  =  1.00D-07  THRGPS  =  0.00D+00  THRKEX  =  0.00D+00  THRDIS  =  2.00D-01  THRVAR  =  1.00D-10
 THRLOC  =  1.00D-06  THRGAP  =  1.00D-06  THRLOCT = -1.00D+00  THRGAPT = -1.00D+00  THRORB  =  1.00D-06  THRMLTP =  0.00D+00
 THRCPQCI=  1.00D-10  KEXTA   =  0.00D+00  THRCOARS=  0.00D+00  SYMTOL  =  1.00D-06  GRADTOL =  1.00D-06  THROVL  =  1.00D-08
 THRORTH =  1.00D-08  GRID    =  1.00D-06  GRIDMAX =  1.00D-03  DTMAX   =  0.00D+00  THROCCDE=  1.00D-01  THROCCDE=  1.00D-01



 Input parameters for SORTINT:

 COMPRESS =    0.000000
 C_FINAL  =    1.000000
 DEBUG    =   -1.000000
 C_SORT1  =    0.000000
 C_SEWARD =    0.000000
 THRESH   =    0.000000
 IO       =  molpro                                                          
 SPRI     =    0.000000
 SETTING GEOMTYP        =    XYZ
 ZUNIT=BOHR
 

 Variable memory set to  995000000 words,  buffer space   230000 words

 SETTING BASIS          =    AVQZ


 Recomputing integrals since basis changed


 Using spherical harmonics

 Library entry N      S aug-cc-pVQZ          selected for orbital group  1
 Library entry N      P aug-cc-pVQZ          selected for orbital group  1
 Library entry N      D aug-cc-pVQZ          selected for orbital group  1
 Library entry N      F aug-cc-pVQZ          selected for orbital group  1
 Library entry N      G aug-cc-pVQZ          selected for orbital group  1
 Library entry H      S aug-cc-pVQZ          selected for orbital group  2
 Library entry H      P aug-cc-pVQZ          selected for orbital group  2
 Library entry H      D aug-cc-pVQZ          selected for orbital group  2
 Library entry H      F aug-cc-pVQZ          selected for orbital group  2
 Library entry O      S aug-cc-pVQZ          selected for orbital group  3
 Library entry O      P aug-cc-pVQZ          selected for orbital group  3
 Library entry O      D aug-cc-pVQZ          selected for orbital group  3
 Library entry O      F aug-cc-pVQZ          selected for orbital group  3
 Library entry O      G aug-cc-pVQZ          selected for orbital group  3


 PROGRAM * SEWARD (Integral evaluation for generally contracted gaussian basis sets)     Author: Roland Lindh, 1990

 Geometry written to block  1 of record 700


 Point group  Cs  



 ATOMIC COORDINATES

 NR  ATOM    CHARGE       X              Y              Z

   1  N       7.00    0.000000000   -0.173012630   -1.141687539
   2  H       1.00    0.000000000    1.674347209   -1.925986199
   3  O       8.00    0.000000000    0.040433211    1.117084147

 Bond lengths in Bohr (Angstrom)

 1-2  2.006953602  1-3  2.268834207
     ( 1.062034110)     ( 1.200615357)

 Bond angles

  2-1-3  107.60548730

 NUCLEAR CHARGE:                   16
 NUMBER OF PRIMITIVE AOS:         293
 NUMBER OF SYMMETRY AOS:          234
 NUMBER OF CONTRACTIONS:          206   ( 130A'  +  76A"  )
 NUMBER OF CORE ORBITALS:           2   (   2A'  +   0A"  )
 NUMBER OF VALENCE ORBITALS:        9   (   7A'  +   2A"  )


 NUCLEAR REPULSION ENERGY   30.48632394

 Eigenvalues of metric

         1 0.597E-04 0.146E-03 0.317E-03 0.435E-03 0.580E-03 0.692E-03 0.101E-02 0.107E-02
         2 0.808E-03 0.168E-02 0.492E-02 0.891E-02 0.103E-01 0.121E-01 0.124E-01 0.189E-01


 Contracted 2-electron integrals neglected if value below      1.0D-22

      109945083. INTEGRALS WRITTEN OUT IN   26849 BLOCKS ON RECORD 1290 OF FILE 1


 NUMBER OF SORTED TWO-ELECTRON INTEGRALS:  115283741.     BUFFER LENGTH:  32768
 NUMBER OF SEGMENTS:   8  SEGMENT LENGTH:   15998004      RECORD LENGTH: 524288

 Memory used in sort:      16.56 MW

 SORT1 READ   109945083. AND WROTE   110865250. INTEGRALS IN    322 RECORDS. CPU TIME:     3.15 SEC, REAL TIME:     4.06 SEC
 SORT2 READ   110865250. AND WROTE   115283741. INTEGRALS IN      8 RECORDS. CPU TIME:     1.52 SEC, REAL TIME:     2.21 SEC

 FILE SIZES:   FILE 1:  1780.6 MBYTE,  FILE 4:  1350.6 MBYTE,   TOTAL:   3131.2 MBYTE

 OPERATOR DM      FOR CENTER  0  COORDINATES:    0.000000    0.000000    0.000000


 **********************************************************************************************************************************
 DATASETS  * FILE   NREC   LENGTH (MB)   RECORD NAMES
              1      19      944.14       500      610      700      900      950      970     1000      129      960     1100   
                                          VAR    BASINP    GEOM    SYMINP    ZMAT    AOBASIS   BASIS     P2S    ABASIS      S 
                                         1400     1410     1200     1210     1080     1600     1650     1300     1700   
                                           T        V       H0       H01     AOSYM     SMH    MOLCAS    ERIS     OPER   

 PROGRAMS   *        TOTAL       INT
 CPU TIMES  *        15.82     15.73
 REAL TIME  *        20.65 SEC
 DISK USED  *         3.13 GB      
 **********************************************************************************************************************************


 PROGRAM * RHF-SCF (CLOSED SHELL)       Authors: W. Meyer, H.-J. Werner


 NUMBER OF ELECTRONS:       8+    8-
 CONVERGENCE THRESHOLDS:    1.00E-10 (Density)    1.00E-13 (Energy)
 MAX. NUMBER OF ITERATIONS:      500
 INTERPOLATION TYPE:            DIIS
 INTERPOLATION STEPS:              2 (START)      1 (STEP)
 LEVEL SHIFTS:                  0.00 (CLOSED)  0.00 (OPEN) 



 Orbital guess generated from atomic densities. Full valence occupancy:    9   2

 Molecular orbital dump at record        2100.2

 Initial occupancy:   7   1

 ITERATION    DDIFF          GRAD             ENERGY        2-EL.EN.            DIPOLE MOMENTS         DIIS   ORB.
    1      0.000D+00      0.000D+00      -129.79774555    154.165570    0.00000    0.57945   -1.00217    0    start
    2      0.000D+00      0.809D-02      -129.82524084    155.422056    0.00000    0.60506   -0.20426    1    diag
    3      0.648D-02      0.610D-02      -129.84743115    155.525956    0.00000    0.54725   -0.57898    2    diag
    4      0.329D-02      0.961D-03      -129.84821908    155.245294    0.00000    0.55505   -0.51908    3    diag
    5      0.599D-03      0.314D-03      -129.84834461    155.338864    0.00000    0.56045   -0.52180    4    diag
    6      0.251D-03      0.915D-04      -129.84836475    155.322647    0.00000    0.56076   -0.51773    5    diag
    7      0.963D-04      0.451D-04      -129.84837049    155.325534    0.00000    0.56205   -0.51521    6    diag
    8      0.660D-04      0.154D-04      -129.84837111    155.324853    0.00000    0.56209   -0.51424    7    diag
    9      0.245D-04      0.294D-05      -129.84837113    155.324739    0.00000    0.56206   -0.51403    8    diag
   10      0.482D-05      0.677D-06      -129.84837113    155.324721    0.00000    0.56202   -0.51400    9    orth
   11      0.975D-06      0.138D-06      -129.84837113    155.324717    0.00000    0.56202   -0.51399    9    diag
   12      0.185D-06      0.279D-07      -129.84837113    155.324717    0.00000    0.56202   -0.51399    9    diag
   13      0.405D-07      0.718D-08      -129.84837113    155.324716    0.00000    0.56202   -0.51399    9    diag
   14      0.109D-07      0.144D-08      -129.84837113    155.324716    0.00000    0.56202   -0.51399    9    diag
   15      0.203D-08      0.421D-09      -129.84837113    155.324716    0.00000    0.56202   -0.51399    9    diag
   16      0.603D-09      0.130D-09      -129.84837113    155.324716    0.00000    0.56202   -0.51399    9    diag
   17      0.120D-09      0.363D-10      -129.84837113    155.324716    0.00000    0.56202   -0.51399    9    diag
   18      0.352D-10      0.123D-10      -129.84837113    155.324716    0.00000    0.56202   -0.51399    9    diag
   19      0.172D-10      0.303D-11      -129.84837113    155.324716    0.00000    0.56202   -0.51399    0    orth

 Final occupancy:   7   1

 !RHF STATE 1.1 Energy               -129.848371133866
 Nuclear energy                        30.48632394
 One-electron energy                 -237.99705324
 Two-electron energy                   77.66235816
 Virial quotient                       -1.00162270
 !RHF STATE 1.1 Dipole moment           0.00000000     0.56201504    -0.51399309
 Dipole moment /Debye                   0.00000000     1.42840619    -1.30635456

 Orbital energies:

         1.1          2.1          3.1          4.1          5.1          6.1          7.1          8.1          9.1
    -20.653043   -15.712853    -1.535860    -0.989981    -0.748430    -0.668114    -0.428047     0.026496     0.079508

         1.2          2.2          3.2
     -0.599839     0.065236     0.111039

 HOMO      7.1    -0.428047 =     -11.6478eV
 LUMO      8.1     0.026496 =       0.7210eV
 LUMO-HOMO         0.454544 =      12.3688eV


 **********************************************************************************************************************************
 DATASETS  * FILE   NREC   LENGTH (MB)   RECORD NAMES
              1      19      944.14       500      610      700      900      950      970     1000      129      960     1100   
                                          VAR    BASINP    GEOM    SYMINP    ZMAT    AOBASIS   BASIS     P2S    ABASIS      S 
                                         1400     1410     1200     1210     1080     1600     1650     1300     1700   
                                           T        V       H0       H01     AOSYM     SMH    MOLCAS    ERIS     OPER   

              2       4        3.27       700     1000      520     2100   
                                         GEOM     BASIS   MCVARS     RHF  

 PROGRAMS   *        TOTAL        HF       INT
 CPU TIMES  *        26.77     10.95     15.73
 REAL TIME  *        37.65 SEC
 DISK USED  *         3.13 GB      
 **********************************************************************************************************************************


 PROGRAM * CCSD (Closed-shell coupled cluster)     Authors: C. Hampel, H.-J. Werner, 1991, M. Deegan, P.J. Knowles, 1992


 Convergence thresholds:  THRVAR = 1.00D-08  THRDEN = 1.00D-12

 CCSD(T)     terms to be evaluated (factor= 1.000)


 Number of core orbitals:           2 (   2   0 )
 Number of closed-shell orbitals:   6 (   5   1 )
 Number of external orbitals:     198 ( 123  75 )

 Molecular orbitals read from record     2100.2  Type=RHF/CANONICAL (state 1.1)

 Number of N-1 electron functions:               6
 Number of N-2 electron functions:              21
 Number of singly external CSFs:               690
 Number of doubly external CSFs:            362646
 Total number of CSFs:                      363337

 Length of J-op  integral file:               0.00 MB
 Length of K-op  integral file:               1.60 MB
 Length of 3-ext integral record:             0.00 MB

 Memory could be reduced to 34.67 Mwords without degradation in triples

 Integral transformation finished. Total CPU:   1.86 sec, npass=  1  Memory used:   9.53 MW

 Reference energy:                   -129.84837113

 MP2 singlet pair energy:              -0.30109575
 MP2 triplet pair energy:              -0.17007299
 MP2 correlation energy:               -0.47116874
 MP2 total energy:                   -130.31953988

 SCS-MP2 correlation energy:           -0.46713810   (PS=  1.200000  PT=  0.333333)
 SCS-MP2 total energy:               -130.31550923

 ITER.      SQ.NORM     CORR.ENERGY   TOTAL ENERGY   ENERGY CHANGE        DEN1      VAR(S)    VAR(P)  DIIS     TIME  TIME/IT
   1      1.12057282    -0.47146465  -130.31983578    -0.00029591     0.01588301  0.31D-02  0.31D-02  1  1     3.45     1.76
   2      1.13114986    -0.47147923  -130.31985036    -0.00001458    -0.01236561  0.10D-03  0.49D-03  2  2     5.04     1.80
   3      1.13736191    -0.47185124  -130.32022238    -0.00037201    -0.00302245  0.47D-04  0.52D-04  3  3     6.62     1.81
   4      1.14004562    -0.47185675  -130.32022789    -0.00000551    -0.00091991  0.42D-05  0.93D-05  4  4     8.30     1.82
   5      1.14110062    -0.47188539  -130.32025652    -0.00002863    -0.00023108  0.11D-05  0.16D-05  5  5     9.91     1.83
   6      1.14144354    -0.47187137  -130.32024250     0.00001402    -0.00004909  0.11D-06  0.38D-06  6  6    11.56     1.84
   7      1.14151676    -0.47187156  -130.32024269    -0.00000019     0.00000205  0.19D-07  0.85D-07  6  1    13.20     1.84
   8      1.14153953    -0.47187191  -130.32024304    -0.00000035    -0.00000116  0.35D-08  0.17D-07  6  2    15.14     1.88
   9      1.14154798    -0.47187138  -130.32024251     0.00000053    -0.00000040  0.21D-08  0.17D-08  6  3    17.07     1.91
  10      1.14154351    -0.47187211  -130.32024324    -0.00000073     0.00000150  0.29D-09  0.26D-09  6  5    18.71     1.91
  11      1.14154517    -0.47187207  -130.32024320     0.00000004    -0.00000030  0.88D-10  0.23D-10  6  4    20.36     1.90
  12      1.14154477    -0.47187214  -130.32024327    -0.00000007     0.00000003  0.16D-10  0.56D-11  6  6    22.04     1.90
  13      1.14154460    -0.47187214  -130.32024327    -0.00000000    -0.00000004  0.31D-11  0.78D-12  6  1    23.68     1.90
  14      1.14154434    -0.47187215  -130.32024328    -0.00000001     0.00000004  0.42D-12  0.15D-12  6  3    25.32     1.89
  15      1.14154426    -0.47187215  -130.32024329    -0.00000000     0.00000001  0.11D-12  0.21D-13  6  2    26.95     1.89
  16      1.14154425    -0.47187215  -130.32024328     0.00000000     0.00000000  0.27D-13  0.92D-14  6  4    28.55     1.89
  17      1.14154425    -0.47187215  -130.32024328    -0.00000000    -0.00000000  0.13D-14  0.98D-15  6  5    30.19     1.89
  18      1.14154426    -0.47187215  -130.32024328     0.00000000    -0.00000000  0.22D-15  0.23D-15  6  6    31.79     1.88
  19      1.14154426    -0.47187215  -130.32024328     0.00000000    -0.00000000  0.44D-16  0.22D-16  6  1    33.44     1.88
  20      1.14154427    -0.47187215  -130.32024328     0.00000000    -0.00000000  0.74D-17  0.45D-17  6  2    35.10     1.88
  21      1.14154426    -0.47187215  -130.32024328    -0.00000000     0.00000000  0.95D-18  0.62D-18  6  3    36.73     1.88
  22      1.14154426    -0.47187215  -130.32024328    -0.00000000     0.00000000  0.14D-18  0.11D-18  6  5    38.36     1.88
  23      1.14154426    -0.47187215  -130.32024328    -0.00000000     0.00000000  0.21D-19  0.16D-19  6  4    39.93     1.88
  24      1.14154426    -0.47187215  -130.32024328    -0.00000000     0.00000000  0.48D-20  0.21D-20  6  1    41.54     1.87
  25      1.14154426    -0.47187215  -130.32024328     0.00000000    -0.00000000  0.12D-20  0.58D-21  6  6    43.17     1.87
  26      1.14154426    -0.47187215  -130.32024328     0.00000000    -0.00000000  0.30D-21  0.22D-21  6  2    44.83     1.87

 Norm of t1 vector:      0.07585443      S-energy:     0.00000000      T1 diagnostic:  0.01548372
                                                                       D1 diagnostic:  0.04117664

 Doubles amplitudes (print threshold =  0.500E-01):

         I         J         SYM. A    SYM. B    A         B      T(IJ, AB)

         6         6         2         2         1         1     -0.09454014


 Total CPU time for triples:     18.43 sec


 RESULTS
 =======

  Reference energy                   -129.848371133866
  CCSD singlet pair energy             -0.326074712495
  CCSD triplet pair energy             -0.145797438010
  CCSD correlation energy              -0.471872150503

  Triples (T) contribution             -0.022193199513
  Total correlation energy             -0.494065350016

  CCSD total energy                  -130.320243284369
  CCSD[T] energy                     -130.343485736456
  CCSD-T energy                      -130.342055685654
 !CCSD(T) total energy               -130.342436483882

 Timing summary (sec):

 STEP                 CPU(USER)    SYS     CPU(TOT)    WALL
 Transformation          1.87      0.31      2.18      2.18
 CCSD iterations        42.96      5.75     48.71     48.73
 Triples                18.43      0.51     18.94     18.94

 Program statistics:

 Available memory in ccsd:               994999756
 Min. memory needed in ccsd:               1265322
 Max. memory used in ccsd:                 1555950
 Max. memory used in cckext:               2415326 (26 integral passes)



 **********************************************************************************************************************************
 DATASETS  * FILE   NREC   LENGTH (MB)   RECORD NAMES
              1      20     1044.69       500      610      700      900      950      970     1000      129      960     1100   
                                          VAR    BASINP    GEOM    SYMINP    ZMAT    AOBASIS   BASIS     P2S    ABASIS      S 
                                         1400     1410     1200     1210     1080     1600     1650     1300     1700     1380   
                                           T        V       H0       H01     AOSYM     SMH    MOLCAS    ERIS     OPER     JKOP   

              2       4        3.27       700     1000      520     2100   
                                         GEOM     BASIS   MCVARS     RHF  

 PROGRAMS   *        TOTAL   CCSD(T)        HF       INT
 CPU TIMES  *        90.05     63.28     10.95     15.73
 REAL TIME  *       107.77 SEC
 DISK USED  *         3.13 GB      
 **********************************************************************************************************************************

 CCSD(T)/aug-cc-pVQZ energy=   -130.342436483882

        CCSD(T)         HF-SCF  
   -130.34243648   -129.84837113
 **********************************************************************************************************************************
 Molpro calculation terminated
 Variable memory released
