
 Primary working directories    : /tmp/r2666/234784.maple
 Secondary working directories  : /tmp/r2666/234784.maple
 Wavefunction directory         : /ddn/home4/r2666/wfu/
 Main file repository           : /tmp/r2666/234784.maple/

 SHA1      : d5ffa45e93fdbca01ffc919aa182cfdae0147319
 NAME      : 2015.1.35
 ARCHNAME  : linux/x86_64
 FC        : /opt/intel/composer_xe_2015.1.133/bin/intel64/ifort
 BLASLIB   : -Wl,-_start-group /opt/intel/mkl/lib/intel64/libmkl_intel_ilp64.a /opt/intel/mkl/lib/intel64/libmkl_intel_thread.a /opt/intel/mkl/lib/intel64/libmkl_core.a -Wl,-_end-group
 id        : olemiss

 Nodes     nprocs
 cn089        1

 Using customized tuning parameters: mindgm=1; mindgv=20; mindgc=4; mindgr=1; noblas=0; minvec=7
 default implementation of scratch files=df  

 ***,hno CCSD(T)/TZ-F12 QFF
 memory, 995, m;
 gthresh,energy=1.d-12,zero=1.d-22,oneint=1.d-22,twoint=1.d-22;
 gthresh,optgrad=1.d-8,optstep=1.d-8;
 nocompress;
 geomtyp=xyz
 bohr
 geometry={
 3
         27        27
 N        0.0000000000       -0.1570667161       -1.1471222939
 H        0.0000000000        1.6619439394       -1.9256392902
 O        0.0000000000        0.0368905667        1.1221719931
 }
 
 basis=avqz
   {hf,maxit=500;accu,20;}
 {ccsd(t),nocheck,maxit=250;orbital,IGNORE_ERROR;}

 Variables initialized (889), CPU time= 0.00 sec
 Commands  initialized (702), CPU time= 0.01 sec, 572 directives.
 Default parameters read. Elapsed time= 0.04 sec

 Checking input...
 Passed
1


                                         ***  PROGRAM SYSTEM MOLPRO  ***
                                       Copyright, TTI GmbH Stuttgart, 2015
                                    Version 2015.1 linked Jul  9 2018 13:16:40


 **********************************************************************************************************************************
 LABEL *   hno CCSD(T)/TZ-F12 QFF                                                        
  64 bit serial version                                                                  DATE: 08-Feb-20          TIME: 17:51:01  
 **********************************************************************************************************************************

 SHA1:             d5ffa45e93fdbca01ffc919aa182cfdae0147319
 **********************************************************************************************************************************

 THRESHOLDS:

 ZERO    =  1.00D-22  ONEINT  =  1.00D-22  TWOINT  =  1.00D-22  PREFAC  =  1.00D-14  LOCALI  =  1.00D-09  EORDER  =  1.00D-04
 ENERGY  =  1.00D-12  ETEST   =  0.00D+00  EDENS   =  0.00D+00  THRDEDEF=  1.00D-06  GRADIENT=  1.00D-02  STEP    =  1.00D-03
 ORBITAL =  1.00D-05  CIVEC   =  1.00D-05  COEFF   =  1.00D-04  PRINTCI =  5.00D-02  PUNCHCI =  9.90D+01  OPTGRAD =  3.00D-04
 OPTENERG=  1.00D-06  OPTSTEP =  3.00D-04  THRGRAD =  1.00D-10  COMPRESS=  1.00D-11  VARMIN  =  1.00D-07  VARMAX  =  1.00D-03
 THRDOUB =  0.00D+00  THRDIV  =  1.00D-05  THRRED  =  1.00D-07  THRPSP  =  1.00D+00  THRDC   =  1.00D-10  THRCS   =  1.00D-10
 THRNRM  =  1.00D-08  THREQ   =  0.00D+00  THRDE   =  1.00D+00  THRREF  =  1.00D-05  SPARFAC =  1.00D+00  THRDLP  =  1.00D-07
 THRDIA  =  1.00D-10  THRDLS  =  1.00D-07  THRGPS  =  0.00D+00  THRKEX  =  0.00D+00  THRDIS  =  2.00D-01  THRVAR  =  1.00D-10
 THRLOC  =  1.00D-06  THRGAP  =  1.00D-06  THRLOCT = -1.00D+00  THRGAPT = -1.00D+00  THRORB  =  1.00D-06  THRMLTP =  0.00D+00
 THRCPQCI=  1.00D-10  KEXTA   =  0.00D+00  THRCOARS=  0.00D+00  SYMTOL  =  1.00D-06  GRADTOL =  1.00D-06  THROVL  =  1.00D-08
 THRORTH =  1.00D-08  GRID    =  1.00D-06  GRIDMAX =  1.00D-03  DTMAX   =  0.00D+00  THROCCDE=  1.00D-01  THROCCDE=  1.00D-01



 THRESHOLDS:

 ZERO    =  1.00D-22  ONEINT  =  1.00D-22  TWOINT  =  1.00D-22  PREFAC  =  1.00D-14  LOCALI  =  1.00D-09  EORDER  =  1.00D-04
 ENERGY  =  1.00D-12  ETEST   =  0.00D+00  EDENS   =  0.00D+00  THRDEDEF=  1.00D-06  GRADIENT=  1.00D-02  STEP    =  1.00D-03
 ORBITAL =  1.00D-05  CIVEC   =  1.00D-05  COEFF   =  1.00D-04  PRINTCI =  5.00D-02  PUNCHCI =  9.90D+01  OPTGRAD =  1.00D-08
 OPTENERG=  1.00D-06  OPTSTEP =  1.00D-08  THRGRAD =  1.00D-10  COMPRESS=  1.00D-11  VARMIN  =  1.00D-07  VARMAX  =  1.00D-03
 THRDOUB =  0.00D+00  THRDIV  =  1.00D-05  THRRED  =  1.00D-07  THRPSP  =  1.00D+00  THRDC   =  1.00D-10  THRCS   =  1.00D-10
 THRNRM  =  1.00D-08  THREQ   =  0.00D+00  THRDE   =  1.00D+00  THRREF  =  1.00D-05  SPARFAC =  1.00D+00  THRDLP  =  1.00D-07
 THRDIA  =  1.00D-10  THRDLS  =  1.00D-07  THRGPS  =  0.00D+00  THRKEX  =  0.00D+00  THRDIS  =  2.00D-01  THRVAR  =  1.00D-10
 THRLOC  =  1.00D-06  THRGAP  =  1.00D-06  THRLOCT = -1.00D+00  THRGAPT = -1.00D+00  THRORB  =  1.00D-06  THRMLTP =  0.00D+00
 THRCPQCI=  1.00D-10  KEXTA   =  0.00D+00  THRCOARS=  0.00D+00  SYMTOL  =  1.00D-06  GRADTOL =  1.00D-06  THROVL  =  1.00D-08
 THRORTH =  1.00D-08  GRID    =  1.00D-06  GRIDMAX =  1.00D-03  DTMAX   =  0.00D+00  THROCCDE=  1.00D-01  THROCCDE=  1.00D-01



 Input parameters for SORTINT:

 COMPRESS =    0.000000
 C_FINAL  =    1.000000
 DEBUG    =   -1.000000
 C_SORT1  =    0.000000
 C_SEWARD =    0.000000
 THRESH   =    0.000000
 IO       =  molpro                                                          
 SPRI     =    0.000000
 SETTING GEOMTYP        =    XYZ
 ZUNIT=BOHR
 

 Variable memory set to  995000000 words,  buffer space   230000 words

 SETTING BASIS          =    AVQZ


 Recomputing integrals since basis changed


 Using spherical harmonics

 Library entry N      S aug-cc-pVQZ          selected for orbital group  1
 Library entry N      P aug-cc-pVQZ          selected for orbital group  1
 Library entry N      D aug-cc-pVQZ          selected for orbital group  1
 Library entry N      F aug-cc-pVQZ          selected for orbital group  1
 Library entry N      G aug-cc-pVQZ          selected for orbital group  1
 Library entry H      S aug-cc-pVQZ          selected for orbital group  2
 Library entry H      P aug-cc-pVQZ          selected for orbital group  2
 Library entry H      D aug-cc-pVQZ          selected for orbital group  2
 Library entry H      F aug-cc-pVQZ          selected for orbital group  2
 Library entry O      S aug-cc-pVQZ          selected for orbital group  3
 Library entry O      P aug-cc-pVQZ          selected for orbital group  3
 Library entry O      D aug-cc-pVQZ          selected for orbital group  3
 Library entry O      F aug-cc-pVQZ          selected for orbital group  3
 Library entry O      G aug-cc-pVQZ          selected for orbital group  3


 PROGRAM * SEWARD (Integral evaluation for generally contracted gaussian basis sets)     Author: Roland Lindh, 1990

 Geometry written to block  1 of record 700


 Point group  Cs  



 ATOMIC COORDINATES

 NR  ATOM    CHARGE       X              Y              Z

   1  N       7.00    0.000000000   -0.157066716   -1.147122294
   2  H       1.00    0.000000000    1.661943939   -1.925639290
   3  O       8.00    0.000000000    0.036890567    1.122171993

 Bond lengths in Bohr (Angstrom)

 1-2  1.978607712  1-3  2.277567999
     ( 1.047034111)     ( 1.205237081)

 Bond angles

  2-1-3  108.28518867

 NUCLEAR CHARGE:                   16
 NUMBER OF PRIMITIVE AOS:         293
 NUMBER OF SYMMETRY AOS:          234
 NUMBER OF CONTRACTIONS:          206   ( 130A'  +  76A"  )
 NUMBER OF CORE ORBITALS:           2   (   2A'  +   0A"  )
 NUMBER OF VALENCE ORBITALS:        9   (   7A'  +   2A"  )


 NUCLEAR REPULSION ENERGY   30.44164268

 Eigenvalues of metric

         1 0.587E-04 0.144E-03 0.316E-03 0.434E-03 0.581E-03 0.673E-03 0.997E-03 0.107E-02
         2 0.814E-03 0.160E-02 0.488E-02 0.891E-02 0.100E-01 0.122E-01 0.124E-01 0.184E-01


 Contracted 2-electron integrals neglected if value below      1.0D-22

      109945081. INTEGRALS WRITTEN OUT IN   26849 BLOCKS ON RECORD 1290 OF FILE 1


 NUMBER OF SORTED TWO-ELECTRON INTEGRALS:  115283741.     BUFFER LENGTH:  32768
 NUMBER OF SEGMENTS:   8  SEGMENT LENGTH:   15998004      RECORD LENGTH: 524288

 Memory used in sort:      16.56 MW

 SORT1 READ   109945081. AND WROTE   110865248. INTEGRALS IN    322 RECORDS. CPU TIME:     1.93 SEC, REAL TIME:     2.64 SEC
 SORT2 READ   110865248. AND WROTE   115283741. INTEGRALS IN      8 RECORDS. CPU TIME:     1.34 SEC, REAL TIME:     1.80 SEC

 FILE SIZES:   FILE 1:  1780.6 MBYTE,  FILE 4:  1350.6 MBYTE,   TOTAL:   3131.2 MBYTE

 OPERATOR DM      FOR CENTER  0  COORDINATES:    0.000000    0.000000    0.000000


 **********************************************************************************************************************************
 DATASETS  * FILE   NREC   LENGTH (MB)   RECORD NAMES
              1      19      944.14       500      610      700      900      950      970     1000      129      960     1100   
                                          VAR    BASINP    GEOM    SYMINP    ZMAT    AOBASIS   BASIS     P2S    ABASIS      S 
                                         1400     1410     1200     1210     1080     1600     1650     1300     1700   
                                           T        V       H0       H01     AOSYM     SMH    MOLCAS    ERIS     OPER   

 PROGRAMS   *        TOTAL       INT
 CPU TIMES  *        10.87     10.79
 REAL TIME  *        13.70 SEC
 DISK USED  *         3.13 GB      
 **********************************************************************************************************************************


 PROGRAM * RHF-SCF (CLOSED SHELL)       Authors: W. Meyer, H.-J. Werner


 NUMBER OF ELECTRONS:       8+    8-
 CONVERGENCE THRESHOLDS:    1.00E-10 (Density)    1.00E-13 (Energy)
 MAX. NUMBER OF ITERATIONS:      500
 INTERPOLATION TYPE:            DIIS
 INTERPOLATION STEPS:              2 (START)      1 (STEP)
 LEVEL SHIFTS:                  0.00 (CLOSED)  0.00 (OPEN) 



 Orbital guess generated from atomic densities. Full valence occupancy:    9   2

 Molecular orbital dump at record        2100.2

 Initial occupancy:   7   1

 ITERATION    DDIFF          GRAD             ENERGY        2-EL.EN.            DIPOLE MOMENTS         DIIS   ORB.
    1      0.000D+00      0.000D+00      -129.79784197    154.094741    0.00000    0.59722   -1.01720    0    start
    2      0.000D+00      0.807D-02      -129.82520862    155.327335    0.00000    0.60903   -0.21160    1    diag
    3      0.648D-02      0.610D-02      -129.84742541    155.445362    0.00000    0.55737   -0.59065    2    diag
    4      0.330D-02      0.969D-03      -129.84822285    155.162791    0.00000    0.56482   -0.52973    3    diag
    5      0.604D-03      0.314D-03      -129.84834729    155.255777    0.00000    0.57008   -0.53234    4    diag
    6      0.251D-03      0.906D-04      -129.84836706    155.239713    0.00000    0.57038   -0.52823    5    diag
    7      0.954D-04      0.450D-04      -129.84837278    155.242473    0.00000    0.57161   -0.52565    6    diag
    8      0.657D-04      0.156D-04      -129.84837341    155.241792    0.00000    0.57165   -0.52465    7    diag
    9      0.250D-04      0.298D-05      -129.84837344    155.241680    0.00000    0.57161   -0.52443    8    diag
   10      0.494D-05      0.681D-06      -129.84837344    155.241662    0.00000    0.57158   -0.52440    9    orth
   11      0.983D-06      0.136D-06      -129.84837344    155.241659    0.00000    0.57157   -0.52440    9    diag
   12      0.181D-06      0.276D-07      -129.84837344    155.241659    0.00000    0.57157   -0.52440    9    diag
   13      0.389D-07      0.709D-08      -129.84837344    155.241659    0.00000    0.57157   -0.52440    9    diag
   14      0.105D-07      0.139D-08      -129.84837344    155.241659    0.00000    0.57157   -0.52440    9    diag
   15      0.193D-08      0.401D-09      -129.84837344    155.241659    0.00000    0.57157   -0.52440    9    diag
   16      0.575D-09      0.121D-09      -129.84837344    155.241659    0.00000    0.57157   -0.52440    9    diag
   17      0.111D-09      0.320D-10      -129.84837344    155.241659    0.00000    0.57157   -0.52440    9    diag
   18      0.297D-10      0.108D-10      -129.84837344    155.241659    0.00000    0.57157   -0.52440    0    orth

 Final occupancy:   7   1

 !RHF STATE 1.1 Energy               -129.848373442129
 Nuclear energy                        30.44164268
 One-electron energy                 -237.91084544
 Two-electron energy                   77.62082931
 Virial quotient                       -1.00160724
 !RHF STATE 1.1 Dipole moment           0.00000000     0.57157107    -0.52440085
 Dipole moment /Debye                   0.00000000     1.45269361    -1.33280671

 Orbital energies:

         1.1          2.1          3.1          4.1          5.1          6.1          7.1          8.1          9.1
    -20.653343   -15.711480    -1.531840    -0.995218    -0.748588    -0.666909    -0.429928     0.026389     0.079486

         1.2          2.2          3.2
     -0.597288     0.063961     0.110472

 HOMO      7.1    -0.429928 =     -11.6989eV
 LUMO      8.1     0.026389 =       0.7181eV
 LUMO-HOMO         0.456317 =      12.4170eV


 **********************************************************************************************************************************
 DATASETS  * FILE   NREC   LENGTH (MB)   RECORD NAMES
              1      19      944.14       500      610      700      900      950      970     1000      129      960     1100   
                                          VAR    BASINP    GEOM    SYMINP    ZMAT    AOBASIS   BASIS     P2S    ABASIS      S 
                                         1400     1410     1200     1210     1080     1600     1650     1300     1700   
                                           T        V       H0       H01     AOSYM     SMH    MOLCAS    ERIS     OPER   

              2       4        3.27       700     1000      520     2100   
                                         GEOM     BASIS   MCVARS     RHF  

 PROGRAMS   *        TOTAL        HF       INT
 CPU TIMES  *        19.91      9.04     10.79
 REAL TIME  *        24.86 SEC
 DISK USED  *         3.13 GB      
 **********************************************************************************************************************************


 PROGRAM * CCSD (Closed-shell coupled cluster)     Authors: C. Hampel, H.-J. Werner, 1991, M. Deegan, P.J. Knowles, 1992


 Convergence thresholds:  THRVAR = 1.00D-08  THRDEN = 1.00D-12

 CCSD(T)     terms to be evaluated (factor= 1.000)


 Number of core orbitals:           2 (   2   0 )
 Number of closed-shell orbitals:   6 (   5   1 )
 Number of external orbitals:     198 ( 123  75 )

 Molecular orbitals read from record     2100.2  Type=RHF/CANONICAL (state 1.1)

 Number of N-1 electron functions:               6
 Number of N-2 electron functions:              21
 Number of singly external CSFs:               690
 Number of doubly external CSFs:            362646
 Total number of CSFs:                      363337

 Length of J-op  integral file:               0.00 MB
 Length of K-op  integral file:               1.60 MB
 Length of 3-ext integral record:             0.00 MB

 Memory could be reduced to 34.67 Mwords without degradation in triples

 Integral transformation finished. Total CPU:   1.43 sec, npass=  1  Memory used:   9.53 MW

 Reference energy:                   -129.84837344

 MP2 singlet pair energy:              -0.30122598
 MP2 triplet pair energy:              -0.17018110
 MP2 correlation energy:               -0.47140708
 MP2 total energy:                   -130.31978053

 SCS-MP2 correlation energy:           -0.46736164   (PS=  1.200000  PT=  0.333333)
 SCS-MP2 total energy:               -130.31573508

 ITER.      SQ.NORM     CORR.ENERGY   TOTAL ENERGY   ENERGY CHANGE        DEN1      VAR(S)    VAR(P)  DIIS     TIME  TIME/IT
   1      1.12057408    -0.47156033  -130.31993378    -0.00015325     0.01610303  0.31D-02  0.31D-02  1  1     2.65     1.35
   2      1.13117963    -0.47154419  -130.31991763     0.00001614    -0.01240637  0.10D-03  0.49D-03  2  2     3.86     1.38
   3      1.13740942    -0.47191522  -130.32028866    -0.00037103    -0.00302086  0.47D-04  0.53D-04  3  3     5.13     1.39
   4      1.14012647    -0.47192261  -130.32029605    -0.00000739    -0.00092528  0.42D-05  0.95D-05  4  4     6.36     1.39
   5      1.14119712    -0.47195130  -130.32032475    -0.00002869    -0.00023375  0.11D-05  0.16D-05  5  5     7.60     1.40
   6      1.14154502    -0.47193686  -130.32031030     0.00001445    -0.00004996  0.10D-06  0.40D-06  6  6     8.84     1.40
   7      1.14161723    -0.47193737  -130.32031081    -0.00000051     0.00000246  0.16D-07  0.89D-07  6  1    10.13     1.40
   8      1.14163957    -0.47193775  -130.32031119    -0.00000038    -0.00000106  0.35D-08  0.17D-07  6  2    11.35     1.41
   9      1.14164448    -0.47193738  -130.32031082     0.00000037     0.00000091  0.25D-08  0.20D-08  6  4    12.64     1.41
  10      1.14164686    -0.47193775  -130.32031119    -0.00000037    -0.00000073  0.46D-09  0.23D-09  6  3    13.91     1.41
  11      1.14164657    -0.47193781  -130.32031125    -0.00000006    -0.00000011  0.14D-09  0.33D-10  6  5    15.18     1.41
  12      1.14164563    -0.47193795  -130.32031139    -0.00000014     0.00000035  0.18D-10  0.10D-10  6  6    16.46     1.42
  13      1.14164481    -0.47193799  -130.32031143    -0.00000004     0.00000021  0.55D-11  0.22D-11  6  1    17.75     1.42
  14      1.14164416    -0.47193802  -130.32031146    -0.00000003     0.00000015  0.38D-12  0.45D-12  6  4    19.00     1.42
  15      1.14164396    -0.47193803  -130.32031147    -0.00000001     0.00000003  0.81D-13  0.35D-13  6  2    20.29     1.42
  16      1.14164391    -0.47193803  -130.32031147    -0.00000000     0.00000001  0.22D-13  0.66D-14  6  3    21.55     1.42
  17      1.14164389    -0.47193803  -130.32031147    -0.00000000     0.00000001  0.39D-14  0.98D-15  6  5    22.84     1.42
  18      1.14164389    -0.47193803  -130.32031147    -0.00000000     0.00000000  0.80D-15  0.25D-15  6  6    24.10     1.42
  19      1.14164389    -0.47193803  -130.32031147     0.00000000     0.00000000  0.92D-16  0.50D-16  6  1    25.33     1.42
  20      1.14164389    -0.47193803  -130.32031147     0.00000000    -0.00000000  0.91D-17  0.74D-17  6  4    26.59     1.42
  21      1.14164389    -0.47193803  -130.32031147     0.00000000    -0.00000000  0.47D-18  0.63D-18  6  3    27.87     1.42
  22      1.14164389    -0.47193803  -130.32031147     0.00000000    -0.00000000  0.12D-18  0.14D-18  6  2    29.13     1.42
  23      1.14164389    -0.47193803  -130.32031147     0.00000000    -0.00000000  0.95D-20  0.31D-19  6  1    30.43     1.43
  24      1.14164389    -0.47193803  -130.32031147    -0.00000000     0.00000000  0.16D-20  0.61D-20  6  5    31.67     1.43
  25      1.14164389    -0.47193803  -130.32031147     0.00000000     0.00000000  0.11D-20  0.15D-20  6  6    32.95     1.43

 Norm of t1 vector:      0.07615102      S-energy:     0.00000000      T1 diagnostic:  0.01554426
                                                                       D1 diagnostic:  0.04180849

 Doubles amplitudes (print threshold =  0.500E-01):

         I         J         SYM. A    SYM. B    A         B      T(IJ, AB)

         6         6         2         2         1         1     -0.09712955


 Total CPU time for triples:     16.44 sec


 RESULTS
 =======

  Reference energy                   -129.848373442129
  CCSD singlet pair energy             -0.326141476729
  CCSD triplet pair energy             -0.145796551027
  CCSD correlation energy              -0.471938027754

  Triples (T) contribution             -0.022243468783
  Total correlation energy             -0.494181496537

  CCSD total energy                  -130.320311469883
  CCSD[T] energy                     -130.343612158519
  CCSD-T energy                      -130.342174116137
 !CCSD(T) total energy               -130.342554938666

 Timing summary (sec):

 STEP                 CPU(USER)    SYS     CPU(TOT)    WALL
 Transformation          1.44      0.26      1.70      1.70
 CCSD iterations        31.51      4.15     35.66     35.67
 Triples                16.44      0.43     16.87     16.87

 Program statistics:

 Available memory in ccsd:               994999756
 Min. memory needed in ccsd:               1265322
 Max. memory used in ccsd:                 1555950
 Max. memory used in cckext:               2415326 (25 integral passes)



 **********************************************************************************************************************************
 DATASETS  * FILE   NREC   LENGTH (MB)   RECORD NAMES
              1      20     1044.69       500      610      700      900      950      970     1000      129      960     1100   
                                          VAR    BASINP    GEOM    SYMINP    ZMAT    AOBASIS   BASIS     P2S    ABASIS      S 
                                         1400     1410     1200     1210     1080     1600     1650     1300     1700     1380   
                                           T        V       H0       H01     AOSYM     SMH    MOLCAS    ERIS     OPER     JKOP   

              2       4        3.27       700     1000      520     2100   
                                         GEOM     BASIS   MCVARS     RHF  

 PROGRAMS   *        TOTAL   CCSD(T)        HF       INT
 CPU TIMES  *        69.32     49.39      9.04     10.79
 REAL TIME  *        79.13 SEC
 DISK USED  *         3.13 GB      
 **********************************************************************************************************************************

 CCSD(T)/aug-cc-pVQZ energy=   -130.342554938666

        CCSD(T)         HF-SCF  
   -130.34255494   -129.84837344
 **********************************************************************************************************************************
 Molpro calculation terminated
 Variable memory released
