
 Primary working directories    : /tmp/r2666/234864.maple
 Secondary working directories  : /tmp/r2666/234864.maple
 Wavefunction directory         : /ddn/home4/r2666/wfu/
 Main file repository           : /tmp/r2666/234864.maple/

 SHA1      : d5ffa45e93fdbca01ffc919aa182cfdae0147319
 NAME      : 2015.1.35
 ARCHNAME  : linux/x86_64
 FC        : /opt/intel/composer_xe_2015.1.133/bin/intel64/ifort
 BLASLIB   : -Wl,-_start-group /opt/intel/mkl/lib/intel64/libmkl_intel_ilp64.a /opt/intel/mkl/lib/intel64/libmkl_intel_thread.a /opt/intel/mkl/lib/intel64/libmkl_core.a -Wl,-_end-group
 id        : olemiss

 Nodes     nprocs
 cn030        1

 Using customized tuning parameters: mindgm=1; mindgv=20; mindgc=4; mindgr=1; noblas=0; minvec=7
 default implementation of scratch files=df  

 ***,hno CCSD(T)/TZ-F12 QFF
 memory, 995, m;
 gthresh,energy=1.d-12,zero=1.d-22,oneint=1.d-22,twoint=1.d-22;
 gthresh,optgrad=1.d-8,optstep=1.d-8;
 nocompress;
 geomtyp=xyz
 bohr
 geometry={
 3
        107       107
 N        0.0000000000       -0.1611388897       -1.1449743018
 H        0.0000000000        1.6719815317       -1.9385079392
 O        0.0000000000        0.0309251480        1.1328926500
 }
 
 basis=avqz
   {hf,maxit=500;accu,20;}
 {ccsd(t),nocheck,maxit=250;orbital,IGNORE_ERROR;}

 Variables initialized (889), CPU time= 0.00 sec
 Commands  initialized (702), CPU time= 0.01 sec, 572 directives.
 Default parameters read. Elapsed time= 0.05 sec

 Checking input...
 Passed
1


                                         ***  PROGRAM SYSTEM MOLPRO  ***
                                       Copyright, TTI GmbH Stuttgart, 2015
                                    Version 2015.1 linked Jul  9 2018 13:16:40


 **********************************************************************************************************************************
 LABEL *   hno CCSD(T)/TZ-F12 QFF                                                        
  64 bit serial version                                                                  DATE: 08-Feb-20          TIME: 17:54:53  
 **********************************************************************************************************************************

 SHA1:             d5ffa45e93fdbca01ffc919aa182cfdae0147319
 **********************************************************************************************************************************

 THRESHOLDS:

 ZERO    =  1.00D-22  ONEINT  =  1.00D-22  TWOINT  =  1.00D-22  PREFAC  =  1.00D-14  LOCALI  =  1.00D-09  EORDER  =  1.00D-04
 ENERGY  =  1.00D-12  ETEST   =  0.00D+00  EDENS   =  0.00D+00  THRDEDEF=  1.00D-06  GRADIENT=  1.00D-02  STEP    =  1.00D-03
 ORBITAL =  1.00D-05  CIVEC   =  1.00D-05  COEFF   =  1.00D-04  PRINTCI =  5.00D-02  PUNCHCI =  9.90D+01  OPTGRAD =  3.00D-04
 OPTENERG=  1.00D-06  OPTSTEP =  3.00D-04  THRGRAD =  1.00D-10  COMPRESS=  1.00D-11  VARMIN  =  1.00D-07  VARMAX  =  1.00D-03
 THRDOUB =  0.00D+00  THRDIV  =  1.00D-05  THRRED  =  1.00D-07  THRPSP  =  1.00D+00  THRDC   =  1.00D-10  THRCS   =  1.00D-10
 THRNRM  =  1.00D-08  THREQ   =  0.00D+00  THRDE   =  1.00D+00  THRREF  =  1.00D-05  SPARFAC =  1.00D+00  THRDLP  =  1.00D-07
 THRDIA  =  1.00D-10  THRDLS  =  1.00D-07  THRGPS  =  0.00D+00  THRKEX  =  0.00D+00  THRDIS  =  2.00D-01  THRVAR  =  1.00D-10
 THRLOC  =  1.00D-06  THRGAP  =  1.00D-06  THRLOCT = -1.00D+00  THRGAPT = -1.00D+00  THRORB  =  1.00D-06  THRMLTP =  0.00D+00
 THRCPQCI=  1.00D-10  KEXTA   =  0.00D+00  THRCOARS=  0.00D+00  SYMTOL  =  1.00D-06  GRADTOL =  1.00D-06  THROVL  =  1.00D-08
 THRORTH =  1.00D-08  GRID    =  1.00D-06  GRIDMAX =  1.00D-03  DTMAX   =  0.00D+00  THROCCDE=  1.00D-01  THROCCDE=  1.00D-01



 THRESHOLDS:

 ZERO    =  1.00D-22  ONEINT  =  1.00D-22  TWOINT  =  1.00D-22  PREFAC  =  1.00D-14  LOCALI  =  1.00D-09  EORDER  =  1.00D-04
 ENERGY  =  1.00D-12  ETEST   =  0.00D+00  EDENS   =  0.00D+00  THRDEDEF=  1.00D-06  GRADIENT=  1.00D-02  STEP    =  1.00D-03
 ORBITAL =  1.00D-05  CIVEC   =  1.00D-05  COEFF   =  1.00D-04  PRINTCI =  5.00D-02  PUNCHCI =  9.90D+01  OPTGRAD =  1.00D-08
 OPTENERG=  1.00D-06  OPTSTEP =  1.00D-08  THRGRAD =  1.00D-10  COMPRESS=  1.00D-11  VARMIN  =  1.00D-07  VARMAX  =  1.00D-03
 THRDOUB =  0.00D+00  THRDIV  =  1.00D-05  THRRED  =  1.00D-07  THRPSP  =  1.00D+00  THRDC   =  1.00D-10  THRCS   =  1.00D-10
 THRNRM  =  1.00D-08  THREQ   =  0.00D+00  THRDE   =  1.00D+00  THRREF  =  1.00D-05  SPARFAC =  1.00D+00  THRDLP  =  1.00D-07
 THRDIA  =  1.00D-10  THRDLS  =  1.00D-07  THRGPS  =  0.00D+00  THRKEX  =  0.00D+00  THRDIS  =  2.00D-01  THRVAR  =  1.00D-10
 THRLOC  =  1.00D-06  THRGAP  =  1.00D-06  THRLOCT = -1.00D+00  THRGAPT = -1.00D+00  THRORB  =  1.00D-06  THRMLTP =  0.00D+00
 THRCPQCI=  1.00D-10  KEXTA   =  0.00D+00  THRCOARS=  0.00D+00  SYMTOL  =  1.00D-06  GRADTOL =  1.00D-06  THROVL  =  1.00D-08
 THRORTH =  1.00D-08  GRID    =  1.00D-06  GRIDMAX =  1.00D-03  DTMAX   =  0.00D+00  THROCCDE=  1.00D-01  THROCCDE=  1.00D-01



 Input parameters for SORTINT:

 COMPRESS =    0.000000
 C_FINAL  =    1.000000
 DEBUG    =   -1.000000
 C_SORT1  =    0.000000
 C_SEWARD =    0.000000
 THRESH   =    0.000000
 IO       =  molpro                                                          
 SPRI     =    0.000000
 SETTING GEOMTYP        =    XYZ
 ZUNIT=BOHR
 

 Variable memory set to  995000000 words,  buffer space   230000 words

 SETTING BASIS          =    AVQZ


 Recomputing integrals since basis changed


 Using spherical harmonics

 Library entry N      S aug-cc-pVQZ          selected for orbital group  1
 Library entry N      P aug-cc-pVQZ          selected for orbital group  1
 Library entry N      D aug-cc-pVQZ          selected for orbital group  1
 Library entry N      F aug-cc-pVQZ          selected for orbital group  1
 Library entry N      G aug-cc-pVQZ          selected for orbital group  1
 Library entry H      S aug-cc-pVQZ          selected for orbital group  2
 Library entry H      P aug-cc-pVQZ          selected for orbital group  2
 Library entry H      D aug-cc-pVQZ          selected for orbital group  2
 Library entry H      F aug-cc-pVQZ          selected for orbital group  2
 Library entry O      S aug-cc-pVQZ          selected for orbital group  3
 Library entry O      P aug-cc-pVQZ          selected for orbital group  3
 Library entry O      D aug-cc-pVQZ          selected for orbital group  3
 Library entry O      F aug-cc-pVQZ          selected for orbital group  3
 Library entry O      G aug-cc-pVQZ          selected for orbital group  3


 PROGRAM * SEWARD (Integral evaluation for generally contracted gaussian basis sets)     Author: Roland Lindh, 1990

 Geometry written to block  1 of record 700


 Point group  Cs  



 ATOMIC COORDINATES

 NR  ATOM    CHARGE       X              Y              Z

   1  N       7.00    0.000000000   -0.161138890   -1.144974302
   2  H       1.00    0.000000000    1.671981532   -1.938507939
   3  O       8.00    0.000000000    0.030925148    1.132892650

 Bond lengths in Bohr (Angstrom)

 1-2  1.997504972  1-3  2.285949790
     ( 1.057034110)     ( 1.209672534)

 Bond angles

  2-1-3  108.58751303

 NUCLEAR CHARGE:                   16
 NUMBER OF PRIMITIVE AOS:         293
 NUMBER OF SYMMETRY AOS:          234
 NUMBER OF CONTRACTIONS:          206   ( 130A'  +  76A"  )
 NUMBER OF CORE ORBITALS:           2   (   2A'  +   0A"  )
 NUMBER OF VALENCE ORBITALS:        9   (   7A'  +   2A"  )


 NUCLEAR REPULSION ENERGY   30.29916530

 Eigenvalues of metric

         1 0.600E-04 0.146E-03 0.319E-03 0.436E-03 0.590E-03 0.687E-03 0.102E-02 0.109E-02
         2 0.829E-03 0.165E-02 0.497E-02 0.895E-02 0.102E-01 0.124E-01 0.126E-01 0.191E-01


 Contracted 2-electron integrals neglected if value below      1.0D-22

      109945086. INTEGRALS WRITTEN OUT IN   26849 BLOCKS ON RECORD 1290 OF FILE 1


 NUMBER OF SORTED TWO-ELECTRON INTEGRALS:  115283741.     BUFFER LENGTH:  32768
 NUMBER OF SEGMENTS:   8  SEGMENT LENGTH:   15998004      RECORD LENGTH: 524288

 Memory used in sort:      16.56 MW

 SORT1 READ   109945086. AND WROTE   110865253. INTEGRALS IN    322 RECORDS. CPU TIME:     3.23 SEC, REAL TIME:     4.07 SEC
 SORT2 READ   110865253. AND WROTE   115283741. INTEGRALS IN      8 RECORDS. CPU TIME:     1.52 SEC, REAL TIME:     2.03 SEC

 FILE SIZES:   FILE 1:  1780.6 MBYTE,  FILE 4:  1350.6 MBYTE,   TOTAL:   3131.2 MBYTE

 OPERATOR DM      FOR CENTER  0  COORDINATES:    0.000000    0.000000    0.000000


 **********************************************************************************************************************************
 DATASETS  * FILE   NREC   LENGTH (MB)   RECORD NAMES
              1      19      944.14       500      610      700      900      950      970     1000      129      960     1100   
                                          VAR    BASINP    GEOM    SYMINP    ZMAT    AOBASIS   BASIS     P2S    ABASIS      S 
                                         1400     1410     1200     1210     1080     1600     1650     1300     1700   
                                           T        V       H0       H01     AOSYM     SMH    MOLCAS    ERIS     OPER   

 PROGRAMS   *        TOTAL       INT
 CPU TIMES  *        15.93     15.83
 REAL TIME  *        18.94 SEC
 DISK USED  *         3.13 GB      
 **********************************************************************************************************************************


 PROGRAM * RHF-SCF (CLOSED SHELL)       Authors: W. Meyer, H.-J. Werner


 NUMBER OF ELECTRONS:       8+    8-
 CONVERGENCE THRESHOLDS:    1.00E-10 (Density)    1.00E-13 (Energy)
 MAX. NUMBER OF ITERATIONS:      500
 INTERPOLATION TYPE:            DIIS
 INTERPOLATION STEPS:              2 (START)      1 (STEP)
 LEVEL SHIFTS:                  0.00 (CLOSED)  0.00 (OPEN) 



 Orbital guess generated from atomic densities. Full valence occupancy:    9   2

 Molecular orbital dump at record        2100.2

 Initial occupancy:   7   1

 ITERATION    DDIFF          GRAD             ENERGY        2-EL.EN.            DIPOLE MOMENTS         DIIS   ORB.
    1      0.000D+00      0.000D+00      -129.79577591    153.830374    0.00000    0.59549   -1.03348    0    start
    2      0.000D+00      0.815D-02      -129.82298661    155.067574    0.00000    0.61073   -0.20662    1    diag
    3      0.657D-02      0.625D-02      -129.84636988    155.192502    0.00000    0.55718   -0.59741    2    diag
    4      0.336D-02      0.975D-03      -129.84718006    154.904849    0.00000    0.56430   -0.53566    3    diag
    5      0.608D-03      0.317D-03      -129.84730811    154.999171    0.00000    0.56973   -0.53828    4    diag
    6      0.254D-03      0.920D-04      -129.84732860    154.982910    0.00000    0.57002   -0.53405    5    diag
    7      0.972D-04      0.458D-04      -129.84733457    154.985680    0.00000    0.57126   -0.53142    6    diag
    8      0.670D-04      0.161D-04      -129.84733526    154.984977    0.00000    0.57131   -0.53038    7    diag
    9      0.261D-04      0.311D-05      -129.84733529    154.984857    0.00000    0.57127   -0.53016    8    diag
   10      0.524D-05      0.708D-06      -129.84733529    154.984838    0.00000    0.57123   -0.53013    9    orth
   11      0.103D-05      0.141D-06      -129.84733529    154.984834    0.00000    0.57123   -0.53012    9    diag
   12      0.188D-06      0.287D-07      -129.84733529    154.984834    0.00000    0.57123   -0.53012    9    diag
   13      0.403D-07      0.747D-08      -129.84733529    154.984834    0.00000    0.57122   -0.53012    9    diag
   14      0.111D-07      0.147D-08      -129.84733529    154.984834    0.00000    0.57122   -0.53012    9    diag
   15      0.203D-08      0.421D-09      -129.84733529    154.984834    0.00000    0.57122   -0.53012    9    diag
   16      0.604D-09      0.125D-09      -129.84733529    154.984834    0.00000    0.57122   -0.53012    9    diag
   17      0.113D-09      0.328D-10      -129.84733529    154.984834    0.00000    0.57122   -0.53012    9    diag
   18      0.310D-10      0.111D-10      -129.84733529    154.984834    0.00000    0.57122   -0.53012    9    diag
   19      0.167D-10      0.267D-11      -129.84733529    154.984834    0.00000    0.57122   -0.53012    0    orth

 Final occupancy:   7   1

 !RHF STATE 1.1 Energy               -129.847335288748
 Nuclear energy                        30.29916530
 One-electron energy                 -237.63891738
 Two-electron energy                   77.49241679
 Virial quotient                       -1.00186812
 !RHF STATE 1.1 Dipole moment           0.00000000     0.57122491    -0.53012165
 Dipole moment /Debye                   0.00000000     1.45181382    -1.34734658

 Orbital energies:

         1.1          2.1          3.1          4.1          5.1          6.1          7.1          8.1          9.1
    -20.654042   -15.713543    -1.527941    -0.993913    -0.746124    -0.665696    -0.430495     0.026301     0.079461

         1.2          2.2          3.2
     -0.595288     0.062811     0.110456

 HOMO      7.1    -0.430495 =     -11.7144eV
 LUMO      8.1     0.026301 =       0.7157eV
 LUMO-HOMO         0.456796 =      12.4301eV


 **********************************************************************************************************************************
 DATASETS  * FILE   NREC   LENGTH (MB)   RECORD NAMES
              1      19      944.14       500      610      700      900      950      970     1000      129      960     1100   
                                          VAR    BASINP    GEOM    SYMINP    ZMAT    AOBASIS   BASIS     P2S    ABASIS      S 
                                         1400     1410     1200     1210     1080     1600     1650     1300     1700   
                                           T        V       H0       H01     AOSYM     SMH    MOLCAS    ERIS     OPER   

              2       4        3.27       700     1000      520     2100   
                                         GEOM     BASIS   MCVARS     RHF  

 PROGRAMS   *        TOTAL        HF       INT
 CPU TIMES  *        26.82     10.89     15.83
 REAL TIME  *        32.85 SEC
 DISK USED  *         3.13 GB      
 **********************************************************************************************************************************


 PROGRAM * CCSD (Closed-shell coupled cluster)     Authors: C. Hampel, H.-J. Werner, 1991, M. Deegan, P.J. Knowles, 1992


 Convergence thresholds:  THRVAR = 1.00D-08  THRDEN = 1.00D-12

 CCSD(T)     terms to be evaluated (factor= 1.000)


 Number of core orbitals:           2 (   2   0 )
 Number of closed-shell orbitals:   6 (   5   1 )
 Number of external orbitals:     198 ( 123  75 )

 Molecular orbitals read from record     2100.2  Type=RHF/CANONICAL (state 1.1)

 Number of N-1 electron functions:               6
 Number of N-2 electron functions:              21
 Number of singly external CSFs:               690
 Number of doubly external CSFs:            362646
 Total number of CSFs:                      363337

 Length of J-op  integral file:               0.00 MB
 Length of K-op  integral file:               1.60 MB
 Length of 3-ext integral record:             0.00 MB

 Memory could be reduced to 34.67 Mwords without degradation in triples

 Integral transformation finished. Total CPU:   1.83 sec, npass=  1  Memory used:   9.53 MW

 Reference energy:                   -129.84733529

 MP2 singlet pair energy:              -0.30190484
 MP2 triplet pair energy:              -0.17062259
 MP2 correlation energy:               -0.47252743
 MP2 total energy:                   -130.31986272

 SCS-MP2 correlation energy:           -0.46845098   (PS=  1.200000  PT=  0.333333)
 SCS-MP2 total energy:               -130.31578626

 ITER.      SQ.NORM     CORR.ENERGY   TOTAL ENERGY   ENERGY CHANGE        DEN1      VAR(S)    VAR(P)  DIIS     TIME  TIME/IT
   1      1.12139720    -0.47247701  -130.31981230     0.00005042     0.01659417  0.32D-02  0.32D-02  1  1     3.49     1.79
   2      1.13218112    -0.47241511  -130.31975040     0.00006190    -0.01257844  0.11D-03  0.50D-03  2  2     5.10     1.79
   3      1.13856115    -0.47280007  -130.32013536    -0.00038496    -0.00306971  0.50D-04  0.54D-04  3  3     6.71     1.78
   4      1.14135185    -0.47280603  -130.32014132    -0.00000596    -0.00094694  0.45D-05  0.98D-05  4  4     8.27     1.78
   5      1.14247193    -0.47283625  -130.32017154    -0.00003023    -0.00024405  0.12D-05  0.17D-05  5  5     9.87     1.78
   6      1.14283333    -0.47282116  -130.32015645     0.00001510    -0.00005183  0.12D-06  0.40D-06  6  6    11.46     1.77
   7      1.14290804    -0.47282152  -130.32015681    -0.00000036     0.00000246  0.18D-07  0.90D-07  6  1    13.07     1.78
   8      1.14293132    -0.47282184  -130.32015713    -0.00000032    -0.00000123  0.35D-08  0.18D-07  6  2    14.70     1.78
   9      1.14293664    -0.47282142  -130.32015671     0.00000042     0.00000099  0.26D-08  0.21D-08  6  4    16.40     1.79
  10      1.14293917    -0.47282180  -130.32015709    -0.00000038    -0.00000077  0.48D-09  0.25D-09  6  3    18.05     1.79
  11      1.14293889    -0.47282187  -130.32015716    -0.00000006    -0.00000011  0.15D-09  0.36D-10  6  5    19.69     1.80
  12      1.14293790    -0.47282201  -130.32015730    -0.00000014     0.00000036  0.20D-10  0.11D-10  6  6    21.37     1.80
  13      1.14293704    -0.47282205  -130.32015734    -0.00000004     0.00000022  0.61D-11  0.24D-11  6  1    22.99     1.80
  14      1.14293635    -0.47282209  -130.32015737    -0.00000003     0.00000016  0.40D-12  0.49D-12  6  4    24.61     1.81
  15      1.14293614    -0.47282209  -130.32015738    -0.00000001     0.00000003  0.90D-13  0.38D-13  6  2    26.28     1.81
  16      1.14293608    -0.47282209  -130.32015738    -0.00000000     0.00000001  0.25D-13  0.72D-14  6  3    27.93     1.81
  17      1.14293606    -0.47282210  -130.32015738    -0.00000000     0.00000001  0.44D-14  0.11D-14  6  5    29.55     1.81
  18      1.14293606    -0.47282210  -130.32015738    -0.00000000     0.00000000  0.88D-15  0.28D-15  6  6    31.33     1.82
  19      1.14293606    -0.47282210  -130.32015738     0.00000000     0.00000000  0.10D-15  0.57D-16  6  1    32.98     1.82
  20      1.14293606    -0.47282210  -130.32015738     0.00000000    -0.00000000  0.10D-16  0.82D-17  6  4    34.65     1.82
  21      1.14293606    -0.47282210  -130.32015738     0.00000000    -0.00000000  0.55D-18  0.69D-18  6  3    36.28     1.82
  22      1.14293606    -0.47282210  -130.32015738     0.00000000    -0.00000000  0.14D-18  0.16D-18  6  2    37.93     1.83
  23      1.14293606    -0.47282210  -130.32015738     0.00000000     0.00000000  0.42D-19  0.58D-19  6  5    39.59     1.83
  24      1.14293606    -0.47282210  -130.32015738    -0.00000000     0.00000000  0.37D-20  0.13D-19  6  1    41.26     1.83

 Norm of t1 vector:      0.07738512      S-energy:    -0.00000000      T1 diagnostic:  0.01579617
                                                                       D1 diagnostic:  0.04244088

 Doubles amplitudes (print threshold =  0.500E-01):

         I         J         SYM. A    SYM. B    A         B      T(IJ, AB)

         6         6         2         2         1         1     -0.09953420


 Total CPU time for triples:     19.96 sec


 RESULTS
 =======

  Reference energy                   -129.847335288747
  CCSD singlet pair energy             -0.326902472651
  CCSD triplet pair energy             -0.145919622761
  CCSD correlation energy              -0.472822095412

  Triples (T) contribution             -0.022455496882
  Total correlation energy             -0.495277592294

  CCSD total energy                  -130.320157384159
  CCSD[T] energy                     -130.343701433626
  CCSD-T energy                      -130.342223234293
 !CCSD(T) total energy               -130.342612881042

 Timing summary (sec):

 STEP                 CPU(USER)    SYS     CPU(TOT)    WALL
 Transformation          1.85      0.30      2.15      2.35
 CCSD iterations        39.42      4.45     43.87     43.86
 Triples                19.96      0.52     20.48     20.49

 Program statistics:

 Available memory in ccsd:               994999756
 Min. memory needed in ccsd:               1265322
 Max. memory used in ccsd:                 1555950
 Max. memory used in cckext:               2415326 (24 integral passes)



 **********************************************************************************************************************************
 DATASETS  * FILE   NREC   LENGTH (MB)   RECORD NAMES
              1      20     1044.69       500      610      700      900      950      970     1000      129      960     1100   
                                          VAR    BASINP    GEOM    SYMINP    ZMAT    AOBASIS   BASIS     P2S    ABASIS      S 
                                         1400     1410     1200     1210     1080     1600     1650     1300     1700     1380   
                                           T        V       H0       H01     AOSYM     SMH    MOLCAS    ERIS     OPER     JKOP   

              2       4        3.27       700     1000      520     2100   
                                         GEOM     BASIS   MCVARS     RHF  

 PROGRAMS   *        TOTAL   CCSD(T)        HF       INT
 CPU TIMES  *        88.06     61.24     10.89     15.83
 REAL TIME  *        99.64 SEC
 DISK USED  *         3.13 GB      
 **********************************************************************************************************************************

 CCSD(T)/aug-cc-pVQZ energy=   -130.342612881042

        CCSD(T)         HF-SCF  
   -130.34261288   -129.84733529
 **********************************************************************************************************************************
 Molpro calculation terminated
 Variable memory released
