
 Primary working directories    : /tmp/r2666/234768.maple
 Secondary working directories  : /tmp/r2666/234768.maple
 Wavefunction directory         : /ddn/home4/r2666/wfu/
 Main file repository           : /tmp/r2666/234768.maple/

 SHA1      : d5ffa45e93fdbca01ffc919aa182cfdae0147319
 NAME      : 2015.1.35
 ARCHNAME  : linux/x86_64
 FC        : /opt/intel/composer_xe_2015.1.133/bin/intel64/ifort
 BLASLIB   : -Wl,-_start-group /opt/intel/mkl/lib/intel64/libmkl_intel_ilp64.a /opt/intel/mkl/lib/intel64/libmkl_intel_thread.a /opt/intel/mkl/lib/intel64/libmkl_core.a -Wl,-_end-group
 id        : olemiss

 Nodes     nprocs
 cn091        1

 Using customized tuning parameters: mindgm=1; mindgv=20; mindgc=4; mindgr=1; noblas=0; minvec=7
 default implementation of scratch files=df  

 ***,hno CCSD(T)/TZ-F12 QFF
 memory, 995, m;
 gthresh,energy=1.d-12,zero=1.d-22,oneint=1.d-22,twoint=1.d-22;
 gthresh,optgrad=1.d-8,optstep=1.d-8;
 nocompress;
 geomtyp=xyz
 bohr
 geometry={
 3
         11        11
 N        0.0000000000       -0.1546351969       -1.1545936917
 H        0.0000000000        1.6583371210       -1.9231760657
 O        0.0000000000        0.0380658659        1.1271801664
 }
 
 basis=avqz
   {hf,maxit=500;accu,20;}
 {ccsd(t),nocheck,maxit=250;orbital,IGNORE_ERROR;}

 Variables initialized (889), CPU time= 0.00 sec
 Commands  initialized (702), CPU time= 0.02 sec, 572 directives.
 Default parameters read. Elapsed time= 0.05 sec

 Checking input...
 Passed
1


                                         ***  PROGRAM SYSTEM MOLPRO  ***
                                       Copyright, TTI GmbH Stuttgart, 2015
                                    Version 2015.1 linked Jul  9 2018 13:16:40


 **********************************************************************************************************************************
 LABEL *   hno CCSD(T)/TZ-F12 QFF                                                        
  64 bit serial version                                                                  DATE: 08-Feb-20          TIME: 17:49:16  
 **********************************************************************************************************************************

 SHA1:             d5ffa45e93fdbca01ffc919aa182cfdae0147319
 **********************************************************************************************************************************

 THRESHOLDS:

 ZERO    =  1.00D-22  ONEINT  =  1.00D-22  TWOINT  =  1.00D-22  PREFAC  =  1.00D-14  LOCALI  =  1.00D-09  EORDER  =  1.00D-04
 ENERGY  =  1.00D-12  ETEST   =  0.00D+00  EDENS   =  0.00D+00  THRDEDEF=  1.00D-06  GRADIENT=  1.00D-02  STEP    =  1.00D-03
 ORBITAL =  1.00D-05  CIVEC   =  1.00D-05  COEFF   =  1.00D-04  PRINTCI =  5.00D-02  PUNCHCI =  9.90D+01  OPTGRAD =  3.00D-04
 OPTENERG=  1.00D-06  OPTSTEP =  3.00D-04  THRGRAD =  1.00D-10  COMPRESS=  1.00D-11  VARMIN  =  1.00D-07  VARMAX  =  1.00D-03
 THRDOUB =  0.00D+00  THRDIV  =  1.00D-05  THRRED  =  1.00D-07  THRPSP  =  1.00D+00  THRDC   =  1.00D-10  THRCS   =  1.00D-10
 THRNRM  =  1.00D-08  THREQ   =  0.00D+00  THRDE   =  1.00D+00  THRREF  =  1.00D-05  SPARFAC =  1.00D+00  THRDLP  =  1.00D-07
 THRDIA  =  1.00D-10  THRDLS  =  1.00D-07  THRGPS  =  0.00D+00  THRKEX  =  0.00D+00  THRDIS  =  2.00D-01  THRVAR  =  1.00D-10
 THRLOC  =  1.00D-06  THRGAP  =  1.00D-06  THRLOCT = -1.00D+00  THRGAPT = -1.00D+00  THRORB  =  1.00D-06  THRMLTP =  0.00D+00
 THRCPQCI=  1.00D-10  KEXTA   =  0.00D+00  THRCOARS=  0.00D+00  SYMTOL  =  1.00D-06  GRADTOL =  1.00D-06  THROVL  =  1.00D-08
 THRORTH =  1.00D-08  GRID    =  1.00D-06  GRIDMAX =  1.00D-03  DTMAX   =  0.00D+00  THROCCDE=  1.00D-01  THROCCDE=  1.00D-01



 THRESHOLDS:

 ZERO    =  1.00D-22  ONEINT  =  1.00D-22  TWOINT  =  1.00D-22  PREFAC  =  1.00D-14  LOCALI  =  1.00D-09  EORDER  =  1.00D-04
 ENERGY  =  1.00D-12  ETEST   =  0.00D+00  EDENS   =  0.00D+00  THRDEDEF=  1.00D-06  GRADIENT=  1.00D-02  STEP    =  1.00D-03
 ORBITAL =  1.00D-05  CIVEC   =  1.00D-05  COEFF   =  1.00D-04  PRINTCI =  5.00D-02  PUNCHCI =  9.90D+01  OPTGRAD =  1.00D-08
 OPTENERG=  1.00D-06  OPTSTEP =  1.00D-08  THRGRAD =  1.00D-10  COMPRESS=  1.00D-11  VARMIN  =  1.00D-07  VARMAX  =  1.00D-03
 THRDOUB =  0.00D+00  THRDIV  =  1.00D-05  THRRED  =  1.00D-07  THRPSP  =  1.00D+00  THRDC   =  1.00D-10  THRCS   =  1.00D-10
 THRNRM  =  1.00D-08  THREQ   =  0.00D+00  THRDE   =  1.00D+00  THRREF  =  1.00D-05  SPARFAC =  1.00D+00  THRDLP  =  1.00D-07
 THRDIA  =  1.00D-10  THRDLS  =  1.00D-07  THRGPS  =  0.00D+00  THRKEX  =  0.00D+00  THRDIS  =  2.00D-01  THRVAR  =  1.00D-10
 THRLOC  =  1.00D-06  THRGAP  =  1.00D-06  THRLOCT = -1.00D+00  THRGAPT = -1.00D+00  THRORB  =  1.00D-06  THRMLTP =  0.00D+00
 THRCPQCI=  1.00D-10  KEXTA   =  0.00D+00  THRCOARS=  0.00D+00  SYMTOL  =  1.00D-06  GRADTOL =  1.00D-06  THROVL  =  1.00D-08
 THRORTH =  1.00D-08  GRID    =  1.00D-06  GRIDMAX =  1.00D-03  DTMAX   =  0.00D+00  THROCCDE=  1.00D-01  THROCCDE=  1.00D-01



 Input parameters for SORTINT:

 COMPRESS =    0.000000
 C_FINAL  =    1.000000
 DEBUG    =   -1.000000
 C_SORT1  =    0.000000
 C_SEWARD =    0.000000
 THRESH   =    0.000000
 IO       =  molpro                                                          
 SPRI     =    0.000000
 SETTING GEOMTYP        =    XYZ
 ZUNIT=BOHR
 

 Variable memory set to  995000000 words,  buffer space   230000 words

 SETTING BASIS          =    AVQZ


 Recomputing integrals since basis changed


 Using spherical harmonics

 Library entry N      S aug-cc-pVQZ          selected for orbital group  1
 Library entry N      P aug-cc-pVQZ          selected for orbital group  1
 Library entry N      D aug-cc-pVQZ          selected for orbital group  1
 Library entry N      F aug-cc-pVQZ          selected for orbital group  1
 Library entry N      G aug-cc-pVQZ          selected for orbital group  1
 Library entry H      S aug-cc-pVQZ          selected for orbital group  2
 Library entry H      P aug-cc-pVQZ          selected for orbital group  2
 Library entry H      D aug-cc-pVQZ          selected for orbital group  2
 Library entry H      F aug-cc-pVQZ          selected for orbital group  2
 Library entry O      S aug-cc-pVQZ          selected for orbital group  3
 Library entry O      P aug-cc-pVQZ          selected for orbital group  3
 Library entry O      D aug-cc-pVQZ          selected for orbital group  3
 Library entry O      F aug-cc-pVQZ          selected for orbital group  3
 Library entry O      G aug-cc-pVQZ          selected for orbital group  3


 PROGRAM * SEWARD (Integral evaluation for generally contracted gaussian basis sets)     Author: Roland Lindh, 1990

 Geometry written to block  1 of record 700


 Point group  Cs  



 ATOMIC COORDINATES

 NR  ATOM    CHARGE       X              Y              Z

   1  N       7.00    0.000000000   -0.154635197   -1.154593692
   2  H       1.00    0.000000000    1.658337121   -1.923176066
   3  O       8.00    0.000000000    0.038065866    1.127180166

 Bond lengths in Bohr (Angstrom)

 1-2  1.969159082  1-3  2.289896425
     ( 1.042034111)     ( 1.211761004)

 Bond angles

  2-1-3  108.14648049

 NUCLEAR CHARGE:                   16
 NUMBER OF PRIMITIVE AOS:         293
 NUMBER OF SYMMETRY AOS:          234
 NUMBER OF CONTRACTIONS:          206   ( 130A'  +  76A"  )
 NUMBER OF CORE ORBITALS:           2   (   2A'  +   0A"  )
 NUMBER OF VALENCE ORBITALS:        9   (   7A'  +   2A"  )


 NUCLEAR REPULSION ENERGY   30.32624256

 Eigenvalues of metric

         1 0.587E-04 0.144E-03 0.318E-03 0.435E-03 0.591E-03 0.670E-03 0.996E-03 0.108E-02
         2 0.829E-03 0.158E-02 0.493E-02 0.893E-02 0.999E-02 0.123E-01 0.125E-01 0.184E-01


 Contracted 2-electron integrals neglected if value below      1.0D-22

      109945079. INTEGRALS WRITTEN OUT IN   26849 BLOCKS ON RECORD 1290 OF FILE 1


 NUMBER OF SORTED TWO-ELECTRON INTEGRALS:  115283741.     BUFFER LENGTH:  32768
 NUMBER OF SEGMENTS:   8  SEGMENT LENGTH:   15998004      RECORD LENGTH: 524288

 Memory used in sort:      16.56 MW

 SORT1 READ   109945079. AND WROTE   110865246. INTEGRALS IN    322 RECORDS. CPU TIME:     1.90 SEC, REAL TIME:     2.73 SEC
 SORT2 READ   110865246. AND WROTE   115283741. INTEGRALS IN      8 RECORDS. CPU TIME:     1.32 SEC, REAL TIME:     1.90 SEC

 FILE SIZES:   FILE 1:  1780.6 MBYTE,  FILE 4:  1350.6 MBYTE,   TOTAL:   3131.2 MBYTE

 OPERATOR DM      FOR CENTER  0  COORDINATES:    0.000000    0.000000    0.000000


 **********************************************************************************************************************************
 DATASETS  * FILE   NREC   LENGTH (MB)   RECORD NAMES
              1      19      944.14       500      610      700      900      950      970     1000      129      960     1100   
                                          VAR    BASINP    GEOM    SYMINP    ZMAT    AOBASIS   BASIS     P2S    ABASIS      S 
                                         1400     1410     1200     1210     1080     1600     1650     1300     1700   
                                           T        V       H0       H01     AOSYM     SMH    MOLCAS    ERIS     OPER   

 PROGRAMS   *        TOTAL       INT
 CPU TIMES  *        11.11     11.02
 REAL TIME  *        14.05 SEC
 DISK USED  *         3.13 GB      
 **********************************************************************************************************************************


 PROGRAM * RHF-SCF (CLOSED SHELL)       Authors: W. Meyer, H.-J. Werner


 NUMBER OF ELECTRONS:       8+    8-
 CONVERGENCE THRESHOLDS:    1.00E-10 (Density)    1.00E-13 (Energy)
 MAX. NUMBER OF ITERATIONS:      500
 INTERPOLATION TYPE:            DIIS
 INTERPOLATION STEPS:              2 (START)      1 (STEP)
 LEVEL SHIFTS:                  0.00 (CLOSED)  0.00 (OPEN) 



 Orbital guess generated from atomic densities. Full valence occupancy:    9   2

 Molecular orbital dump at record        2100.2

 Initial occupancy:   7   1

 ITERATION    DDIFF          GRAD             ENERGY        2-EL.EN.            DIPOLE MOMENTS         DIIS   ORB.
    1      0.000D+00      0.000D+00      -129.79634207    153.891424    0.00000    0.60190   -1.03700    0    start
    2      0.000D+00      0.811D-02      -129.82351404    155.105109    0.00000    0.61340   -0.20993    1    diag
    3      0.656D-02      0.621D-02      -129.84658584    155.239353    0.00000    0.56137   -0.60031    2    diag
    4      0.334D-02      0.977D-03      -129.84739714    154.952369    0.00000    0.56877   -0.53828    3    diag
    5      0.609D-03      0.317D-03      -129.84752334    155.045526    0.00000    0.57395   -0.54074    4    diag
    6      0.253D-03      0.911D-04      -129.84754337    155.029440    0.00000    0.57422   -0.53651    5    diag
    7      0.960D-04      0.456D-04      -129.84754927    155.032115    0.00000    0.57541   -0.53384    6    diag
    8      0.666D-04      0.161D-04      -129.84754996    155.031413    0.00000    0.57545   -0.53279    7    diag
    9      0.262D-04      0.309D-05      -129.84754999    155.031298    0.00000    0.57541   -0.53256    8    diag
   10      0.523D-05      0.697D-06      -129.84754999    155.031281    0.00000    0.57538   -0.53253    9    orth
   11      0.100D-05      0.138D-06      -129.84754999    155.031278    0.00000    0.57537   -0.53253    9    diag
   12      0.181D-06      0.283D-07      -129.84754999    155.031278    0.00000    0.57537   -0.53253    9    diag
   13      0.388D-07      0.734D-08      -129.84754999    155.031278    0.00000    0.57537   -0.53253    9    diag
   14      0.106D-07      0.143D-08      -129.84754999    155.031277    0.00000    0.57537   -0.53253    9    diag
   15      0.193D-08      0.407D-09      -129.84754999    155.031278    0.00000    0.57537   -0.53253    9    diag
   16      0.578D-09      0.121D-09      -129.84754999    155.031278    0.00000    0.57537   -0.53253    9    diag
   17      0.106D-09      0.304D-10      -129.84754999    155.031278    0.00000    0.57537   -0.53253    9    diag
   18      0.281D-10      0.996D-11      -129.84754999    155.031278    0.00000    0.57537   -0.53253    9    diag
   19      0.131D-10      0.231D-11      -129.84754999    155.031278    0.00000    0.57537   -0.53253    9    fixocc
   20      0.648D-11      0.412D-12      -129.84754999    155.031278    0.00000    0.57537   -0.53253    9    orth
   21      0.253D-11      0.221D-12      -129.84754999    155.031278    0.00000    0.57537   -0.53253    0    orth

 Final occupancy:   7   1

 !RHF STATE 1.1 Energy               -129.847549992507
 Nuclear energy                        30.32624256
 One-electron energy                 -237.68943132
 Two-electron energy                   77.51563876
 Virial quotient                       -1.00173688
 !RHF STATE 1.1 Dipole moment           0.00000000     0.57536947    -0.53253157
 Dipole moment /Debye                   0.00000000     1.46234753    -1.35347158

 Orbital energies:

         1.1          2.1          3.1          4.1          5.1          6.1          7.1          8.1          9.1
    -20.653855   -15.711958    -1.526658    -0.997949    -0.747164    -0.665022    -0.432322     0.026321     0.079471

         1.2          2.2          3.2
     -0.594148     0.062313     0.110071

 HOMO      7.1    -0.432322 =     -11.7641eV
 LUMO      8.1     0.026321 =       0.7162eV
 LUMO-HOMO         0.458643 =      12.4803eV


 **********************************************************************************************************************************
 DATASETS  * FILE   NREC   LENGTH (MB)   RECORD NAMES
              1      19      944.14       500      610      700      900      950      970     1000      129      960     1100   
                                          VAR    BASINP    GEOM    SYMINP    ZMAT    AOBASIS   BASIS     P2S    ABASIS      S 
                                         1400     1410     1200     1210     1080     1600     1650     1300     1700   
                                           T        V       H0       H01     AOSYM     SMH    MOLCAS    ERIS     OPER   

              2       4        3.27       700     1000      520     2100   
                                         GEOM     BASIS   MCVARS     RHF  

 PROGRAMS   *        TOTAL        HF       INT
 CPU TIMES  *        21.64     10.53     11.02
 REAL TIME  *        27.36 SEC
 DISK USED  *         3.13 GB      
 **********************************************************************************************************************************


 PROGRAM * CCSD (Closed-shell coupled cluster)     Authors: C. Hampel, H.-J. Werner, 1991, M. Deegan, P.J. Knowles, 1992


 Convergence thresholds:  THRVAR = 1.00D-08  THRDEN = 1.00D-12

 CCSD(T)     terms to be evaluated (factor= 1.000)


 Number of core orbitals:           2 (   2   0 )
 Number of closed-shell orbitals:   6 (   5   1 )
 Number of external orbitals:     198 ( 123  75 )

 Molecular orbitals read from record     2100.2  Type=RHF/CANONICAL (state 1.1)

 Number of N-1 electron functions:               6
 Number of N-2 electron functions:              21
 Number of singly external CSFs:               690
 Number of doubly external CSFs:            362646
 Total number of CSFs:                      363337

 Length of J-op  integral file:               0.00 MB
 Length of K-op  integral file:               1.60 MB
 Length of 3-ext integral record:             0.00 MB

 Memory could be reduced to 34.67 Mwords without degradation in triples

 Integral transformation finished. Total CPU:   1.49 sec, npass=  1  Memory used:   9.53 MW

 Reference energy:                   -129.84754999

 MP2 singlet pair energy:              -0.30178389
 MP2 triplet pair energy:              -0.17056039
 MP2 correlation energy:               -0.47234428
 MP2 total energy:                   -130.31989427

 SCS-MP2 correlation energy:           -0.46826713   (PS=  1.200000  PT=  0.333333)
 SCS-MP2 total energy:               -130.31581712

 ITER.      SQ.NORM     CORR.ENERGY   TOTAL ENERGY   ENERGY CHANGE        DEN1      VAR(S)    VAR(P)  DIIS     TIME  TIME/IT
   1      1.12110705    -0.47225086  -130.31980086     0.00009341     0.01658694  0.32D-02  0.32D-02  1  1     2.72     1.38
   2      1.13184388    -0.47218379  -130.31973378     0.00006708    -0.01254565  0.11D-03  0.49D-03  2  2     4.07     1.42
   3      1.13817541    -0.47256148  -130.32011147    -0.00037769    -0.00305127  0.49D-04  0.54D-04  3  3     5.36     1.43
   4      1.14095905    -0.47256990  -130.32011990    -0.00000843    -0.00094185  0.43D-05  0.97D-05  4  4     6.66     1.44
   5      1.14206426    -0.47259951  -130.32014950    -0.00002960    -0.00024077  0.11D-05  0.17D-05  5  5     7.97     1.45
   6      1.14242071    -0.47258434  -130.32013433     0.00001516    -0.00005145  0.10D-06  0.40D-06  6  6     9.27     1.45
   7      1.14249221    -0.47258503  -130.32013502    -0.00000069     0.00000287  0.15D-07  0.91D-07  6  1    10.50     1.45
   8      1.14251448    -0.47258535  -130.32013535    -0.00000032    -0.00000105  0.34D-08  0.18D-07  6  2    11.72     1.44
   9      1.14251921    -0.47258498  -130.32013498     0.00000037     0.00000096  0.26D-08  0.21D-08  6  4    12.98     1.44
  10      1.14252165    -0.47258536  -130.32013535    -0.00000037    -0.00000075  0.48D-09  0.25D-09  6  3    14.27     1.44
  11      1.14252140    -0.47258542  -130.32013541    -0.00000006    -0.00000013  0.15D-09  0.35D-10  6  5    15.58     1.45
  12      1.14252045    -0.47258556  -130.32013555    -0.00000014     0.00000036  0.18D-10  0.11D-10  6  6    16.88     1.45
  13      1.14251960    -0.47258560  -130.32013559    -0.00000004     0.00000021  0.57D-11  0.24D-11  6  1    18.18     1.45
  14      1.14251893    -0.47258563  -130.32013563    -0.00000003     0.00000016  0.36D-12  0.50D-12  6  4    19.42     1.44
  15      1.14251872    -0.47258564  -130.32013563    -0.00000001     0.00000003  0.77D-13  0.39D-13  6  2    20.69     1.44
  16      1.14251867    -0.47258564  -130.32013564    -0.00000000     0.00000001  0.21D-13  0.71D-14  6  3    22.01     1.45
  17      1.14251864    -0.47258564  -130.32013564    -0.00000000     0.00000001  0.38D-14  0.96D-15  6  5    23.27     1.45
  18      1.14251864    -0.47258564  -130.32013564    -0.00000000     0.00000000  0.82D-15  0.24D-15  6  6    24.53     1.45
  19      1.14251864    -0.47258564  -130.32013564    -0.00000000     0.00000000  0.10D-15  0.48D-16  6  1    25.85     1.45
  20      1.14251864    -0.47258564  -130.32013564     0.00000000    -0.00000000  0.95D-17  0.72D-17  6  4    27.11     1.45
  21      1.14251864    -0.47258564  -130.32013564     0.00000000    -0.00000000  0.45D-18  0.62D-18  6  3    28.43     1.45
  22      1.14251864    -0.47258564  -130.32013564     0.00000000    -0.00000000  0.11D-18  0.12D-18  6  2    29.72     1.45
  23      1.14251864    -0.47258564  -130.32013564     0.00000000     0.00000000  0.32D-19  0.47D-19  6  5    31.05     1.45
  24      1.14251864    -0.47258564  -130.32013564    -0.00000000     0.00000000  0.26D-20  0.10D-19  6  1    32.36     1.46

 Norm of t1 vector:      0.07699795      S-energy:    -0.00000000      T1 diagnostic:  0.01571714
                                                                       D1 diagnostic:  0.04264593

 Doubles amplitudes (print threshold =  0.500E-01):

         I         J         SYM. A    SYM. B    A         B      T(IJ, AB)

         6         6         2         2         1         1     -0.10070267


 Total CPU time for triples:     16.57 sec


 RESULTS
 =======

  Reference energy                   -129.847549992507
  CCSD singlet pair energy             -0.326704941244
  CCSD triplet pair energy             -0.145880703272
  CCSD correlation energy              -0.472585644516

  Triples (T) contribution             -0.022416301634
  Total correlation energy             -0.495001946151

  CCSD total energy                  -130.320135637023
  CCSD[T] energy                     -130.343632149295
  CCSD-T energy                      -130.342166225625
 !CCSD(T) total energy               -130.342551938658

 Timing summary (sec):

 STEP                 CPU(USER)    SYS     CPU(TOT)    WALL
 Transformation          1.51      0.27      1.78      1.78
 CCSD iterations        30.86      4.08     34.94     34.95
 Triples                16.57      0.41     16.98     16.99

 Program statistics:

 Available memory in ccsd:               994999756
 Min. memory needed in ccsd:               1265322
 Max. memory used in ccsd:                 1555950
 Max. memory used in cckext:               2415326 (24 integral passes)



 **********************************************************************************************************************************
 DATASETS  * FILE   NREC   LENGTH (MB)   RECORD NAMES
              1      20     1044.69       500      610      700      900      950      970     1000      129      960     1100   
                                          VAR    BASINP    GEOM    SYMINP    ZMAT    AOBASIS   BASIS     P2S    ABASIS      S 
                                         1400     1410     1200     1210     1080     1600     1650     1300     1700     1380   
                                           T        V       H0       H01     AOSYM     SMH    MOLCAS    ERIS     OPER     JKOP   

              2       4        3.27       700     1000      520     2100   
                                         GEOM     BASIS   MCVARS     RHF  

 PROGRAMS   *        TOTAL   CCSD(T)        HF       INT
 CPU TIMES  *        70.61     48.97     10.53     11.02
 REAL TIME  *        81.11 SEC
 DISK USED  *         3.13 GB      
 **********************************************************************************************************************************

 CCSD(T)/aug-cc-pVQZ energy=   -130.342551938658

        CCSD(T)         HF-SCF  
   -130.34255194   -129.84754999
 **********************************************************************************************************************************
 Molpro calculation terminated
 Variable memory released
