
 Primary working directories    : /tmp/r2666/234886.maple
 Secondary working directories  : /tmp/r2666/234886.maple
 Wavefunction directory         : /ddn/home4/r2666/wfu/
 Main file repository           : /tmp/r2666/234886.maple/

 SHA1      : d5ffa45e93fdbca01ffc919aa182cfdae0147319
 NAME      : 2015.1.35
 ARCHNAME  : linux/x86_64
 FC        : /opt/intel/composer_xe_2015.1.133/bin/intel64/ifort
 BLASLIB   : -Wl,-_start-group /opt/intel/mkl/lib/intel64/libmkl_intel_ilp64.a /opt/intel/mkl/lib/intel64/libmkl_intel_thread.a /opt/intel/mkl/lib/intel64/libmkl_core.a -Wl,-_end-group
 id        : olemiss

 Nodes     nprocs
 cn034        1

 Using customized tuning parameters: mindgm=1; mindgv=20; mindgc=4; mindgr=1; noblas=0; minvec=7
 default implementation of scratch files=df  

 ***,hno CCSD(T)/TZ-F12 QFF
 memory, 995, m;
 gthresh,energy=1.d-12,zero=1.d-22,oneint=1.d-22,twoint=1.d-22;
 gthresh,optgrad=1.d-8,optstep=1.d-8;
 nocompress;
 geomtyp=xyz
 bohr
 geometry={
 3
        129       129
 N        0.0000000000       -0.1824487036       -1.1404926860
 H        0.0000000000        1.6833874597       -1.9296233002
 O        0.0000000000        0.0408290340        1.1195263952
 }
 
 basis=avqz
   {hf,maxit=500;accu,20;}
 {ccsd(t),nocheck,maxit=250;orbital,IGNORE_ERROR;}

 Variables initialized (889), CPU time= 0.00 sec
 Commands  initialized (702), CPU time= 0.01 sec, 572 directives.
 Default parameters read. Elapsed time= 0.05 sec

 Checking input...
 Passed
1


                                         ***  PROGRAM SYSTEM MOLPRO  ***
                                       Copyright, TTI GmbH Stuttgart, 2015
                                    Version 2015.1 linked Jul  9 2018 13:16:40


 **********************************************************************************************************************************
 LABEL *   hno CCSD(T)/TZ-F12 QFF                                                        
  64 bit serial version                                                                  DATE: 08-Feb-20          TIME: 17:55:31  
 **********************************************************************************************************************************

 SHA1:             d5ffa45e93fdbca01ffc919aa182cfdae0147319
 **********************************************************************************************************************************

 THRESHOLDS:

 ZERO    =  1.00D-22  ONEINT  =  1.00D-22  TWOINT  =  1.00D-22  PREFAC  =  1.00D-14  LOCALI  =  1.00D-09  EORDER  =  1.00D-04
 ENERGY  =  1.00D-12  ETEST   =  0.00D+00  EDENS   =  0.00D+00  THRDEDEF=  1.00D-06  GRADIENT=  1.00D-02  STEP    =  1.00D-03
 ORBITAL =  1.00D-05  CIVEC   =  1.00D-05  COEFF   =  1.00D-04  PRINTCI =  5.00D-02  PUNCHCI =  9.90D+01  OPTGRAD =  3.00D-04
 OPTENERG=  1.00D-06  OPTSTEP =  3.00D-04  THRGRAD =  1.00D-10  COMPRESS=  1.00D-11  VARMIN  =  1.00D-07  VARMAX  =  1.00D-03
 THRDOUB =  0.00D+00  THRDIV  =  1.00D-05  THRRED  =  1.00D-07  THRPSP  =  1.00D+00  THRDC   =  1.00D-10  THRCS   =  1.00D-10
 THRNRM  =  1.00D-08  THREQ   =  0.00D+00  THRDE   =  1.00D+00  THRREF  =  1.00D-05  SPARFAC =  1.00D+00  THRDLP  =  1.00D-07
 THRDIA  =  1.00D-10  THRDLS  =  1.00D-07  THRGPS  =  0.00D+00  THRKEX  =  0.00D+00  THRDIS  =  2.00D-01  THRVAR  =  1.00D-10
 THRLOC  =  1.00D-06  THRGAP  =  1.00D-06  THRLOCT = -1.00D+00  THRGAPT = -1.00D+00  THRORB  =  1.00D-06  THRMLTP =  0.00D+00
 THRCPQCI=  1.00D-10  KEXTA   =  0.00D+00  THRCOARS=  0.00D+00  SYMTOL  =  1.00D-06  GRADTOL =  1.00D-06  THROVL  =  1.00D-08
 THRORTH =  1.00D-08  GRID    =  1.00D-06  GRIDMAX =  1.00D-03  DTMAX   =  0.00D+00  THROCCDE=  1.00D-01  THROCCDE=  1.00D-01



 THRESHOLDS:

 ZERO    =  1.00D-22  ONEINT  =  1.00D-22  TWOINT  =  1.00D-22  PREFAC  =  1.00D-14  LOCALI  =  1.00D-09  EORDER  =  1.00D-04
 ENERGY  =  1.00D-12  ETEST   =  0.00D+00  EDENS   =  0.00D+00  THRDEDEF=  1.00D-06  GRADIENT=  1.00D-02  STEP    =  1.00D-03
 ORBITAL =  1.00D-05  CIVEC   =  1.00D-05  COEFF   =  1.00D-04  PRINTCI =  5.00D-02  PUNCHCI =  9.90D+01  OPTGRAD =  1.00D-08
 OPTENERG=  1.00D-06  OPTSTEP =  1.00D-08  THRGRAD =  1.00D-10  COMPRESS=  1.00D-11  VARMIN  =  1.00D-07  VARMAX  =  1.00D-03
 THRDOUB =  0.00D+00  THRDIV  =  1.00D-05  THRRED  =  1.00D-07  THRPSP  =  1.00D+00  THRDC   =  1.00D-10  THRCS   =  1.00D-10
 THRNRM  =  1.00D-08  THREQ   =  0.00D+00  THRDE   =  1.00D+00  THRREF  =  1.00D-05  SPARFAC =  1.00D+00  THRDLP  =  1.00D-07
 THRDIA  =  1.00D-10  THRDLS  =  1.00D-07  THRGPS  =  0.00D+00  THRKEX  =  0.00D+00  THRDIS  =  2.00D-01  THRVAR  =  1.00D-10
 THRLOC  =  1.00D-06  THRGAP  =  1.00D-06  THRLOCT = -1.00D+00  THRGAPT = -1.00D+00  THRORB  =  1.00D-06  THRMLTP =  0.00D+00
 THRCPQCI=  1.00D-10  KEXTA   =  0.00D+00  THRCOARS=  0.00D+00  SYMTOL  =  1.00D-06  GRADTOL =  1.00D-06  THROVL  =  1.00D-08
 THRORTH =  1.00D-08  GRID    =  1.00D-06  GRIDMAX =  1.00D-03  DTMAX   =  0.00D+00  THROCCDE=  1.00D-01  THROCCDE=  1.00D-01



 Input parameters for SORTINT:

 COMPRESS =    0.000000
 C_FINAL  =    1.000000
 DEBUG    =   -1.000000
 C_SORT1  =    0.000000
 C_SEWARD =    0.000000
 THRESH   =    0.000000
 IO       =  molpro                                                          
 SPRI     =    0.000000
 SETTING GEOMTYP        =    XYZ
 ZUNIT=BOHR
 

 Variable memory set to  995000000 words,  buffer space   230000 words

 SETTING BASIS          =    AVQZ


 Recomputing integrals since basis changed


 Using spherical harmonics

 Library entry N      S aug-cc-pVQZ          selected for orbital group  1
 Library entry N      P aug-cc-pVQZ          selected for orbital group  1
 Library entry N      D aug-cc-pVQZ          selected for orbital group  1
 Library entry N      F aug-cc-pVQZ          selected for orbital group  1
 Library entry N      G aug-cc-pVQZ          selected for orbital group  1
 Library entry H      S aug-cc-pVQZ          selected for orbital group  2
 Library entry H      P aug-cc-pVQZ          selected for orbital group  2
 Library entry H      D aug-cc-pVQZ          selected for orbital group  2
 Library entry H      F aug-cc-pVQZ          selected for orbital group  2
 Library entry O      S aug-cc-pVQZ          selected for orbital group  3
 Library entry O      P aug-cc-pVQZ          selected for orbital group  3
 Library entry O      D aug-cc-pVQZ          selected for orbital group  3
 Library entry O      F aug-cc-pVQZ          selected for orbital group  3
 Library entry O      G aug-cc-pVQZ          selected for orbital group  3


 PROGRAM * SEWARD (Integral evaluation for generally contracted gaussian basis sets)     Author: Roland Lindh, 1990

 Geometry written to block  1 of record 700


 Point group  Cs  



 ATOMIC COORDINATES

 NR  ATOM    CHARGE       X              Y              Z

   1  N       7.00    0.000000000   -0.182448704   -1.140492686
   2  H       1.00    0.000000000    1.683387460   -1.929623300
   3  O       8.00    0.000000000    0.040829034    1.119526395

 Bond lengths in Bohr (Angstrom)

 1-2  2.025850862  1-3  2.271021619
     ( 1.072034109)     ( 1.201772886)

 Bond angles

  2-1-3  107.28308039

 NUCLEAR CHARGE:                   16
 NUMBER OF PRIMITIVE AOS:         293
 NUMBER OF SYMMETRY AOS:          234
 NUMBER OF CONTRACTIONS:          206   ( 130A'  +  76A"  )
 NUMBER OF CORE ORBITALS:           2   (   2A'  +   0A"  )
 NUMBER OF VALENCE ORBITALS:        9   (   7A'  +   2A"  )


 NUCLEAR REPULSION ENERGY   30.42369647

 Eigenvalues of metric

         1 0.607E-04 0.149E-03 0.318E-03 0.436E-03 0.586E-03 0.707E-03 0.103E-02 0.108E-02
         2 0.814E-03 0.174E-02 0.499E-02 0.893E-02 0.104E-01 0.123E-01 0.125E-01 0.195E-01


 Contracted 2-electron integrals neglected if value below      1.0D-22

      109945108. INTEGRALS WRITTEN OUT IN   26849 BLOCKS ON RECORD 1290 OF FILE 1


 NUMBER OF SORTED TWO-ELECTRON INTEGRALS:  115283741.     BUFFER LENGTH:  32768
 NUMBER OF SEGMENTS:   8  SEGMENT LENGTH:   15998004      RECORD LENGTH: 524288

 Memory used in sort:      16.56 MW

 SORT1 READ   109945108. AND WROTE   110865275. INTEGRALS IN    322 RECORDS. CPU TIME:     3.09 SEC, REAL TIME:     4.01 SEC
 SORT2 READ   110865275. AND WROTE   115283741. INTEGRALS IN      8 RECORDS. CPU TIME:     1.42 SEC, REAL TIME:     2.03 SEC

 FILE SIZES:   FILE 1:  1780.6 MBYTE,  FILE 4:  1350.6 MBYTE,   TOTAL:   3131.2 MBYTE

 OPERATOR DM      FOR CENTER  0  COORDINATES:    0.000000    0.000000    0.000000


 **********************************************************************************************************************************
 DATASETS  * FILE   NREC   LENGTH (MB)   RECORD NAMES
              1      19      944.14       500      610      700      900      950      970     1000      129      960     1100   
                                          VAR    BASINP    GEOM    SYMINP    ZMAT    AOBASIS   BASIS     P2S    ABASIS      S 
                                         1400     1410     1200     1210     1080     1600     1650     1300     1700   
                                           T        V       H0       H01     AOSYM     SMH    MOLCAS    ERIS     OPER   

 PROGRAMS   *        TOTAL       INT
 CPU TIMES  *        15.47     15.37
 REAL TIME  *        18.64 SEC
 DISK USED  *         3.13 GB      
 **********************************************************************************************************************************


 PROGRAM * RHF-SCF (CLOSED SHELL)       Authors: W. Meyer, H.-J. Werner


 NUMBER OF ELECTRONS:       8+    8-
 CONVERGENCE THRESHOLDS:    1.00E-10 (Density)    1.00E-13 (Energy)
 MAX. NUMBER OF ITERATIONS:      500
 INTERPOLATION TYPE:            DIIS
 INTERPOLATION STEPS:              2 (START)      1 (STEP)
 LEVEL SHIFTS:                  0.00 (CLOSED)  0.00 (OPEN) 



 Orbital guess generated from atomic densities. Full valence occupancy:    9   2

 Molecular orbital dump at record        2100.2

 Initial occupancy:   7   1

 ITERATION    DDIFF          GRAD             ENERGY        2-EL.EN.            DIPOLE MOMENTS         DIIS   ORB.
    1      0.000D+00      0.000D+00      -129.79641693    154.045407    0.00000    0.57024   -1.00565    0    start
    2      0.000D+00      0.814D-02      -129.82387224    155.311412    0.00000    0.60501   -0.19810    1    diag
    3      0.653D-02      0.618D-02      -129.84670997    155.414735    0.00000    0.54285   -0.57796    2    diag
    4      0.333D-02      0.961D-03      -129.84750199    155.131877    0.00000    0.55071   -0.51793    3    diag
    5      0.600D-03      0.316D-03      -129.84763003    155.226284    0.00000    0.55623   -0.52067    4    diag
    6      0.253D-03      0.926D-04      -129.84765072    155.209902    0.00000    0.55653   -0.51654    5    diag
    7      0.977D-04      0.457D-04      -129.84765662    155.212833    0.00000    0.55784   -0.51401    6    diag
    8      0.669D-04      0.157D-04      -129.84765725    155.212137    0.00000    0.55789   -0.51302    7    diag
    9      0.250D-04      0.301D-05      -129.84765728    155.212020    0.00000    0.55785   -0.51281    8    diag
   10      0.494D-05      0.689D-06      -129.84765728    155.212000    0.00000    0.55782   -0.51278    9    orth
   11      0.992D-06      0.140D-06      -129.84765728    155.211996    0.00000    0.55781   -0.51277    9    diag
   12      0.189D-06      0.287D-07      -129.84765728    155.211996    0.00000    0.55781   -0.51277    9    diag
   13      0.418D-07      0.743D-08      -129.84765728    155.211995    0.00000    0.55781   -0.51277    9    diag
   14      0.114D-07      0.150D-08      -129.84765728    155.211995    0.00000    0.55781   -0.51277    9    diag
   15      0.211D-08      0.439D-09      -129.84765728    155.211995    0.00000    0.55781   -0.51277    9    diag
   16      0.628D-09      0.135D-09      -129.84765728    155.211995    0.00000    0.55781   -0.51277    9    diag
   17      0.125D-09      0.384D-10      -129.84765728    155.211995    0.00000    0.55781   -0.51277    9    diag
   18      0.370D-10      0.131D-10      -129.84765728    155.211995    0.00000    0.55781   -0.51277    9    diag
   19      0.172D-10      0.321D-11      -129.84765728    155.211995    0.00000    0.55781   -0.51277    0    orth

 Final occupancy:   7   1

 !RHF STATE 1.1 Energy               -129.847657284367
 Nuclear energy                        30.42369647
 One-electron energy                 -237.87735141
 Two-electron energy                   77.60599766
 Virial quotient                       -1.00176194
 !RHF STATE 1.1 Dipole moment           0.00000000     0.55780617    -0.51277212
 Dipole moment /Debye                   0.00000000     1.41770900    -1.30325136

 Orbital energies:

         1.1          2.1          3.1          4.1          5.1          6.1          7.1          8.1          9.1
    -20.653304   -15.714469    -1.534984    -0.987684    -0.747002    -0.667740    -0.428000     0.026503     0.079507

         1.2          2.2          3.2
     -0.599495     0.065002     0.111187

 HOMO      7.1    -0.428000 =     -11.6465eV
 LUMO      8.1     0.026503 =       0.7212eV
 LUMO-HOMO         0.454503 =      12.3677eV


 **********************************************************************************************************************************
 DATASETS  * FILE   NREC   LENGTH (MB)   RECORD NAMES
              1      19      944.14       500      610      700      900      950      970     1000      129      960     1100   
                                          VAR    BASINP    GEOM    SYMINP    ZMAT    AOBASIS   BASIS     P2S    ABASIS      S 
                                         1400     1410     1200     1210     1080     1600     1650     1300     1700   
                                           T        V       H0       H01     AOSYM     SMH    MOLCAS    ERIS     OPER   

              2       4        3.27       700     1000      520     2100   
                                         GEOM     BASIS   MCVARS     RHF  

 PROGRAMS   *        TOTAL        HF       INT
 CPU TIMES  *        26.35     10.88     15.37
 REAL TIME  *        33.02 SEC
 DISK USED  *         3.13 GB      
 **********************************************************************************************************************************


 PROGRAM * CCSD (Closed-shell coupled cluster)     Authors: C. Hampel, H.-J. Werner, 1991, M. Deegan, P.J. Knowles, 1992


 Convergence thresholds:  THRVAR = 1.00D-08  THRDEN = 1.00D-12

 CCSD(T)     terms to be evaluated (factor= 1.000)


 Number of core orbitals:           2 (   2   0 )
 Number of closed-shell orbitals:   6 (   5   1 )
 Number of external orbitals:     198 ( 123  75 )

 Molecular orbitals read from record     2100.2  Type=RHF/CANONICAL (state 1.1)

 Number of N-1 electron functions:               6
 Number of N-2 electron functions:              21
 Number of singly external CSFs:               690
 Number of doubly external CSFs:            362646
 Total number of CSFs:                      363337

 Length of J-op  integral file:               0.00 MB
 Length of K-op  integral file:               1.60 MB
 Length of 3-ext integral record:             0.00 MB

 Memory could be reduced to 34.67 Mwords without degradation in triples

 Integral transformation finished. Total CPU:   1.86 sec, npass=  1  Memory used:   9.53 MW

 Reference energy:                   -129.84765728

 MP2 singlet pair energy:              -0.30144534
 MP2 triplet pair energy:              -0.17029089
 MP2 correlation energy:               -0.47173623
 MP2 total energy:                   -130.31939351

 SCS-MP2 correlation energy:           -0.46769319   (PS=  1.200000  PT=  0.333333)
 SCS-MP2 total energy:               -130.31535047

 ITER.      SQ.NORM     CORR.ENERGY   TOTAL ENERGY   ENERGY CHANGE        DEN1      VAR(S)    VAR(P)  DIIS     TIME  TIME/IT
   1      1.12103788    -0.47196077  -130.31961806    -0.00022454     0.01608819  0.31D-02  0.32D-02  1  1     3.42     1.76
   2      1.13170503    -0.47196092  -130.31961820    -0.00000015    -0.01244817  0.10D-03  0.49D-03  2  2     5.04     1.79
   3      1.13799430    -0.47234069  -130.31999798    -0.00037977    -0.00305082  0.49D-04  0.52D-04  3  3     6.69     1.80
   4      1.14070779    -0.47234505  -130.32000234    -0.00000436    -0.00093017  0.44D-05  0.94D-05  4  4     8.30     1.81
   5      1.14178202    -0.47237447  -130.32003175    -0.00002942    -0.00023537  0.12D-05  0.16D-05  5  5     9.91     1.81
   6      1.14212955    -0.47236025  -130.32001753     0.00001422    -0.00004973  0.13D-06  0.37D-06  6  6    11.55     1.82
   7      1.14220403    -0.47236027  -130.32001756    -0.00000002     0.00000196  0.20D-07  0.84D-07  6  1    13.19     1.82
   8      1.14222741    -0.47236057  -130.32001785    -0.00000030    -0.00000128  0.35D-08  0.17D-07  6  2    14.79     1.82
   9      1.14223618    -0.47236001  -130.32001729     0.00000056    -0.00000037  0.20D-08  0.17D-08  6  3    16.39     1.82
  10      1.14223176    -0.47236074  -130.32001803    -0.00000074     0.00000148  0.29D-09  0.26D-09  6  5    18.10     1.82
  11      1.14223344    -0.47236070  -130.32001799     0.00000004    -0.00000030  0.87D-10  0.23D-10  6  4    19.67     1.82
  12      1.14223304    -0.47236077  -130.32001805    -0.00000007     0.00000002  0.16D-10  0.57D-11  6  6    21.30     1.83
  13      1.14223287    -0.47236077  -130.32001805    -0.00000000    -0.00000004  0.31D-11  0.79D-12  6  1    22.99     1.83
  14      1.14223260    -0.47236078  -130.32001806    -0.00000001     0.00000004  0.42D-12  0.16D-12  6  3    24.65     1.83
  15      1.14223252    -0.47236078  -130.32001807    -0.00000000     0.00000001  0.12D-12  0.22D-13  6  2    26.33     1.83
  16      1.14223251    -0.47236078  -130.32001807     0.00000000     0.00000000  0.28D-13  0.98D-14  6  4    27.89     1.83
  17      1.14223252    -0.47236078  -130.32001807    -0.00000000    -0.00000000  0.13D-14  0.10D-14  6  5    29.56     1.83
  18      1.14223252    -0.47236078  -130.32001807     0.00000000    -0.00000000  0.22D-15  0.23D-15  6  6    31.20     1.83
  19      1.14223253    -0.47236078  -130.32001807     0.00000000    -0.00000000  0.30D-16  0.25D-16  6  5    32.85     1.83
  20      1.14223253    -0.47236078  -130.32001807     0.00000000    -0.00000000  0.56D-17  0.36D-17  6  1    34.52     1.83
  21      1.14223253    -0.47236078  -130.32001807    -0.00000000     0.00000000  0.70D-18  0.51D-18  6  3    36.16     1.83
  22      1.14223253    -0.47236078  -130.32001807    -0.00000000     0.00000000  0.93D-19  0.54D-19  6  2    37.82     1.83
  23      1.14223253    -0.47236078  -130.32001807    -0.00000000     0.00000000  0.19D-19  0.10D-19  6  4    39.43     1.83
  24      1.14223253    -0.47236078  -130.32001807    -0.00000000     0.00000000  0.68D-20  0.17D-20  6  6    41.08     1.83
  25      1.14223253    -0.47236078  -130.32001807     0.00000000    -0.00000000  0.23D-20  0.59D-21  6  5    42.69     1.83

 Norm of t1 vector:      0.07639194      S-energy:     0.00000000      T1 diagnostic:  0.01559344
                                                                       D1 diagnostic:  0.04131550

 Doubles amplitudes (print threshold =  0.500E-01):

         I         J         SYM. A    SYM. B    A         B      T(IJ, AB)

         6         6         2         2         1         1     -0.09519248


 Total CPU time for triples:     17.83 sec


 RESULTS
 =======

  Reference energy                   -129.847657284367
  CCSD singlet pair energy             -0.326492300865
  CCSD triplet pair energy             -0.145868481975
  CCSD correlation energy              -0.472360782839

  Triples (T) contribution             -0.022296247717
  Total correlation energy             -0.494657030557

  CCSD total energy                  -130.320018067206
  CCSD[T] energy                     -130.343377284655
  CCSD-T energy                      -130.341928820314
 !CCSD(T) total energy               -130.342314314924

 Timing summary (sec):

 STEP                 CPU(USER)    SYS     CPU(TOT)    WALL
 Transformation          1.88      0.33      2.21      2.35
 CCSD iterations        40.81      4.98     45.79     45.80
 Triples                17.83      0.49     18.32     18.32

 Program statistics:

 Available memory in ccsd:               994999756
 Min. memory needed in ccsd:               1265322
 Max. memory used in ccsd:                 1555950
 Max. memory used in cckext:               2415326 (25 integral passes)



 **********************************************************************************************************************************
 DATASETS  * FILE   NREC   LENGTH (MB)   RECORD NAMES
              1      20     1044.69       500      610      700      900      950      970     1000      129      960     1100   
                                          VAR    BASINP    GEOM    SYMINP    ZMAT    AOBASIS   BASIS     P2S    ABASIS      S 
                                         1400     1410     1200     1210     1080     1600     1650     1300     1700     1380   
                                           T        V       H0       H01     AOSYM     SMH    MOLCAS    ERIS     OPER     JKOP   

              2       4        3.27       700     1000      520     2100   
                                         GEOM     BASIS   MCVARS     RHF  

 PROGRAMS   *        TOTAL   CCSD(T)        HF       INT
 CPU TIMES  *        86.89     60.54     10.88     15.37
 REAL TIME  *        99.53 SEC
 DISK USED  *         3.13 GB      
 **********************************************************************************************************************************

 CCSD(T)/aug-cc-pVQZ energy=   -130.342314314924

        CCSD(T)         HF-SCF  
   -130.34231431   -129.84765728
 **********************************************************************************************************************************
 Molpro calculation terminated
 Variable memory released
