
 Primary working directories    : /tmp/r2666/234881.maple
 Secondary working directories  : /tmp/r2666/234881.maple
 Wavefunction directory         : /ddn/home4/r2666/wfu/
 Main file repository           : /tmp/r2666/234881.maple/

 SHA1      : d5ffa45e93fdbca01ffc919aa182cfdae0147319
 NAME      : 2015.1.35
 ARCHNAME  : linux/x86_64
 FC        : /opt/intel/composer_xe_2015.1.133/bin/intel64/ifort
 BLASLIB   : -Wl,-_start-group /opt/intel/mkl/lib/intel64/libmkl_intel_ilp64.a /opt/intel/mkl/lib/intel64/libmkl_intel_thread.a /opt/intel/mkl/lib/intel64/libmkl_core.a -Wl,-_end-group
 id        : olemiss

 Nodes     nprocs
 cn089        1

 Using customized tuning parameters: mindgm=1; mindgv=20; mindgc=4; mindgr=1; noblas=0; minvec=7
 default implementation of scratch files=df  

 ***,hno CCSD(T)/TZ-F12 QFF
 memory, 995, m;
 gthresh,energy=1.d-12,zero=1.d-22,oneint=1.d-22,twoint=1.d-22;
 gthresh,optgrad=1.d-8,optstep=1.d-8;
 nocompress;
 geomtyp=xyz
 bohr
 geometry={
 3
        124       124
 N        0.0000000000       -0.1783373767       -1.1398958683
 H        0.0000000000        1.6784812029       -1.9260909606
 O        0.0000000000        0.0416239638        1.1153972379
 }
 
 basis=avqz
   {hf,maxit=500;accu,20;}
 {ccsd(t),nocheck,maxit=250;orbital,IGNORE_ERROR;}

 Variables initialized (889), CPU time= 0.01 sec
 Commands  initialized (702), CPU time= 0.01 sec, 572 directives.
 Default parameters read. Elapsed time= 0.05 sec

 Checking input...
 Passed
1


                                         ***  PROGRAM SYSTEM MOLPRO  ***
                                       Copyright, TTI GmbH Stuttgart, 2015
                                    Version 2015.1 linked Jul  9 2018 13:16:40


 **********************************************************************************************************************************
 LABEL *   hno CCSD(T)/TZ-F12 QFF                                                        
  64 bit serial version                                                                  DATE: 08-Feb-20          TIME: 17:55:19  
 **********************************************************************************************************************************

 SHA1:             d5ffa45e93fdbca01ffc919aa182cfdae0147319
 **********************************************************************************************************************************

 THRESHOLDS:

 ZERO    =  1.00D-22  ONEINT  =  1.00D-22  TWOINT  =  1.00D-22  PREFAC  =  1.00D-14  LOCALI  =  1.00D-09  EORDER  =  1.00D-04
 ENERGY  =  1.00D-12  ETEST   =  0.00D+00  EDENS   =  0.00D+00  THRDEDEF=  1.00D-06  GRADIENT=  1.00D-02  STEP    =  1.00D-03
 ORBITAL =  1.00D-05  CIVEC   =  1.00D-05  COEFF   =  1.00D-04  PRINTCI =  5.00D-02  PUNCHCI =  9.90D+01  OPTGRAD =  3.00D-04
 OPTENERG=  1.00D-06  OPTSTEP =  3.00D-04  THRGRAD =  1.00D-10  COMPRESS=  1.00D-11  VARMIN  =  1.00D-07  VARMAX  =  1.00D-03
 THRDOUB =  0.00D+00  THRDIV  =  1.00D-05  THRRED  =  1.00D-07  THRPSP  =  1.00D+00  THRDC   =  1.00D-10  THRCS   =  1.00D-10
 THRNRM  =  1.00D-08  THREQ   =  0.00D+00  THRDE   =  1.00D+00  THRREF  =  1.00D-05  SPARFAC =  1.00D+00  THRDLP  =  1.00D-07
 THRDIA  =  1.00D-10  THRDLS  =  1.00D-07  THRGPS  =  0.00D+00  THRKEX  =  0.00D+00  THRDIS  =  2.00D-01  THRVAR  =  1.00D-10
 THRLOC  =  1.00D-06  THRGAP  =  1.00D-06  THRLOCT = -1.00D+00  THRGAPT = -1.00D+00  THRORB  =  1.00D-06  THRMLTP =  0.00D+00
 THRCPQCI=  1.00D-10  KEXTA   =  0.00D+00  THRCOARS=  0.00D+00  SYMTOL  =  1.00D-06  GRADTOL =  1.00D-06  THROVL  =  1.00D-08
 THRORTH =  1.00D-08  GRID    =  1.00D-06  GRIDMAX =  1.00D-03  DTMAX   =  0.00D+00  THROCCDE=  1.00D-01  THROCCDE=  1.00D-01



 THRESHOLDS:

 ZERO    =  1.00D-22  ONEINT  =  1.00D-22  TWOINT  =  1.00D-22  PREFAC  =  1.00D-14  LOCALI  =  1.00D-09  EORDER  =  1.00D-04
 ENERGY  =  1.00D-12  ETEST   =  0.00D+00  EDENS   =  0.00D+00  THRDEDEF=  1.00D-06  GRADIENT=  1.00D-02  STEP    =  1.00D-03
 ORBITAL =  1.00D-05  CIVEC   =  1.00D-05  COEFF   =  1.00D-04  PRINTCI =  5.00D-02  PUNCHCI =  9.90D+01  OPTGRAD =  1.00D-08
 OPTENERG=  1.00D-06  OPTSTEP =  1.00D-08  THRGRAD =  1.00D-10  COMPRESS=  1.00D-11  VARMIN  =  1.00D-07  VARMAX  =  1.00D-03
 THRDOUB =  0.00D+00  THRDIV  =  1.00D-05  THRRED  =  1.00D-07  THRPSP  =  1.00D+00  THRDC   =  1.00D-10  THRCS   =  1.00D-10
 THRNRM  =  1.00D-08  THREQ   =  0.00D+00  THRDE   =  1.00D+00  THRREF  =  1.00D-05  SPARFAC =  1.00D+00  THRDLP  =  1.00D-07
 THRDIA  =  1.00D-10  THRDLS  =  1.00D-07  THRGPS  =  0.00D+00  THRKEX  =  0.00D+00  THRDIS  =  2.00D-01  THRVAR  =  1.00D-10
 THRLOC  =  1.00D-06  THRGAP  =  1.00D-06  THRLOCT = -1.00D+00  THRGAPT = -1.00D+00  THRORB  =  1.00D-06  THRMLTP =  0.00D+00
 THRCPQCI=  1.00D-10  KEXTA   =  0.00D+00  THRCOARS=  0.00D+00  SYMTOL  =  1.00D-06  GRADTOL =  1.00D-06  THROVL  =  1.00D-08
 THRORTH =  1.00D-08  GRID    =  1.00D-06  GRIDMAX =  1.00D-03  DTMAX   =  0.00D+00  THROCCDE=  1.00D-01  THROCCDE=  1.00D-01



 Input parameters for SORTINT:

 COMPRESS =    0.000000
 C_FINAL  =    1.000000
 DEBUG    =   -1.000000
 C_SORT1  =    0.000000
 C_SEWARD =    0.000000
 THRESH   =    0.000000
 IO       =  molpro                                                          
 SPRI     =    0.000000
 SETTING GEOMTYP        =    XYZ
 ZUNIT=BOHR
 

 Variable memory set to  995000000 words,  buffer space   230000 words

 SETTING BASIS          =    AVQZ


 Recomputing integrals since basis changed


 Using spherical harmonics

 Library entry N      S aug-cc-pVQZ          selected for orbital group  1
 Library entry N      P aug-cc-pVQZ          selected for orbital group  1
 Library entry N      D aug-cc-pVQZ          selected for orbital group  1
 Library entry N      F aug-cc-pVQZ          selected for orbital group  1
 Library entry N      G aug-cc-pVQZ          selected for orbital group  1
 Library entry H      S aug-cc-pVQZ          selected for orbital group  2
 Library entry H      P aug-cc-pVQZ          selected for orbital group  2
 Library entry H      D aug-cc-pVQZ          selected for orbital group  2
 Library entry H      F aug-cc-pVQZ          selected for orbital group  2
 Library entry O      S aug-cc-pVQZ          selected for orbital group  3
 Library entry O      P aug-cc-pVQZ          selected for orbital group  3
 Library entry O      D aug-cc-pVQZ          selected for orbital group  3
 Library entry O      F aug-cc-pVQZ          selected for orbital group  3
 Library entry O      G aug-cc-pVQZ          selected for orbital group  3


 PROGRAM * SEWARD (Integral evaluation for generally contracted gaussian basis sets)     Author: Roland Lindh, 1990

 Geometry written to block  1 of record 700


 Point group  Cs  



 ATOMIC COORDINATES

 NR  ATOM    CHARGE       X              Y              Z

   1  N       7.00    0.000000000   -0.178337377   -1.139895868
   2  H       1.00    0.000000000    1.678481203   -1.926090961
   3  O       8.00    0.000000000    0.041623964    1.115397238

 Bond lengths in Bohr (Angstrom)

 1-2  2.016402232  1-3  2.265994260
     ( 1.067034109)     ( 1.199112522)

 Bond angles

  2-1-3  107.37776771

 NUCLEAR CHARGE:                   16
 NUMBER OF PRIMITIVE AOS:         293
 NUMBER OF SYMMETRY AOS:          234
 NUMBER OF CONTRACTIONS:          206   ( 130A'  +  76A"  )
 NUMBER OF CORE ORBITALS:           2   (   2A'  +   0A"  )
 NUMBER OF VALENCE ORBITALS:        9   (   7A'  +   2A"  )


 NUCLEAR REPULSION ENERGY   30.50091421

 Eigenvalues of metric

         1 0.600E-04 0.147E-03 0.317E-03 0.435E-03 0.580E-03 0.699E-03 0.102E-02 0.107E-02
         2 0.805E-03 0.171E-02 0.494E-02 0.891E-02 0.103E-01 0.121E-01 0.124E-01 0.191E-01


 Contracted 2-electron integrals neglected if value below      1.0D-22

      109945086. INTEGRALS WRITTEN OUT IN   26849 BLOCKS ON RECORD 1290 OF FILE 1


 NUMBER OF SORTED TWO-ELECTRON INTEGRALS:  115283741.     BUFFER LENGTH:  32768
 NUMBER OF SEGMENTS:   8  SEGMENT LENGTH:   15998004      RECORD LENGTH: 524288

 Memory used in sort:      16.56 MW

 SORT1 READ   109945086. AND WROTE   110865253. INTEGRALS IN    322 RECORDS. CPU TIME:     1.91 SEC, REAL TIME:     2.67 SEC
 SORT2 READ   110865253. AND WROTE   115283741. INTEGRALS IN      8 RECORDS. CPU TIME:     1.32 SEC, REAL TIME:     1.79 SEC

 FILE SIZES:   FILE 1:  1780.6 MBYTE,  FILE 4:  1350.6 MBYTE,   TOTAL:   3131.2 MBYTE

 OPERATOR DM      FOR CENTER  0  COORDINATES:    0.000000    0.000000    0.000000


 **********************************************************************************************************************************
 DATASETS  * FILE   NREC   LENGTH (MB)   RECORD NAMES
              1      19      944.14       500      610      700      900      950      970     1000      129      960     1100   
                                          VAR    BASINP    GEOM    SYMINP    ZMAT    AOBASIS   BASIS     P2S    ABASIS      S 
                                         1400     1410     1200     1210     1080     1600     1650     1300     1700   
                                           T        V       H0       H01     AOSYM     SMH    MOLCAS    ERIS     OPER   

 PROGRAMS   *        TOTAL       INT
 CPU TIMES  *        10.94     10.84
 REAL TIME  *        13.90 SEC
 DISK USED  *         3.13 GB      
 **********************************************************************************************************************************


 PROGRAM * RHF-SCF (CLOSED SHELL)       Authors: W. Meyer, H.-J. Werner


 NUMBER OF ELECTRONS:       8+    8-
 CONVERGENCE THRESHOLDS:    1.00E-10 (Density)    1.00E-13 (Energy)
 MAX. NUMBER OF ITERATIONS:      500
 INTERPOLATION TYPE:            DIIS
 INTERPOLATION STEPS:              2 (START)      1 (STEP)
 LEVEL SHIFTS:                  0.00 (CLOSED)  0.00 (OPEN) 



 Orbital guess generated from atomic densities. Full valence occupancy:    9   2

 Molecular orbital dump at record        2100.2

 Initial occupancy:   7   1

 ITERATION    DDIFF          GRAD             ENERGY        2-EL.EN.            DIPOLE MOMENTS         DIIS   ORB.
    1      0.000D+00      0.000D+00      -129.79763067    154.187853    0.00000    0.57332   -0.99696    0    start
    2      0.000D+00      0.809D-02      -129.82516490    155.452687    0.00000    0.60363   -0.20166    1    diag
    3      0.648D-02      0.610D-02      -129.84734610    155.551751    0.00000    0.54375   -0.57496    2    diag
    4      0.329D-02      0.958D-03      -129.84813108    155.271696    0.00000    0.55167   -0.51538    3    diag
    5      0.598D-03      0.314D-03      -129.84825699    155.365467    0.00000    0.55712   -0.51815    4    diag
    6      0.251D-03      0.917D-04      -129.84827726    155.349200    0.00000    0.55744   -0.51408    5    diag
    7      0.966D-04      0.452D-04      -129.84828300    155.352129    0.00000    0.55874   -0.51159    6    diag
    8      0.661D-04      0.154D-04      -129.84828361    155.351448    0.00000    0.55879   -0.51063    7    diag
    9      0.244D-04      0.293D-05      -129.84828364    155.351335    0.00000    0.55875   -0.51042    8    diag
   10      0.478D-05      0.676D-06      -129.84828364    155.351315    0.00000    0.55872   -0.51039    9    orth
   11      0.972D-06      0.138D-06      -129.84828364    155.351311    0.00000    0.55871   -0.51039    9    diag
   12      0.186D-06      0.281D-07      -129.84828364    155.351311    0.00000    0.55871   -0.51039    9    diag
   13      0.411D-07      0.723D-08      -129.84828364    155.351311    0.00000    0.55871   -0.51038    9    diag
   14      0.111D-07      0.146D-08      -129.84828364    155.351311    0.00000    0.55871   -0.51038    9    diag
   15      0.206D-08      0.429D-09      -129.84828364    155.351311    0.00000    0.55871   -0.51038    9    diag
   16      0.613D-09      0.133D-09      -129.84828364    155.351311    0.00000    0.55871   -0.51038    9    diag
   17      0.123D-09      0.377D-10      -129.84828364    155.351311    0.00000    0.55871   -0.51038    9    diag
   18      0.361D-10      0.127D-10      -129.84828364    155.351311    0.00000    0.55871   -0.51038    9    diag
   19      0.170D-10      0.313D-11      -129.84828364    155.351311    0.00000    0.55871   -0.51038    9    fixocc
   20      0.573D-11      0.527D-12      -129.84828364    155.351311    0.00000    0.55871   -0.51038    9    orth
   21      0.450D-11      0.256D-12      -129.84828364    155.351311    0.00000    0.55871   -0.51038    9    diag
   22      0.354D-11      0.133D-12      -129.84828364    155.351311    0.00000    0.55871   -0.51038    9    diag
   23      0.142D-11      0.139D-12      -129.84828364    155.351311    0.00000    0.55871   -0.51038    0    orth

 Final occupancy:   7   1

 !RHF STATE 1.1 Energy               -129.848283637975
 Nuclear energy                        30.50091421
 One-electron energy                 -238.02485330
 Two-electron energy                   77.67565546
 Virial quotient                       -1.00162610
 !RHF STATE 1.1 Dipole moment           0.00000000     0.55870852    -0.51038460
 Dipole moment /Debye                   0.00000000     1.42000239    -1.29718330

 Orbital energies:

         1.1          2.1          3.1          4.1          5.1          6.1          7.1          8.1          9.1
    -20.652961   -15.713322    -1.537193    -0.988296    -0.748379    -0.668513    -0.427418     0.026533     0.079514

         1.2          2.2          3.2
     -0.600688     0.065644     0.111223

 HOMO      7.1    -0.427418 =     -11.6306eV
 LUMO      8.1     0.026533 =       0.7220eV
 LUMO-HOMO         0.453951 =      12.3526eV


 **********************************************************************************************************************************
 DATASETS  * FILE   NREC   LENGTH (MB)   RECORD NAMES
              1      19      944.14       500      610      700      900      950      970     1000      129      960     1100   
                                          VAR    BASINP    GEOM    SYMINP    ZMAT    AOBASIS   BASIS     P2S    ABASIS      S 
                                         1400     1410     1200     1210     1080     1600     1650     1300     1700   
                                           T        V       H0       H01     AOSYM     SMH    MOLCAS    ERIS     OPER   

              2       4        3.27       700     1000      520     2100   
                                         GEOM     BASIS   MCVARS     RHF  

 PROGRAMS   *        TOTAL        HF       INT
 CPU TIMES  *        22.39     11.45     10.84
 REAL TIME  *        28.01 SEC
 DISK USED  *         3.13 GB      
 **********************************************************************************************************************************


 PROGRAM * CCSD (Closed-shell coupled cluster)     Authors: C. Hampel, H.-J. Werner, 1991, M. Deegan, P.J. Knowles, 1992


 Convergence thresholds:  THRVAR = 1.00D-08  THRDEN = 1.00D-12

 CCSD(T)     terms to be evaluated (factor= 1.000)


 Number of core orbitals:           2 (   2   0 )
 Number of closed-shell orbitals:   6 (   5   1 )
 Number of external orbitals:     198 ( 123  75 )

 Molecular orbitals read from record     2100.2  Type=RHF/CANONICAL (state 1.1)

 Number of N-1 electron functions:               6
 Number of N-2 electron functions:              21
 Number of singly external CSFs:               690
 Number of doubly external CSFs:            362646
 Total number of CSFs:                      363337

 Length of J-op  integral file:               0.00 MB
 Length of K-op  integral file:               1.60 MB
 Length of 3-ext integral record:             0.00 MB

 Memory could be reduced to 34.67 Mwords without degradation in triples

 Integral transformation finished. Total CPU:   1.47 sec, npass=  1  Memory used:   9.53 MW

 Reference energy:                   -129.84828364

 MP2 singlet pair energy:              -0.30105957
 MP2 triplet pair energy:              -0.17004123
 MP2 correlation energy:               -0.47110081
 MP2 total energy:                   -130.31938444

 SCS-MP2 correlation energy:           -0.46707492   (PS=  1.200000  PT=  0.333333)
 SCS-MP2 total energy:               -130.31535856

 ITER.      SQ.NORM     CORR.ENERGY   TOTAL ENERGY   ENERGY CHANGE        DEN1      VAR(S)    VAR(P)  DIIS     TIME  TIME/IT
   1      1.12058198    -0.47144254  -130.31972618    -0.00034174     0.01581463  0.31D-02  0.31D-02  1  1     2.72     1.37
   2      1.13115238    -0.47146713  -130.31975076    -0.00002458    -0.01235400  0.10D-03  0.49D-03  2  2     3.97     1.40
   3      1.13736120    -0.47183971  -130.32012335    -0.00037258    -0.00302368  0.48D-04  0.51D-04  3  3     5.25     1.41
   4      1.14003547    -0.47184461  -130.32012825    -0.00000490    -0.00091852  0.42D-05  0.92D-05  4  4     6.52     1.41
   5      1.14108609    -0.47187325  -130.32015688    -0.00002863    -0.00023035  0.11D-05  0.16D-05  5  5     7.82     1.42
   6      1.14142764    -0.47185936  -130.32014300     0.00001388    -0.00004884  0.12D-06  0.38D-06  6  6     9.07     1.42
   7      1.14150129    -0.47185945  -130.32014309    -0.00000009     0.00000191  0.20D-07  0.84D-07  6  1    10.38     1.42
   8      1.14152425    -0.47185979  -130.32014343    -0.00000034    -0.00000120  0.35D-08  0.17D-07  6  2    11.65     1.42
   9      1.14153281    -0.47185925  -130.32014289     0.00000054    -0.00000039  0.20D-08  0.16D-08  6  3    12.96     1.43
  10      1.14152843    -0.47185998  -130.32014362    -0.00000073     0.00000147  0.28D-09  0.25D-09  6  5    14.26     1.43
  11      1.14153006    -0.47185994  -130.32014358     0.00000004    -0.00000029  0.85D-10  0.22D-10  6  4    15.52     1.43
  12      1.14152966    -0.47186000  -130.32014364    -0.00000006     0.00000003  0.16D-10  0.55D-11  6  6    16.79     1.43
  13      1.14152949    -0.47186001  -130.32014364    -0.00000000    -0.00000004  0.31D-11  0.77D-12  6  1    18.06     1.43
  14      1.14152923    -0.47186002  -130.32014365    -0.00000001     0.00000004  0.42D-12  0.15D-12  6  3    19.35     1.43
  15      1.14152915    -0.47186002  -130.32014366    -0.00000000     0.00000001  0.11D-12  0.21D-13  6  2    20.62     1.43
  16      1.14152914    -0.47186002  -130.32014366     0.00000000     0.00000000  0.27D-13  0.94D-14  6  4    21.87     1.43
  17      1.14152914    -0.47186002  -130.32014366    -0.00000000    -0.00000000  0.13D-14  0.99D-15  6  5    23.16     1.43
  18      1.14152915    -0.47186002  -130.32014366     0.00000000    -0.00000000  0.22D-15  0.23D-15  6  6    24.46     1.43
  19      1.14152915    -0.47186002  -130.32014366     0.00000000    -0.00000000  0.45D-16  0.23D-16  6  1    25.71     1.43
  20      1.14152916    -0.47186002  -130.32014366     0.00000000    -0.00000000  0.74D-17  0.45D-17  6  2    26.99     1.43
  21      1.14152916    -0.47186002  -130.32014366    -0.00000000     0.00000000  0.96D-18  0.62D-18  6  3    28.26     1.43
  22      1.14152915    -0.47186002  -130.32014366    -0.00000000     0.00000000  0.14D-18  0.11D-18  6  5    29.55     1.43
  23      1.14152915    -0.47186002  -130.32014366    -0.00000000     0.00000000  0.21D-19  0.16D-19  6  4    30.72     1.43
  24      1.14152915    -0.47186002  -130.32014366    -0.00000000     0.00000000  0.48D-20  0.20D-20  6  1    32.01     1.43
  25      1.14152915    -0.47186002  -130.32014366     0.00000000    -0.00000000  0.10D-20  0.50D-21  6  6    33.29     1.43
  26      1.14152915    -0.47186002  -130.32014366     0.00000000    -0.00000000  0.24D-21  0.17D-21  6  2    34.56     1.43

 Norm of t1 vector:      0.07577336      S-energy:     0.00000000      T1 diagnostic:  0.01546717
                                                                       D1 diagnostic:  0.04097239

 Doubles amplitudes (print threshold =  0.500E-01):

         I         J         SYM. A    SYM. B    A         B      T(IJ, AB)

         6         6         2         2         1         1     -0.09370173


 Total CPU time for triples:     15.75 sec


 RESULTS
 =======

  Reference energy                   -129.848283637975
  CCSD singlet pair energy             -0.326061095720
  CCSD triplet pair energy             -0.145798922909
  CCSD correlation energy              -0.471860018630

  Triples (T) contribution             -0.022178953569
  Total correlation energy             -0.494038972198

  CCSD total energy                  -130.320143656604
  CCSD[T] energy                     -130.343369541202
  CCSD-T energy                      -130.341941737796
 !CCSD(T) total energy               -130.342322610173

 Timing summary (sec):

 STEP                 CPU(USER)    SYS     CPU(TOT)    WALL
 Transformation          1.49      0.25      1.74      1.75
 CCSD iterations        33.08      4.08     37.16     37.14
 Triples                15.75      0.42     16.17     16.17

 Program statistics:

 Available memory in ccsd:               994999756
 Min. memory needed in ccsd:               1265322
 Max. memory used in ccsd:                 1555950
 Max. memory used in cckext:               2415326 (26 integral passes)



 **********************************************************************************************************************************
 DATASETS  * FILE   NREC   LENGTH (MB)   RECORD NAMES
              1      20     1044.69       500      610      700      900      950      970     1000      129      960     1100   
                                          VAR    BASINP    GEOM    SYMINP    ZMAT    AOBASIS   BASIS     P2S    ABASIS      S 
                                         1400     1410     1200     1210     1080     1600     1650     1300     1700     1380   
                                           T        V       H0       H01     AOSYM     SMH    MOLCAS    ERIS     OPER     JKOP   

              2       4        3.27       700     1000      520     2100   
                                         GEOM     BASIS   MCVARS     RHF  

 PROGRAMS   *        TOTAL   CCSD(T)        HF       INT
 CPU TIMES  *        72.72     50.33     11.45     10.84
 REAL TIME  *        83.10 SEC
 DISK USED  *         3.13 GB      
 **********************************************************************************************************************************

 CCSD(T)/aug-cc-pVQZ energy=   -130.342322610173

        CCSD(T)         HF-SCF  
   -130.34232261   -129.84828364
 **********************************************************************************************************************************
 Molpro calculation terminated
 Variable memory released
