
 Primary working directories    : /tmp/r2666/234812.maple
 Secondary working directories  : /tmp/r2666/234812.maple
 Wavefunction directory         : /ddn/home4/r2666/wfu/
 Main file repository           : /tmp/r2666/234812.maple/

 SHA1      : d5ffa45e93fdbca01ffc919aa182cfdae0147319
 NAME      : 2015.1.35
 ARCHNAME  : linux/x86_64
 FC        : /opt/intel/composer_xe_2015.1.133/bin/intel64/ifort
 BLASLIB   : -Wl,-_start-group /opt/intel/mkl/lib/intel64/libmkl_intel_ilp64.a /opt/intel/mkl/lib/intel64/libmkl_intel_thread.a /opt/intel/mkl/lib/intel64/libmkl_core.a -Wl,-_end-group
 id        : olemiss

 Nodes     nprocs
 cn091        1

 Using customized tuning parameters: mindgm=1; mindgv=20; mindgc=4; mindgr=1; noblas=0; minvec=7
 default implementation of scratch files=df  

 ***,hno CCSD(T)/TZ-F12 QFF
 memory, 995, m;
 gthresh,energy=1.d-12,zero=1.d-22,oneint=1.d-22,twoint=1.d-22;
 gthresh,optgrad=1.d-8,optstep=1.d-8;
 nocompress;
 geomtyp=xyz
 bohr
 geometry={
 3
         55        55
 N        0.0000000000       -0.1535827539       -1.1282687689
 H        0.0000000000        1.6644012989       -1.9328195771
 O        0.0000000000        0.0309492450        1.1104987550
 }
 
 basis=avqz
   {hf,maxit=500;accu,20;}
 {ccsd(t),nocheck,maxit=250;orbital,IGNORE_ERROR;}

 Variables initialized (889), CPU time= 0.00 sec
 Commands  initialized (702), CPU time= 0.01 sec, 572 directives.
 Default parameters read. Elapsed time= 0.05 sec

 Checking input...
 Passed
1


                                         ***  PROGRAM SYSTEM MOLPRO  ***
                                       Copyright, TTI GmbH Stuttgart, 2015
                                    Version 2015.1 linked Jul  9 2018 13:16:40


 **********************************************************************************************************************************
 LABEL *   hno CCSD(T)/TZ-F12 QFF                                                        
  64 bit serial version                                                                  DATE: 08-Feb-20          TIME: 17:52:34  
 **********************************************************************************************************************************

 SHA1:             d5ffa45e93fdbca01ffc919aa182cfdae0147319
 **********************************************************************************************************************************

 THRESHOLDS:

 ZERO    =  1.00D-22  ONEINT  =  1.00D-22  TWOINT  =  1.00D-22  PREFAC  =  1.00D-14  LOCALI  =  1.00D-09  EORDER  =  1.00D-04
 ENERGY  =  1.00D-12  ETEST   =  0.00D+00  EDENS   =  0.00D+00  THRDEDEF=  1.00D-06  GRADIENT=  1.00D-02  STEP    =  1.00D-03
 ORBITAL =  1.00D-05  CIVEC   =  1.00D-05  COEFF   =  1.00D-04  PRINTCI =  5.00D-02  PUNCHCI =  9.90D+01  OPTGRAD =  3.00D-04
 OPTENERG=  1.00D-06  OPTSTEP =  3.00D-04  THRGRAD =  1.00D-10  COMPRESS=  1.00D-11  VARMIN  =  1.00D-07  VARMAX  =  1.00D-03
 THRDOUB =  0.00D+00  THRDIV  =  1.00D-05  THRRED  =  1.00D-07  THRPSP  =  1.00D+00  THRDC   =  1.00D-10  THRCS   =  1.00D-10
 THRNRM  =  1.00D-08  THREQ   =  0.00D+00  THRDE   =  1.00D+00  THRREF  =  1.00D-05  SPARFAC =  1.00D+00  THRDLP  =  1.00D-07
 THRDIA  =  1.00D-10  THRDLS  =  1.00D-07  THRGPS  =  0.00D+00  THRKEX  =  0.00D+00  THRDIS  =  2.00D-01  THRVAR  =  1.00D-10
 THRLOC  =  1.00D-06  THRGAP  =  1.00D-06  THRLOCT = -1.00D+00  THRGAPT = -1.00D+00  THRORB  =  1.00D-06  THRMLTP =  0.00D+00
 THRCPQCI=  1.00D-10  KEXTA   =  0.00D+00  THRCOARS=  0.00D+00  SYMTOL  =  1.00D-06  GRADTOL =  1.00D-06  THROVL  =  1.00D-08
 THRORTH =  1.00D-08  GRID    =  1.00D-06  GRIDMAX =  1.00D-03  DTMAX   =  0.00D+00  THROCCDE=  1.00D-01  THROCCDE=  1.00D-01



 THRESHOLDS:

 ZERO    =  1.00D-22  ONEINT  =  1.00D-22  TWOINT  =  1.00D-22  PREFAC  =  1.00D-14  LOCALI  =  1.00D-09  EORDER  =  1.00D-04
 ENERGY  =  1.00D-12  ETEST   =  0.00D+00  EDENS   =  0.00D+00  THRDEDEF=  1.00D-06  GRADIENT=  1.00D-02  STEP    =  1.00D-03
 ORBITAL =  1.00D-05  CIVEC   =  1.00D-05  COEFF   =  1.00D-04  PRINTCI =  5.00D-02  PUNCHCI =  9.90D+01  OPTGRAD =  1.00D-08
 OPTENERG=  1.00D-06  OPTSTEP =  1.00D-08  THRGRAD =  1.00D-10  COMPRESS=  1.00D-11  VARMIN  =  1.00D-07  VARMAX  =  1.00D-03
 THRDOUB =  0.00D+00  THRDIV  =  1.00D-05  THRRED  =  1.00D-07  THRPSP  =  1.00D+00  THRDC   =  1.00D-10  THRCS   =  1.00D-10
 THRNRM  =  1.00D-08  THREQ   =  0.00D+00  THRDE   =  1.00D+00  THRREF  =  1.00D-05  SPARFAC =  1.00D+00  THRDLP  =  1.00D-07
 THRDIA  =  1.00D-10  THRDLS  =  1.00D-07  THRGPS  =  0.00D+00  THRKEX  =  0.00D+00  THRDIS  =  2.00D-01  THRVAR  =  1.00D-10
 THRLOC  =  1.00D-06  THRGAP  =  1.00D-06  THRLOCT = -1.00D+00  THRGAPT = -1.00D+00  THRORB  =  1.00D-06  THRMLTP =  0.00D+00
 THRCPQCI=  1.00D-10  KEXTA   =  0.00D+00  THRCOARS=  0.00D+00  SYMTOL  =  1.00D-06  GRADTOL =  1.00D-06  THROVL  =  1.00D-08
 THRORTH =  1.00D-08  GRID    =  1.00D-06  GRIDMAX =  1.00D-03  DTMAX   =  0.00D+00  THROCCDE=  1.00D-01  THROCCDE=  1.00D-01



 Input parameters for SORTINT:

 COMPRESS =    0.000000
 C_FINAL  =    1.000000
 DEBUG    =   -1.000000
 C_SORT1  =    0.000000
 C_SEWARD =    0.000000
 THRESH   =    0.000000
 IO       =  molpro                                                          
 SPRI     =    0.000000
 SETTING GEOMTYP        =    XYZ
 ZUNIT=BOHR
 

 Variable memory set to  995000000 words,  buffer space   230000 words

 SETTING BASIS          =    AVQZ


 Recomputing integrals since basis changed


 Using spherical harmonics

 Library entry N      S aug-cc-pVQZ          selected for orbital group  1
 Library entry N      P aug-cc-pVQZ          selected for orbital group  1
 Library entry N      D aug-cc-pVQZ          selected for orbital group  1
 Library entry N      F aug-cc-pVQZ          selected for orbital group  1
 Library entry N      G aug-cc-pVQZ          selected for orbital group  1
 Library entry H      S aug-cc-pVQZ          selected for orbital group  2
 Library entry H      P aug-cc-pVQZ          selected for orbital group  2
 Library entry H      D aug-cc-pVQZ          selected for orbital group  2
 Library entry H      F aug-cc-pVQZ          selected for orbital group  2
 Library entry O      S aug-cc-pVQZ          selected for orbital group  3
 Library entry O      P aug-cc-pVQZ          selected for orbital group  3
 Library entry O      D aug-cc-pVQZ          selected for orbital group  3
 Library entry O      F aug-cc-pVQZ          selected for orbital group  3
 Library entry O      G aug-cc-pVQZ          selected for orbital group  3


 PROGRAM * SEWARD (Integral evaluation for generally contracted gaussian basis sets)     Author: Roland Lindh, 1990

 Geometry written to block  1 of record 700


 Point group  Cs  



 ATOMIC COORDINATES

 NR  ATOM    CHARGE       X              Y              Z

   1  N       7.00    0.000000000   -0.153582754   -1.128268769
   2  H       1.00    0.000000000    1.664401299   -1.932819577
   3  O       8.00    0.000000000    0.030949245    1.110498755

 Bond lengths in Bohr (Angstrom)

 1-2  1.988056342  1-3  2.246359741
     ( 1.052034110)     ( 1.188722382)

 Bond angles

  2-1-3  109.15984414

 NUCLEAR CHARGE:                   16
 NUMBER OF PRIMITIVE AOS:         293
 NUMBER OF SYMMETRY AOS:          234
 NUMBER OF CONTRACTIONS:          206   ( 130A'  +  76A"  )
 NUMBER OF CORE ORBITALS:           2   (   2A'  +   0A"  )
 NUMBER OF VALENCE ORBITALS:        9   (   7A'  +   2A"  )


 NUCLEAR REPULSION ENERGY   30.76641977

 Eigenvalues of metric

         1 0.577E-04 0.140E-03 0.311E-03 0.431E-03 0.553E-03 0.668E-03 0.981E-03 0.105E-02
         2 0.774E-03 0.161E-02 0.470E-02 0.884E-02 0.100E-01 0.116E-01 0.122E-01 0.181E-01


 Contracted 2-electron integrals neglected if value below      1.0D-22

      109945075. INTEGRALS WRITTEN OUT IN   26849 BLOCKS ON RECORD 1290 OF FILE 1


 NUMBER OF SORTED TWO-ELECTRON INTEGRALS:  115283741.     BUFFER LENGTH:  32768
 NUMBER OF SEGMENTS:   8  SEGMENT LENGTH:   15998004      RECORD LENGTH: 524288

 Memory used in sort:      16.56 MW

 SORT1 READ   109945075. AND WROTE   110865242. INTEGRALS IN    322 RECORDS. CPU TIME:     1.85 SEC, REAL TIME:     2.67 SEC
 SORT2 READ   110865242. AND WROTE   115283741. INTEGRALS IN      8 RECORDS. CPU TIME:     1.37 SEC, REAL TIME:     1.83 SEC

 FILE SIZES:   FILE 1:  1780.6 MBYTE,  FILE 4:  1350.6 MBYTE,   TOTAL:   3131.2 MBYTE

 OPERATOR DM      FOR CENTER  0  COORDINATES:    0.000000    0.000000    0.000000


 **********************************************************************************************************************************
 DATASETS  * FILE   NREC   LENGTH (MB)   RECORD NAMES
              1      19      944.14       500      610      700      900      950      970     1000      129      960     1100   
                                          VAR    BASINP    GEOM    SYMINP    ZMAT    AOBASIS   BASIS     P2S    ABASIS      S 
                                         1400     1410     1200     1210     1080     1600     1650     1300     1700   
                                           T        V       H0       H01     AOSYM     SMH    MOLCAS    ERIS     OPER   

 PROGRAMS   *        TOTAL       INT
 CPU TIMES  *        11.03     10.93
 REAL TIME  *        13.76 SEC
 DISK USED  *         3.13 GB      
 **********************************************************************************************************************************


 PROGRAM * RHF-SCF (CLOSED SHELL)       Authors: W. Meyer, H.-J. Werner


 NUMBER OF ELECTRONS:       8+    8-
 CONVERGENCE THRESHOLDS:    1.00E-10 (Density)    1.00E-13 (Energy)
 MAX. NUMBER OF ITERATIONS:      500
 INTERPOLATION TYPE:            DIIS
 INTERPOLATION STEPS:              2 (START)      1 (STEP)
 LEVEL SHIFTS:                  0.00 (CLOSED)  0.00 (OPEN) 



 Orbital guess generated from atomic densities. Full valence occupancy:    9   2

 Molecular orbital dump at record        2100.2

 Initial occupancy:   7   1

 ITERATION    DDIFF          GRAD             ENERGY        2-EL.EN.            DIPOLE MOMENTS         DIIS   ORB.
    1      0.000D+00      0.000D+00      -129.80163889    154.668942    0.00000    0.59355   -0.96657    0    start
    2      0.000D+00      0.793D-02      -129.82934643    155.940114    0.00000    0.59744   -0.21843    1    diag
    3      0.627D-02      0.579D-02      -129.84918755    156.019590    0.00000    0.55088   -0.56791    2    diag
    4      0.315D-02      0.949D-03      -129.84994919    155.749306    0.00000    0.55827   -0.50971    3    diag
    5      0.591D-03      0.306D-03      -129.85006747    155.841411    0.00000    0.56367   -0.51275    4    diag
    6      0.243D-03      0.883D-04      -129.85008617    155.825529    0.00000    0.56408   -0.50894    5    diag
    7      0.927D-04      0.432D-04      -129.85009136    155.828465    0.00000    0.56537   -0.50662    6    diag
    8      0.629D-04      0.143D-04      -129.85009186    155.827842    0.00000    0.56542   -0.50574    7    diag
    9      0.222D-04      0.268D-05      -129.85009188    155.827740    0.00000    0.56539   -0.50555    8    diag
   10      0.424D-05      0.638D-06      -129.85009188    155.827722    0.00000    0.56536   -0.50552    9    orth
   11      0.922D-06      0.132D-06      -129.85009188    155.827718    0.00000    0.56535   -0.50551    9    diag
   12      0.181D-06      0.262D-07      -129.85009188    155.827718    0.00000    0.56535   -0.50551    9    diag
   13      0.388D-07      0.656D-08      -129.85009188    155.827718    0.00000    0.56535   -0.50551    9    diag
   14      0.100D-07      0.134D-08      -129.85009188    155.827718    0.00000    0.56535   -0.50551    9    diag
   15      0.193D-08      0.397D-09      -129.85009188    155.827718    0.00000    0.56535   -0.50551    9    diag
   16      0.569D-09      0.125D-09      -129.85009188    155.827718    0.00000    0.56535   -0.50551    9    diag
   17      0.117D-09      0.343D-10      -129.85009188    155.827718    0.00000    0.56535   -0.50551    9    diag
   18      0.334D-10      0.114D-10      -129.85009188    155.827718    0.00000    0.56535   -0.50551    9    diag
   19      0.158D-10      0.284D-11      -129.85009188    155.827718    0.00000    0.56535   -0.50551    9    fixocc
   20      0.543D-11      0.450D-12      -129.85009188    155.827718    0.00000    0.56535   -0.50551    0    orth

 Final occupancy:   7   1

 !RHF STATE 1.1 Energy               -129.850091884855
 Nuclear energy                        30.76641977
 One-electron energy                 -238.53037061
 Two-electron energy                   77.91385896
 Virial quotient                       -1.00117159
 !RHF STATE 1.1 Dipole moment           0.00000000     0.56534923    -0.50551148
 Dipole moment /Debye                   0.00000000     1.43688029    -1.28479786

 Orbital energies:

         1.1          2.1          3.1          4.1          5.1          6.1          7.1          8.1          9.1
    -20.652091   -15.709173    -1.545182    -0.990658    -0.753132    -0.671929    -0.423845     0.026536     0.079500

         1.2          2.2          3.2
     -0.605315     0.067871     0.111427

 HOMO      7.1    -0.423845 =     -11.5334eV
 LUMO      8.1     0.026536 =       0.7221eV
 LUMO-HOMO         0.450382 =      12.2555eV


 **********************************************************************************************************************************
 DATASETS  * FILE   NREC   LENGTH (MB)   RECORD NAMES
              1      19      944.14       500      610      700      900      950      970     1000      129      960     1100   
                                          VAR    BASINP    GEOM    SYMINP    ZMAT    AOBASIS   BASIS     P2S    ABASIS      S 
                                         1400     1410     1200     1210     1080     1600     1650     1300     1700   
                                           T        V       H0       H01     AOSYM     SMH    MOLCAS    ERIS     OPER   

              2       4        3.27       700     1000      520     2100   
                                         GEOM     BASIS   MCVARS     RHF  

 PROGRAMS   *        TOTAL        HF       INT
 CPU TIMES  *        20.98      9.95     10.93
 REAL TIME  *        26.26 SEC
 DISK USED  *         3.13 GB      
 **********************************************************************************************************************************


 PROGRAM * CCSD (Closed-shell coupled cluster)     Authors: C. Hampel, H.-J. Werner, 1991, M. Deegan, P.J. Knowles, 1992


 Convergence thresholds:  THRVAR = 1.00D-08  THRDEN = 1.00D-12

 CCSD(T)     terms to be evaluated (factor= 1.000)


 Number of core orbitals:           2 (   2   0 )
 Number of closed-shell orbitals:   6 (   5   1 )
 Number of external orbitals:     198 ( 123  75 )

 Molecular orbitals read from record     2100.2  Type=RHF/CANONICAL (state 1.1)

 Number of N-1 electron functions:               6
 Number of N-2 electron functions:              21
 Number of singly external CSFs:               690
 Number of doubly external CSFs:            362646
 Total number of CSFs:                      363337

 Length of J-op  integral file:               0.00 MB
 Length of K-op  integral file:               1.60 MB
 Length of 3-ext integral record:             0.00 MB

 Memory could be reduced to 34.67 Mwords without degradation in triples

 Integral transformation finished. Total CPU:   1.55 sec, npass=  1  Memory used:   9.53 MW

 Reference energy:                   -129.85009188

 MP2 singlet pair energy:              -0.29967924
 MP2 triplet pair energy:              -0.16915354
 MP2 correlation energy:               -0.46883278
 MP2 total energy:                   -130.31892466

 SCS-MP2 correlation energy:           -0.46486618   (PS=  1.200000  PT=  0.333333)
 SCS-MP2 total energy:               -130.31495806

 ITER.      SQ.NORM     CORR.ENERGY   TOTAL ENERGY   ENERGY CHANGE        DEN1      VAR(S)    VAR(P)  DIIS     TIME  TIME/IT
   1      1.11901952    -0.46960536  -130.31969724    -0.00077258     0.01486063  0.29D-02  0.30D-02  1  1     2.86     1.42
   2      1.12927277    -0.46971126  -130.31980315    -0.00010591    -0.01203587  0.94D-04  0.47D-03  2  2     4.15     1.45
   3      1.13522740    -0.47006316  -130.32015505    -0.00035190    -0.00293146  0.44D-04  0.49D-04  3  3     5.44     1.46
   4      1.13778060    -0.47006877  -130.32016065    -0.00000561    -0.00088182  0.38D-05  0.90D-05  4  4     6.75     1.47
   5      1.13877047    -0.47009510  -130.32018699    -0.00002634    -0.00021681  0.10D-05  0.16D-05  5  5     8.04     1.47
   6      1.13910003    -0.47008238  -130.32017426     0.00001273    -0.00004653  0.10D-06  0.40D-06  6  6     9.37     1.47
   7      1.13917454    -0.47008259  -130.32017447    -0.00000021     0.00000150  0.18D-07  0.86D-07  6  1    10.71     1.48
   8      1.13919702    -0.47008312  -130.32017500    -0.00000053    -0.00000103  0.38D-08  0.16D-07  6  2    12.05     1.48
   9      1.13920527    -0.47008264  -130.32017453     0.00000048    -0.00000043  0.21D-08  0.15D-08  6  3    13.38     1.48
  10      1.13920098    -0.47008334  -130.32017523    -0.00000070     0.00000142  0.29D-09  0.24D-09  6  5    14.69     1.48
  11      1.13920242    -0.47008331  -130.32017520     0.00000003    -0.00000024  0.83D-10  0.21D-10  6  4    15.98     1.48
  12      1.13920202    -0.47008337  -130.32017526    -0.00000006     0.00000003  0.16D-10  0.53D-11  6  6    17.32     1.48
  13      1.13920184    -0.47008338  -130.32017526    -0.00000000    -0.00000003  0.31D-11  0.76D-12  6  1    18.61     1.48
  14      1.13920159    -0.47008338  -130.32017527    -0.00000001     0.00000003  0.44D-12  0.15D-12  6  3    19.92     1.48
  15      1.13920152    -0.47008339  -130.32017527    -0.00000000     0.00000001  0.11D-12  0.20D-13  6  2    21.21     1.48
  16      1.13920151    -0.47008339  -130.32017527     0.00000000     0.00000000  0.26D-13  0.89D-14  6  4    22.53     1.48
  17      1.13920151    -0.47008339  -130.32017527    -0.00000000    -0.00000000  0.12D-14  0.98D-15  6  5    23.86     1.48
  18      1.13920152    -0.47008339  -130.32017527     0.00000000    -0.00000000  0.23D-15  0.23D-15  6  6    25.17     1.48
  19      1.13920152    -0.47008339  -130.32017527     0.00000000    -0.00000000  0.48D-16  0.25D-16  6  1    26.48     1.48
  20      1.13920152    -0.47008339  -130.32017527     0.00000000    -0.00000000  0.82D-17  0.47D-17  6  2    27.76     1.48
  21      1.13920152    -0.47008339  -130.32017527    -0.00000000     0.00000000  0.11D-17  0.64D-18  6  3    29.05     1.48
  22      1.13920152    -0.47008339  -130.32017527    -0.00000000     0.00000000  0.18D-18  0.10D-18  6  4    30.33     1.48
  23      1.13920152    -0.47008339  -130.32017527    -0.00000000     0.00000000  0.33D-19  0.20D-19  6  5    31.65     1.48
  24      1.13920152    -0.47008339  -130.32017527    -0.00000000     0.00000000  0.87D-20  0.17D-20  6  6    32.91     1.47
  25      1.13920152    -0.47008339  -130.32017527     0.00000000    -0.00000000  0.27D-20  0.69D-21  6  1    34.23     1.47

 Norm of t1 vector:      0.07398032      S-energy:    -0.00000000      T1 diagnostic:  0.01510117
                                                                       D1 diagnostic:  0.03978351

 Doubles amplitudes (print threshold =  0.500E-01):

         I         J         SYM. A    SYM. B    A         B      T(IJ, AB)

         6         6         2         2         1         1     -0.08775443


 Total CPU time for triples:     16.46 sec


 RESULTS
 =======

  Reference energy                   -129.850091884855
  CCSD singlet pair energy             -0.324530834212
  CCSD triplet pair energy             -0.145552553482
  CCSD correlation energy              -0.470083387694

  Triples (T) contribution             -0.021776754849
  Total correlation energy             -0.491860142543

  CCSD total energy                  -130.320175272550
  CCSD[T] energy                     -130.342950187365
  CCSD-T energy                      -130.341585433132
 !CCSD(T) total energy               -130.341952027398

 Timing summary (sec):

 STEP                 CPU(USER)    SYS     CPU(TOT)    WALL
 Transformation          1.56      0.27      1.83      2.21
 CCSD iterations        32.67      4.20     36.87     36.89
 Triples                16.46      0.40     16.86     16.84

 Program statistics:

 Available memory in ccsd:               994999756
 Min. memory needed in ccsd:               1265322
 Max. memory used in ccsd:                 1555950
 Max. memory used in cckext:               2415326 (25 integral passes)



 **********************************************************************************************************************************
 DATASETS  * FILE   NREC   LENGTH (MB)   RECORD NAMES
              1      20     1044.69       500      610      700      900      950      970     1000      129      960     1100   
                                          VAR    BASINP    GEOM    SYMINP    ZMAT    AOBASIS   BASIS     P2S    ABASIS      S 
                                         1400     1410     1200     1210     1080     1600     1650     1300     1700     1380   
                                           T        V       H0       H01     AOSYM     SMH    MOLCAS    ERIS     OPER     JKOP   

              2       4        3.27       700     1000      520     2100   
                                         GEOM     BASIS   MCVARS     RHF  

 PROGRAMS   *        TOTAL   CCSD(T)        HF       INT
 CPU TIMES  *        71.69     50.71      9.95     10.93
 REAL TIME  *        82.23 SEC
 DISK USED  *         3.13 GB      
 **********************************************************************************************************************************

 CCSD(T)/aug-cc-pVQZ energy=   -130.341952027398

        CCSD(T)         HF-SCF  
   -130.34195203   -129.85009188
 **********************************************************************************************************************************
 Molpro calculation terminated
 Variable memory released
