
 Primary working directories    : /tmp/r2666/234793.maple
 Secondary working directories  : /tmp/r2666/234793.maple
 Wavefunction directory         : /ddn/home4/r2666/wfu/
 Main file repository           : /tmp/r2666/234793.maple/

 SHA1      : d5ffa45e93fdbca01ffc919aa182cfdae0147319
 NAME      : 2015.1.35
 ARCHNAME  : linux/x86_64
 FC        : /opt/intel/composer_xe_2015.1.133/bin/intel64/ifort
 BLASLIB   : -Wl,-_start-group /opt/intel/mkl/lib/intel64/libmkl_intel_ilp64.a /opt/intel/mkl/lib/intel64/libmkl_intel_thread.a /opt/intel/mkl/lib/intel64/libmkl_core.a -Wl,-_end-group
 id        : olemiss

 Nodes     nprocs
 cn029        1

 Using customized tuning parameters: mindgm=1; mindgv=20; mindgc=4; mindgr=1; noblas=0; minvec=7
 default implementation of scratch files=df  

 ***,hno CCSD(T)/TZ-F12 QFF
 memory, 995, m;
 gthresh,energy=1.d-12,zero=1.d-22,oneint=1.d-22,twoint=1.d-22;
 gthresh,optgrad=1.d-8,optstep=1.d-8;
 nocompress;
 geomtyp=xyz
 bohr
 geometry={
 3
         36        36
 N        0.0000000000       -0.1644539829       -1.1665495552
 H        0.0000000000        1.6642513339       -1.9220132159
 O        0.0000000000        0.0419704390        1.1379731802
 }
 
 basis=avqz
   {hf,maxit=500;accu,20;}
 {ccsd(t),nocheck,maxit=250;orbital,IGNORE_ERROR;}

 Variables initialized (889), CPU time= 0.01 sec
 Commands  initialized (702), CPU time= 0.01 sec, 572 directives.
 Default parameters read. Elapsed time= 0.07 sec

 Checking input...
 Passed
1


                                         ***  PROGRAM SYSTEM MOLPRO  ***
                                       Copyright, TTI GmbH Stuttgart, 2015
                                    Version 2015.1 linked Jul  9 2018 13:16:40


 **********************************************************************************************************************************
 LABEL *   hno CCSD(T)/TZ-F12 QFF                                                        
  64 bit serial version                                                                  DATE: 08-Feb-20          TIME: 17:51:21  
 **********************************************************************************************************************************

 SHA1:             d5ffa45e93fdbca01ffc919aa182cfdae0147319
 **********************************************************************************************************************************

 THRESHOLDS:

 ZERO    =  1.00D-22  ONEINT  =  1.00D-22  TWOINT  =  1.00D-22  PREFAC  =  1.00D-14  LOCALI  =  1.00D-09  EORDER  =  1.00D-04
 ENERGY  =  1.00D-12  ETEST   =  0.00D+00  EDENS   =  0.00D+00  THRDEDEF=  1.00D-06  GRADIENT=  1.00D-02  STEP    =  1.00D-03
 ORBITAL =  1.00D-05  CIVEC   =  1.00D-05  COEFF   =  1.00D-04  PRINTCI =  5.00D-02  PUNCHCI =  9.90D+01  OPTGRAD =  3.00D-04
 OPTENERG=  1.00D-06  OPTSTEP =  3.00D-04  THRGRAD =  1.00D-10  COMPRESS=  1.00D-11  VARMIN  =  1.00D-07  VARMAX  =  1.00D-03
 THRDOUB =  0.00D+00  THRDIV  =  1.00D-05  THRRED  =  1.00D-07  THRPSP  =  1.00D+00  THRDC   =  1.00D-10  THRCS   =  1.00D-10
 THRNRM  =  1.00D-08  THREQ   =  0.00D+00  THRDE   =  1.00D+00  THRREF  =  1.00D-05  SPARFAC =  1.00D+00  THRDLP  =  1.00D-07
 THRDIA  =  1.00D-10  THRDLS  =  1.00D-07  THRGPS  =  0.00D+00  THRKEX  =  0.00D+00  THRDIS  =  2.00D-01  THRVAR  =  1.00D-10
 THRLOC  =  1.00D-06  THRGAP  =  1.00D-06  THRLOCT = -1.00D+00  THRGAPT = -1.00D+00  THRORB  =  1.00D-06  THRMLTP =  0.00D+00
 THRCPQCI=  1.00D-10  KEXTA   =  0.00D+00  THRCOARS=  0.00D+00  SYMTOL  =  1.00D-06  GRADTOL =  1.00D-06  THROVL  =  1.00D-08
 THRORTH =  1.00D-08  GRID    =  1.00D-06  GRIDMAX =  1.00D-03  DTMAX   =  0.00D+00  THROCCDE=  1.00D-01  THROCCDE=  1.00D-01



 THRESHOLDS:

 ZERO    =  1.00D-22  ONEINT  =  1.00D-22  TWOINT  =  1.00D-22  PREFAC  =  1.00D-14  LOCALI  =  1.00D-09  EORDER  =  1.00D-04
 ENERGY  =  1.00D-12  ETEST   =  0.00D+00  EDENS   =  0.00D+00  THRDEDEF=  1.00D-06  GRADIENT=  1.00D-02  STEP    =  1.00D-03
 ORBITAL =  1.00D-05  CIVEC   =  1.00D-05  COEFF   =  1.00D-04  PRINTCI =  5.00D-02  PUNCHCI =  9.90D+01  OPTGRAD =  1.00D-08
 OPTENERG=  1.00D-06  OPTSTEP =  1.00D-08  THRGRAD =  1.00D-10  COMPRESS=  1.00D-11  VARMIN  =  1.00D-07  VARMAX  =  1.00D-03
 THRDOUB =  0.00D+00  THRDIV  =  1.00D-05  THRRED  =  1.00D-07  THRPSP  =  1.00D+00  THRDC   =  1.00D-10  THRCS   =  1.00D-10
 THRNRM  =  1.00D-08  THREQ   =  0.00D+00  THRDE   =  1.00D+00  THRREF  =  1.00D-05  SPARFAC =  1.00D+00  THRDLP  =  1.00D-07
 THRDIA  =  1.00D-10  THRDLS  =  1.00D-07  THRGPS  =  0.00D+00  THRKEX  =  0.00D+00  THRDIS  =  2.00D-01  THRVAR  =  1.00D-10
 THRLOC  =  1.00D-06  THRGAP  =  1.00D-06  THRLOCT = -1.00D+00  THRGAPT = -1.00D+00  THRORB  =  1.00D-06  THRMLTP =  0.00D+00
 THRCPQCI=  1.00D-10  KEXTA   =  0.00D+00  THRCOARS=  0.00D+00  SYMTOL  =  1.00D-06  GRADTOL =  1.00D-06  THROVL  =  1.00D-08
 THRORTH =  1.00D-08  GRID    =  1.00D-06  GRIDMAX =  1.00D-03  DTMAX   =  0.00D+00  THROCCDE=  1.00D-01  THROCCDE=  1.00D-01



 Input parameters for SORTINT:

 COMPRESS =    0.000000
 C_FINAL  =    1.000000
 DEBUG    =   -1.000000
 C_SORT1  =    0.000000
 C_SEWARD =    0.000000
 THRESH   =    0.000000
 IO       =  molpro                                                          
 SPRI     =    0.000000
 SETTING GEOMTYP        =    XYZ
 ZUNIT=BOHR
 

 Variable memory set to  995000000 words,  buffer space   230000 words

 SETTING BASIS          =    AVQZ


 Recomputing integrals since basis changed


 Using spherical harmonics

 Library entry N      S aug-cc-pVQZ          selected for orbital group  1
 Library entry N      P aug-cc-pVQZ          selected for orbital group  1
 Library entry N      D aug-cc-pVQZ          selected for orbital group  1
 Library entry N      F aug-cc-pVQZ          selected for orbital group  1
 Library entry N      G aug-cc-pVQZ          selected for orbital group  1
 Library entry H      S aug-cc-pVQZ          selected for orbital group  2
 Library entry H      P aug-cc-pVQZ          selected for orbital group  2
 Library entry H      D aug-cc-pVQZ          selected for orbital group  2
 Library entry H      F aug-cc-pVQZ          selected for orbital group  2
 Library entry O      S aug-cc-pVQZ          selected for orbital group  3
 Library entry O      P aug-cc-pVQZ          selected for orbital group  3
 Library entry O      D aug-cc-pVQZ          selected for orbital group  3
 Library entry O      F aug-cc-pVQZ          selected for orbital group  3
 Library entry O      G aug-cc-pVQZ          selected for orbital group  3


 PROGRAM * SEWARD (Integral evaluation for generally contracted gaussian basis sets)     Author: Roland Lindh, 1990

 Geometry written to block  1 of record 700


 Point group  Cs  



 ATOMIC COORDINATES

 NR  ATOM    CHARGE       X              Y              Z

   1  N       7.00    0.000000000   -0.164453983   -1.166549555
   2  H       1.00    0.000000000    1.664251334   -1.922013216
   3  O       8.00    0.000000000    0.041970439    1.137973180

 Bond lengths in Bohr (Angstrom)

 1-2  1.978607712  1-3  2.313749355
     ( 1.047034111)     ( 1.224383431)

 Bond angles

  2-1-3  107.32767251

 NUCLEAR CHARGE:                   16
 NUMBER OF PRIMITIVE AOS:         293
 NUMBER OF SYMMETRY AOS:          234
 NUMBER OF CONTRACTIONS:          206   ( 130A'  +  76A"  )
 NUMBER OF CORE ORBITALS:           2   (   2A'  +   0A"  )
 NUMBER OF VALENCE ORBITALS:        9   (   7A'  +   2A"  )


 NUCLEAR REPULSION ENERGY   30.05083375

 Eigenvalues of metric

         1 0.603E-04 0.149E-03 0.323E-03 0.439E-03 0.617E-03 0.686E-03 0.102E-02 0.111E-02
         2 0.865E-03 0.161E-02 0.512E-02 0.900E-02 0.101E-01 0.126E-01 0.130E-01 0.191E-01


 Contracted 2-electron integrals neglected if value below      1.0D-22

      109944318. INTEGRALS WRITTEN OUT IN   26849 BLOCKS ON RECORD 1290 OF FILE 1


 NUMBER OF SORTED TWO-ELECTRON INTEGRALS:  115283741.     BUFFER LENGTH:  32768
 NUMBER OF SEGMENTS:   8  SEGMENT LENGTH:   15998004      RECORD LENGTH: 524288

 Memory used in sort:      16.56 MW

 SORT1 READ   109944318. AND WROTE   110864465. INTEGRALS IN    322 RECORDS. CPU TIME:     2.67 SEC, REAL TIME:     3.47 SEC
 SORT2 READ   110864465. AND WROTE   115283741. INTEGRALS IN      8 RECORDS. CPU TIME:     1.55 SEC, REAL TIME:     2.04 SEC

 FILE SIZES:   FILE 1:  1780.6 MBYTE,  FILE 4:  1350.6 MBYTE,   TOTAL:   3131.2 MBYTE

 OPERATOR DM      FOR CENTER  0  COORDINATES:    0.000000    0.000000    0.000000


 **********************************************************************************************************************************
 DATASETS  * FILE   NREC   LENGTH (MB)   RECORD NAMES
              1      19      944.13       500      610      700      900      950      970     1000      129      960     1100   
                                          VAR    BASINP    GEOM    SYMINP    ZMAT    AOBASIS   BASIS     P2S    ABASIS      S 
                                         1400     1410     1200     1210     1080     1600     1650     1300     1700   
                                           T        V       H0       H01     AOSYM     SMH    MOLCAS    ERIS     OPER   

 PROGRAMS   *        TOTAL       INT
 CPU TIMES  *        14.65     14.53
 REAL TIME  *        17.48 SEC
 DISK USED  *         3.13 GB      
 **********************************************************************************************************************************


 PROGRAM * RHF-SCF (CLOSED SHELL)       Authors: W. Meyer, H.-J. Werner


 NUMBER OF ELECTRONS:       8+    8-
 CONVERGENCE THRESHOLDS:    1.00E-10 (Density)    1.00E-13 (Energy)
 MAX. NUMBER OF ITERATIONS:      500
 INTERPOLATION TYPE:            DIIS
 INTERPOLATION STEPS:              2 (START)      1 (STEP)
 LEVEL SHIFTS:                  0.00 (CLOSED)  0.00 (OPEN) 



 Orbital guess generated from atomic densities. Full valence occupancy:    9   2

 Molecular orbital dump at record        2100.2

 Initial occupancy:   7   1

 ITERATION    DDIFF          GRAD             ENERGY        2-EL.EN.            DIPOLE MOMENTS         DIIS   ORB.
    1      0.000D+00      0.000D+00      -129.79189242    153.398209    0.00000    0.59671   -1.07694    0    start
    2      0.000D+00      0.825D-02      -129.81856081    154.585933    0.00000    0.62125   -0.19671    1    diag
    3      0.676D-02      0.652D-02      -129.84420413    154.749351    0.00000    0.56197   -0.61501    2    diag
    4      0.349D-02      0.989D-03      -129.84504199    154.452345    0.00000    0.56943   -0.55111    3    diag
    5      0.618D-03      0.324D-03      -129.84517454    154.546857    0.00000    0.57461   -0.55331    4    diag
    6      0.259D-03      0.934D-04      -129.84519576    154.530504    0.00000    0.57481   -0.54883    5    diag
    7      0.990D-04      0.473D-04      -129.84520221    154.533091    0.00000    0.57598   -0.54597    6    diag
    8      0.692D-04      0.173D-04      -129.84520305    154.532329    0.00000    0.57601   -0.54481    7    diag
    9      0.290D-04      0.338D-05      -129.84520309    154.532201    0.00000    0.57597   -0.54456    8    diag
   10      0.596D-05      0.738D-06      -129.84520309    154.532183    0.00000    0.57594   -0.54453    9    orth
   11      0.106D-05      0.145D-06      -129.84520309    154.532180    0.00000    0.57593   -0.54453    9    diag
   12      0.186D-06      0.308D-07      -129.84520309    154.532180    0.00000    0.57593   -0.54453    9    diag
   13      0.406D-07      0.831D-08      -129.84520309    154.532180    0.00000    0.57593   -0.54453    9    diag
   14      0.117D-07      0.163D-08      -129.84520309    154.532179    0.00000    0.57593   -0.54453    9    diag
   15      0.208D-08      0.462D-09      -129.84520309    154.532180    0.00000    0.57593   -0.54453    9    diag
   16      0.640D-09      0.135D-09      -129.84520309    154.532180    0.00000    0.57593   -0.54453    9    diag
   17      0.114D-09      0.345D-10      -129.84520309    154.532180    0.00000    0.57593   -0.54453    9    diag
   18      0.316D-10      0.115D-10      -129.84520309    154.532180    0.00000    0.57593   -0.54453    0    orth

 Final occupancy:   7   1

 !RHF STATE 1.1 Energy               -129.845203087788
 Nuclear energy                        30.05083375
 One-electron energy                 -237.16212660
 Two-electron energy                   77.26608976
 Virial quotient                       -1.00213409
 !RHF STATE 1.1 Dipole moment           0.00000000     0.57592684    -0.54452743
 Dipole moment /Debye                   0.00000000     1.46376414    -1.38396002

 Orbital energies:

         1.1          2.1          3.1          4.1          5.1          6.1          7.1          8.1          9.1
    -20.654959   -15.714967    -1.516914    -0.999106    -0.742870    -0.661316    -0.436367     0.026226     0.079447

         1.2          2.2          3.2
     -0.588475     0.059162     0.109708

 HOMO      7.1    -0.436367 =     -11.8741eV
 LUMO      8.1     0.026226 =       0.7136eV
 LUMO-HOMO         0.462593 =      12.5878eV


 **********************************************************************************************************************************
 DATASETS  * FILE   NREC   LENGTH (MB)   RECORD NAMES
              1      19      944.13       500      610      700      900      950      970     1000      129      960     1100   
                                          VAR    BASINP    GEOM    SYMINP    ZMAT    AOBASIS   BASIS     P2S    ABASIS      S 
                                         1400     1410     1200     1210     1080     1600     1650     1300     1700   
                                           T        V       H0       H01     AOSYM     SMH    MOLCAS    ERIS     OPER   

              2       4        3.27       700     1000      520     2100   
                                         GEOM     BASIS   MCVARS     RHF  

 PROGRAMS   *        TOTAL        HF       INT
 CPU TIMES  *        25.99     11.33     14.53
 REAL TIME  *        30.93 SEC
 DISK USED  *         3.13 GB      
 **********************************************************************************************************************************


 PROGRAM * CCSD (Closed-shell coupled cluster)     Authors: C. Hampel, H.-J. Werner, 1991, M. Deegan, P.J. Knowles, 1992


 Convergence thresholds:  THRVAR = 1.00D-08  THRDEN = 1.00D-12

 CCSD(T)     terms to be evaluated (factor= 1.000)


 Number of core orbitals:           2 (   2   0 )
 Number of closed-shell orbitals:   6 (   5   1 )
 Number of external orbitals:     198 ( 123  75 )

 Molecular orbitals read from record     2100.2  Type=RHF/CANONICAL (state 1.1)

 Number of N-1 electron functions:               6
 Number of N-2 electron functions:              21
 Number of singly external CSFs:               690
 Number of doubly external CSFs:            362646
 Total number of CSFs:                      363337

 Length of J-op  integral file:               0.00 MB
 Length of K-op  integral file:               1.60 MB
 Length of 3-ext integral record:             0.00 MB

 Memory could be reduced to 34.67 Mwords without degradation in triples

 Integral transformation finished. Total CPU:   1.94 sec, npass=  1  Memory used:   9.53 MW

 Reference energy:                   -129.84520309

 MP2 singlet pair energy:              -0.30320792
 MP2 triplet pair energy:              -0.17151323
 MP2 correlation energy:               -0.47472115
 MP2 total energy:                   -130.31992424

 SCS-MP2 correlation energy:           -0.47056885   (PS=  1.200000  PT=  0.333333)
 SCS-MP2 total energy:               -130.31577194

 ITER.      SQ.NORM     CORR.ENERGY   TOTAL ENERGY   ENERGY CHANGE        DEN1      VAR(S)    VAR(P)  DIIS     TIME  TIME/IT
   1      1.12262493    -0.47409553  -130.31929862     0.00062562     0.01771639  0.34D-02  0.34D-02  1  1     3.73     1.91
   2      1.13370692    -0.47391425  -130.31911734     0.00018128    -0.01289998  0.11D-03  0.51D-03  2  2     5.57     1.95
   3      1.14031254    -0.47431326  -130.31951635    -0.00039901    -0.00313957  0.52D-04  0.57D-04  3  3     7.46     1.98
   4      1.14324961    -0.47432198  -130.31952507    -0.00000872    -0.00098341  0.48D-05  0.10D-04  4  4     9.32     1.98
   5      1.14444347    -0.47435440  -130.31955749    -0.00003242    -0.00025928  0.12D-05  0.17D-05  5  5    11.15     1.98
   6      1.14482174    -0.47433764  -130.31954073     0.00001676    -0.00005505  0.11D-06  0.39D-06  6  6    12.95     1.98
   7      1.14489343    -0.47433840  -130.31954149    -0.00000076     0.00000348  0.16D-07  0.92D-07  6  1    14.80     1.98
   8      1.14491616    -0.47433854  -130.31954163    -0.00000014    -0.00000119  0.31D-08  0.19D-07  6  2    16.63     1.98
   9      1.14492083    -0.47433814  -130.31954122     0.00000041     0.00000109  0.26D-08  0.23D-08  6  4    18.43     1.98
  10      1.14492343    -0.47433851  -130.31954160    -0.00000038    -0.00000080  0.51D-09  0.29D-09  6  3    20.27     1.98
  11      1.14492325    -0.47433857  -130.31954166    -0.00000006    -0.00000016  0.17D-09  0.40D-10  6  5    22.11     1.98
  12      1.14492227    -0.47433873  -130.31954181    -0.00000015     0.00000037  0.20D-10  0.12D-10  6  6    23.95     1.98
  13      1.14492137    -0.47433877  -130.31954186    -0.00000004     0.00000023  0.62D-11  0.26D-11  6  1    25.79     1.98
  14      1.14492064    -0.47433881  -130.31954189    -0.00000004     0.00000017  0.35D-12  0.58D-12  6  4    27.63     1.98
  15      1.14492041    -0.47433881  -130.31954190    -0.00000001     0.00000004  0.78D-13  0.46D-13  6  2    29.47     1.98
  16      1.14492035    -0.47433882  -130.31954190    -0.00000000     0.00000001  0.20D-13  0.81D-14  6  3    31.36     1.98
  17      1.14492032    -0.47433882  -130.31954190    -0.00000000     0.00000001  0.39D-14  0.10D-14  6  5    33.21     1.98
  18      1.14492031    -0.47433882  -130.31954191    -0.00000000     0.00000000  0.87D-15  0.25D-15  6  6    35.08     1.98
  19      1.14492031    -0.47433882  -130.31954191    -0.00000000     0.00000000  0.12D-15  0.50D-16  6  1    36.93     1.98
  20      1.14492031    -0.47433882  -130.31954190     0.00000000    -0.00000000  0.11D-16  0.75D-17  6  4    38.72     1.98
  21      1.14492032    -0.47433882  -130.31954190     0.00000000    -0.00000000  0.52D-18  0.58D-18  6  3    40.55     1.98
  22      1.14492032    -0.47433882  -130.31954190     0.00000000    -0.00000000  0.13D-18  0.80D-19  6  2    42.39     1.98
  23      1.14492032    -0.47433882  -130.31954190     0.00000000     0.00000000  0.38D-19  0.29D-19  6  5    44.25     1.98
  24      1.14492032    -0.47433882  -130.31954190    -0.00000000     0.00000000  0.37D-20  0.65D-20  6  1    46.06     1.98

 Norm of t1 vector:      0.07915637      S-energy:     0.00000000      T1 diagnostic:  0.01615773
                                                                       D1 diagnostic:  0.04429299

 Doubles amplitudes (print threshold =  0.500E-01):

         I         J         SYM. A    SYM. B    A         B      T(IJ, AB)

         6         6         2         2         1         1     -0.10729085


 Total CPU time for triples:     22.23 sec


 RESULTS
 =======

  Reference energy                   -129.845203087788
  CCSD singlet pair energy             -0.328218082419
  CCSD triplet pair energy             -0.146120734657
  CCSD correlation energy              -0.474338817075

  Triples (T) contribution             -0.022850836671
  Total correlation energy             -0.497189653746

  CCSD total energy                  -130.319541904864
  CCSD[T] energy                     -130.343532016917
  CCSD-T energy                      -130.341992751393
 !CCSD(T) total energy               -130.342392741535

 Timing summary (sec):

 STEP                 CPU(USER)    SYS     CPU(TOT)    WALL
 Transformation          1.96      0.28      2.24      2.53
 CCSD iterations        44.11      3.31     47.42     47.45
 Triples                22.23      0.40     22.63     22.62

 Program statistics:

 Available memory in ccsd:               994999756
 Min. memory needed in ccsd:               1265322
 Max. memory used in ccsd:                 1555950
 Max. memory used in cckext:               2415326 (24 integral passes)



 **********************************************************************************************************************************
 DATASETS  * FILE   NREC   LENGTH (MB)   RECORD NAMES
              1      20     1044.68       500      610      700      900      950      970     1000      129      960     1100   
                                          VAR    BASINP    GEOM    SYMINP    ZMAT    AOBASIS   BASIS     P2S    ABASIS      S 
                                         1400     1410     1200     1210     1080     1600     1650     1300     1700     1380   
                                           T        V       H0       H01     AOSYM     SMH    MOLCAS    ERIS     OPER     JKOP   

              2       4        3.27       700     1000      520     2100   
                                         GEOM     BASIS   MCVARS     RHF  

 PROGRAMS   *        TOTAL   CCSD(T)        HF       INT
 CPU TIMES  *        94.32     68.33     11.33     14.53
 REAL TIME  *       103.56 SEC
 DISK USED  *         3.13 GB      
 **********************************************************************************************************************************

 CCSD(T)/aug-cc-pVQZ energy=   -130.342392741535

        CCSD(T)         HF-SCF  
   -130.34239274   -129.84520309
 **********************************************************************************************************************************
 Molpro calculation terminated
 Variable memory released
