
 Primary working directories    : /tmp/r2666/234820.maple
 Secondary working directories  : /tmp/r2666/234820.maple
 Wavefunction directory         : /ddn/home4/r2666/wfu/
 Main file repository           : /tmp/r2666/234820.maple/

 SHA1      : d5ffa45e93fdbca01ffc919aa182cfdae0147319
 NAME      : 2015.1.35
 ARCHNAME  : linux/x86_64
 FC        : /opt/intel/composer_xe_2015.1.133/bin/intel64/ifort
 BLASLIB   : -Wl,-_start-group /opt/intel/mkl/lib/intel64/libmkl_intel_ilp64.a /opt/intel/mkl/lib/intel64/libmkl_intel_thread.a /opt/intel/mkl/lib/intel64/libmkl_core.a -Wl,-_end-group
 id        : olemiss

 Nodes     nprocs
 cn076        1

 Using customized tuning parameters: mindgm=1; mindgv=20; mindgc=4; mindgr=1; noblas=0; minvec=7
 default implementation of scratch files=df  

 ***,hno CCSD(T)/TZ-F12 QFF
 memory, 995, m;
 gthresh,energy=1.d-12,zero=1.d-22,oneint=1.d-22,twoint=1.d-22;
 gthresh,optgrad=1.d-8,optstep=1.d-8;
 nocompress;
 geomtyp=xyz
 bohr
 geometry={
 3
         63        63
 N        0.0000000000       -0.1523639759       -1.1306686812
 H        0.0000000000        1.6651666753       -1.9362432286
 O        0.0000000000        0.0289650906        1.1163223188
 }
 
 basis=avqz
   {hf,maxit=500;accu,20;}
 {ccsd(t),nocheck,maxit=250;orbital,IGNORE_ERROR;}

 Variables initialized (889), CPU time= 0.01 sec
 Commands  initialized (702), CPU time= 0.01 sec, 572 directives.
 Default parameters read. Elapsed time= 0.05 sec

 Checking input...
 Passed
1


                                         ***  PROGRAM SYSTEM MOLPRO  ***
                                       Copyright, TTI GmbH Stuttgart, 2015
                                    Version 2015.1 linked Jul  9 2018 13:16:40


 **********************************************************************************************************************************
 LABEL *   hno CCSD(T)/TZ-F12 QFF                                                        
  64 bit serial version                                                                  DATE: 08-Feb-20          TIME: 17:53:10  
 **********************************************************************************************************************************

 SHA1:             d5ffa45e93fdbca01ffc919aa182cfdae0147319
 **********************************************************************************************************************************

 THRESHOLDS:

 ZERO    =  1.00D-22  ONEINT  =  1.00D-22  TWOINT  =  1.00D-22  PREFAC  =  1.00D-14  LOCALI  =  1.00D-09  EORDER  =  1.00D-04
 ENERGY  =  1.00D-12  ETEST   =  0.00D+00  EDENS   =  0.00D+00  THRDEDEF=  1.00D-06  GRADIENT=  1.00D-02  STEP    =  1.00D-03
 ORBITAL =  1.00D-05  CIVEC   =  1.00D-05  COEFF   =  1.00D-04  PRINTCI =  5.00D-02  PUNCHCI =  9.90D+01  OPTGRAD =  3.00D-04
 OPTENERG=  1.00D-06  OPTSTEP =  3.00D-04  THRGRAD =  1.00D-10  COMPRESS=  1.00D-11  VARMIN  =  1.00D-07  VARMAX  =  1.00D-03
 THRDOUB =  0.00D+00  THRDIV  =  1.00D-05  THRRED  =  1.00D-07  THRPSP  =  1.00D+00  THRDC   =  1.00D-10  THRCS   =  1.00D-10
 THRNRM  =  1.00D-08  THREQ   =  0.00D+00  THRDE   =  1.00D+00  THRREF  =  1.00D-05  SPARFAC =  1.00D+00  THRDLP  =  1.00D-07
 THRDIA  =  1.00D-10  THRDLS  =  1.00D-07  THRGPS  =  0.00D+00  THRKEX  =  0.00D+00  THRDIS  =  2.00D-01  THRVAR  =  1.00D-10
 THRLOC  =  1.00D-06  THRGAP  =  1.00D-06  THRLOCT = -1.00D+00  THRGAPT = -1.00D+00  THRORB  =  1.00D-06  THRMLTP =  0.00D+00
 THRCPQCI=  1.00D-10  KEXTA   =  0.00D+00  THRCOARS=  0.00D+00  SYMTOL  =  1.00D-06  GRADTOL =  1.00D-06  THROVL  =  1.00D-08
 THRORTH =  1.00D-08  GRID    =  1.00D-06  GRIDMAX =  1.00D-03  DTMAX   =  0.00D+00  THROCCDE=  1.00D-01  THROCCDE=  1.00D-01



 THRESHOLDS:

 ZERO    =  1.00D-22  ONEINT  =  1.00D-22  TWOINT  =  1.00D-22  PREFAC  =  1.00D-14  LOCALI  =  1.00D-09  EORDER  =  1.00D-04
 ENERGY  =  1.00D-12  ETEST   =  0.00D+00  EDENS   =  0.00D+00  THRDEDEF=  1.00D-06  GRADIENT=  1.00D-02  STEP    =  1.00D-03
 ORBITAL =  1.00D-05  CIVEC   =  1.00D-05  COEFF   =  1.00D-04  PRINTCI =  5.00D-02  PUNCHCI =  9.90D+01  OPTGRAD =  1.00D-08
 OPTENERG=  1.00D-06  OPTSTEP =  1.00D-08  THRGRAD =  1.00D-10  COMPRESS=  1.00D-11  VARMIN  =  1.00D-07  VARMAX  =  1.00D-03
 THRDOUB =  0.00D+00  THRDIV  =  1.00D-05  THRRED  =  1.00D-07  THRPSP  =  1.00D+00  THRDC   =  1.00D-10  THRCS   =  1.00D-10
 THRNRM  =  1.00D-08  THREQ   =  0.00D+00  THRDE   =  1.00D+00  THRREF  =  1.00D-05  SPARFAC =  1.00D+00  THRDLP  =  1.00D-07
 THRDIA  =  1.00D-10  THRDLS  =  1.00D-07  THRGPS  =  0.00D+00  THRKEX  =  0.00D+00  THRDIS  =  2.00D-01  THRVAR  =  1.00D-10
 THRLOC  =  1.00D-06  THRGAP  =  1.00D-06  THRLOCT = -1.00D+00  THRGAPT = -1.00D+00  THRORB  =  1.00D-06  THRMLTP =  0.00D+00
 THRCPQCI=  1.00D-10  KEXTA   =  0.00D+00  THRCOARS=  0.00D+00  SYMTOL  =  1.00D-06  GRADTOL =  1.00D-06  THROVL  =  1.00D-08
 THRORTH =  1.00D-08  GRID    =  1.00D-06  GRIDMAX =  1.00D-03  DTMAX   =  0.00D+00  THROCCDE=  1.00D-01  THROCCDE=  1.00D-01



 Input parameters for SORTINT:

 COMPRESS =    0.000000
 C_FINAL  =    1.000000
 DEBUG    =   -1.000000
 C_SORT1  =    0.000000
 C_SEWARD =    0.000000
 THRESH   =    0.000000
 IO       =  molpro                                                          
 SPRI     =    0.000000
 SETTING GEOMTYP        =    XYZ
 ZUNIT=BOHR
 

 Variable memory set to  995000000 words,  buffer space   230000 words

 SETTING BASIS          =    AVQZ


 Recomputing integrals since basis changed


 Using spherical harmonics

 Library entry N      S aug-cc-pVQZ          selected for orbital group  1
 Library entry N      P aug-cc-pVQZ          selected for orbital group  1
 Library entry N      D aug-cc-pVQZ          selected for orbital group  1
 Library entry N      F aug-cc-pVQZ          selected for orbital group  1
 Library entry N      G aug-cc-pVQZ          selected for orbital group  1
 Library entry H      S aug-cc-pVQZ          selected for orbital group  2
 Library entry H      P aug-cc-pVQZ          selected for orbital group  2
 Library entry H      D aug-cc-pVQZ          selected for orbital group  2
 Library entry H      F aug-cc-pVQZ          selected for orbital group  2
 Library entry O      S aug-cc-pVQZ          selected for orbital group  3
 Library entry O      P aug-cc-pVQZ          selected for orbital group  3
 Library entry O      D aug-cc-pVQZ          selected for orbital group  3
 Library entry O      F aug-cc-pVQZ          selected for orbital group  3
 Library entry O      G aug-cc-pVQZ          selected for orbital group  3


 PROGRAM * SEWARD (Integral evaluation for generally contracted gaussian basis sets)     Author: Roland Lindh, 1990

 Geometry written to block  1 of record 700


 Point group  Cs  



 ATOMIC COORDINATES

 NR  ATOM    CHARGE       X              Y              Z

   1  N       7.00    0.000000000   -0.152363976   -1.130668681
   2  H       1.00    0.000000000    1.665166675   -1.936243229
   3  O       8.00    0.000000000    0.028965091    1.116322319

 Bond lengths in Bohr (Angstrom)

 1-2  1.988056342  1-3  2.254295629
     ( 1.052034110)     ( 1.192921874)

 Bond angles

  2-1-3  109.29041350

 NUCLEAR CHARGE:                   16
 NUMBER OF PRIMITIVE AOS:         293
 NUMBER OF SYMMETRY AOS:          234
 NUMBER OF CONTRACTIONS:          206   ( 130A'  +  76A"  )
 NUMBER OF CORE ORBITALS:           2   (   2A'  +   0A"  )
 NUMBER OF VALENCE ORBITALS:        9   (   7A'  +   2A"  )


 NUCLEAR REPULSION ENERGY   30.67234163

 Eigenvalues of metric

         1 0.581E-04 0.141E-03 0.312E-03 0.431E-03 0.559E-03 0.670E-03 0.987E-03 0.106E-02
         2 0.784E-03 0.162E-02 0.474E-02 0.886E-02 0.101E-01 0.117E-01 0.122E-01 0.182E-01


 Contracted 2-electron integrals neglected if value below      1.0D-22

      109945074. INTEGRALS WRITTEN OUT IN   26849 BLOCKS ON RECORD 1290 OF FILE 1


 NUMBER OF SORTED TWO-ELECTRON INTEGRALS:  115283741.     BUFFER LENGTH:  32768
 NUMBER OF SEGMENTS:   8  SEGMENT LENGTH:   15998004      RECORD LENGTH: 524288

 Memory used in sort:      16.56 MW

 SORT1 READ   109945074. AND WROTE   110865241. INTEGRALS IN    322 RECORDS. CPU TIME:     1.85 SEC, REAL TIME:     2.59 SEC
 SORT2 READ   110865241. AND WROTE   115283741. INTEGRALS IN      8 RECORDS. CPU TIME:     1.31 SEC, REAL TIME:     1.80 SEC

 FILE SIZES:   FILE 1:  1780.6 MBYTE,  FILE 4:  1350.6 MBYTE,   TOTAL:   3131.2 MBYTE

 OPERATOR DM      FOR CENTER  0  COORDINATES:    0.000000    0.000000    0.000000


 **********************************************************************************************************************************
 DATASETS  * FILE   NREC   LENGTH (MB)   RECORD NAMES
              1      19      944.14       500      610      700      900      950      970     1000      129      960     1100   
                                          VAR    BASINP    GEOM    SYMINP    ZMAT    AOBASIS   BASIS     P2S    ABASIS      S 
                                         1400     1410     1200     1210     1080     1600     1650     1300     1700   
                                           T        V       H0       H01     AOSYM     SMH    MOLCAS    ERIS     OPER   

 PROGRAMS   *        TOTAL       INT
 CPU TIMES  *        10.55     10.46
 REAL TIME  *        13.39 SEC
 DISK USED  *         3.13 GB      
 **********************************************************************************************************************************


 PROGRAM * RHF-SCF (CLOSED SHELL)       Authors: W. Meyer, H.-J. Werner


 NUMBER OF ELECTRONS:       8+    8-
 CONVERGENCE THRESHOLDS:    1.00E-10 (Density)    1.00E-13 (Energy)
 MAX. NUMBER OF ITERATIONS:      500
 INTERPOLATION TYPE:            DIIS
 INTERPOLATION STEPS:              2 (START)      1 (STEP)
 LEVEL SHIFTS:                  0.00 (CLOSED)  0.00 (OPEN) 



 Orbital guess generated from atomic densities. Full valence occupancy:    9   2

 Molecular orbital dump at record        2100.2

 Initial occupancy:   7   1

 ITERATION    DDIFF          GRAD             ENERGY        2-EL.EN.            DIPOLE MOMENTS         DIIS   ORB.
    1      0.000D+00      0.000D+00      -129.80067932    154.499701    0.00000    0.59675   -0.98031    0    start
    2      0.000D+00      0.797D-02      -129.82831266    155.764900    0.00000    0.60011   -0.21796    1    diag
    3      0.632D-02      0.587D-02      -129.84875501    155.853196    0.00000    0.55349   -0.57502    2    diag
    4      0.319D-02      0.956D-03      -129.84952699    155.579405    0.00000    0.56071   -0.51602    3    diag
    5      0.595D-03      0.308D-03      -129.84964697    155.671944    0.00000    0.56613   -0.51899    4    diag
    6      0.245D-03      0.889D-04      -129.84966597    155.656004    0.00000    0.56651   -0.51510    5    diag
    7      0.935D-04      0.437D-04      -129.84967129    155.658900    0.00000    0.56780   -0.51272    6    diag
    8      0.637D-04      0.146D-04      -129.84967183    155.658265    0.00000    0.56785   -0.51181    7    diag
    9      0.229D-04      0.276D-05      -129.84967185    155.658159    0.00000    0.56782   -0.51161    8    diag
   10      0.442D-05      0.652D-06      -129.84967185    155.658141    0.00000    0.56778   -0.51158    9    orth
   11      0.944D-06      0.133D-06      -129.84967185    155.658137    0.00000    0.56778   -0.51158    9    diag
   12      0.182D-06      0.265D-07      -129.84967185    155.658137    0.00000    0.56777   -0.51158    9    diag
   13      0.389D-07      0.668D-08      -129.84967185    155.658137    0.00000    0.56777   -0.51158    9    diag
   14      0.102D-07      0.135D-08      -129.84967185    155.658137    0.00000    0.56777   -0.51158    9    diag
   15      0.194D-08      0.398D-09      -129.84967185    155.658137    0.00000    0.56777   -0.51158    9    diag
   16      0.573D-09      0.125D-09      -129.84967185    155.658137    0.00000    0.56777   -0.51158    9    diag
   17      0.116D-09      0.341D-10      -129.84967185    155.658137    0.00000    0.56777   -0.51158    9    diag
   18      0.323D-10      0.114D-10      -129.84967185    155.658137    0.00000    0.56777   -0.51158    0    orth

 Final occupancy:   7   1

 !RHF STATE 1.1 Energy               -129.849671849803
 Nuclear energy                        30.67234163
 One-electron energy                 -238.35108202
 Two-electron energy                   77.82906855
 Virial quotient                       -1.00131176
 !RHF STATE 1.1 Dipole moment           0.00000000     0.56777349    -0.51157567
 Dipole moment /Debye                   0.00000000     1.44304175    -1.30021049

 Orbital energies:

         1.1          2.1          3.1          4.1          5.1          6.1          7.1          8.1          9.1
    -20.652525   -15.709864    -1.541552    -0.991708    -0.751804    -0.670717    -0.425084     0.026470     0.079488

         1.2          2.2          3.2
     -0.603218     0.066848     0.111172

 HOMO      7.1    -0.425084 =     -11.5671eV
 LUMO      8.1     0.026470 =       0.7203eV
 LUMO-HOMO         0.451554 =      12.2874eV


 **********************************************************************************************************************************
 DATASETS  * FILE   NREC   LENGTH (MB)   RECORD NAMES
              1      19      944.14       500      610      700      900      950      970     1000      129      960     1100   
                                          VAR    BASINP    GEOM    SYMINP    ZMAT    AOBASIS   BASIS     P2S    ABASIS      S 
                                         1400     1410     1200     1210     1080     1600     1650     1300     1700   
                                           T        V       H0       H01     AOSYM     SMH    MOLCAS    ERIS     OPER   

              2       4        3.27       700     1000      520     2100   
                                         GEOM     BASIS   MCVARS     RHF  

 PROGRAMS   *        TOTAL        HF       INT
 CPU TIMES  *        19.08      8.53     10.46
 REAL TIME  *        24.34 SEC
 DISK USED  *         3.13 GB      
 **********************************************************************************************************************************


 PROGRAM * CCSD (Closed-shell coupled cluster)     Authors: C. Hampel, H.-J. Werner, 1991, M. Deegan, P.J. Knowles, 1992


 Convergence thresholds:  THRVAR = 1.00D-08  THRDEN = 1.00D-12

 CCSD(T)     terms to be evaluated (factor= 1.000)


 Number of core orbitals:           2 (   2   0 )
 Number of closed-shell orbitals:   6 (   5   1 )
 Number of external orbitals:     198 ( 123  75 )

 Molecular orbitals read from record     2100.2  Type=RHF/CANONICAL (state 1.1)

 Number of N-1 electron functions:               6
 Number of N-2 electron functions:              21
 Number of singly external CSFs:               690
 Number of doubly external CSFs:            362646
 Total number of CSFs:                      363337

 Length of J-op  integral file:               0.00 MB
 Length of K-op  integral file:               1.60 MB
 Length of 3-ext integral record:             0.00 MB

 Memory could be reduced to 34.67 Mwords without degradation in triples

 Integral transformation finished. Total CPU:   1.39 sec, npass=  1  Memory used:   9.53 MW

 Reference energy:                   -129.84967185

 MP2 singlet pair energy:              -0.30009803
 MP2 triplet pair energy:              -0.16943052
 MP2 correlation energy:               -0.46952855
 MP2 total energy:                   -130.31920040

 SCS-MP2 correlation energy:           -0.46554107   (PS=  1.200000  PT=  0.333333)
 SCS-MP2 total energy:               -130.31521292

 ITER.      SQ.NORM     CORR.ENERGY   TOTAL ENERGY   ENERGY CHANGE        DEN1      VAR(S)    VAR(P)  DIIS     TIME  TIME/IT
   1      1.11946459    -0.47014209  -130.31981394    -0.00061355     0.01519248  0.30D-02  0.30D-02  1  1     2.51     1.28
   2      1.12981865    -0.47021591  -130.31988776    -0.00007382    -0.01213865  0.96D-04  0.47D-03  2  2     3.68     1.31
   3      1.13585470    -0.47057416  -130.32024601    -0.00035824    -0.00295719  0.46D-04  0.50D-04  3  3     4.88     1.32
   4      1.13845465    -0.47057983  -130.32025168    -0.00000568    -0.00089447  0.40D-05  0.91D-05  4  4     6.06     1.33
   5      1.13947042    -0.47060688  -130.32027873    -0.00002704    -0.00022216  0.11D-05  0.16D-05  5  5     7.25     1.33
   6      1.13980670    -0.47059370  -130.32026555     0.00001318    -0.00004760  0.11D-06  0.40D-06  6  6     8.49     1.34
   7      1.13988152    -0.47059395  -130.32026580    -0.00000025     0.00000168  0.18D-07  0.87D-07  6  1     9.70     1.35
   8      1.13990422    -0.47059445  -130.32026630    -0.00000050    -0.00000107  0.38D-08  0.17D-07  6  2    10.87     1.35
   9      1.13991259    -0.47059396  -130.32026581     0.00000049    -0.00000042  0.22D-08  0.16D-08  6  3    12.05     1.35
  10      1.13990817    -0.47059468  -130.32026653    -0.00000072     0.00000146  0.30D-09  0.25D-09  6  5    13.25     1.35
  11      1.13990970    -0.47059465  -130.32026650     0.00000003    -0.00000026  0.87D-10  0.22D-10  6  4    14.43     1.35
  12      1.13990929    -0.47059471  -130.32026656    -0.00000006     0.00000003  0.17D-10  0.56D-11  6  6    15.61     1.35
  13      1.13990911    -0.47059472  -130.32026657    -0.00000000    -0.00000003  0.31D-11  0.79D-12  6  1    16.79     1.34
  14      1.13990885    -0.47059472  -130.32026657    -0.00000001     0.00000004  0.45D-12  0.15D-12  6  3    18.00     1.34
  15      1.13990878    -0.47059473  -130.32026658    -0.00000000     0.00000001  0.11D-12  0.21D-13  6  2    19.15     1.34
  16      1.13990877    -0.47059473  -130.32026658     0.00000000     0.00000000  0.27D-13  0.91D-14  6  4    20.30     1.34
  17      1.13990877    -0.47059473  -130.32026658    -0.00000000    -0.00000000  0.13D-14  0.10D-14  6  5    21.48     1.35
  18      1.13990878    -0.47059473  -130.32026658     0.00000000    -0.00000000  0.23D-15  0.23D-15  6  6    22.73     1.35
  19      1.13990878    -0.47059473  -130.32026658     0.00000000    -0.00000000  0.32D-16  0.29D-16  6  5    23.96     1.35
  20      1.13990878    -0.47059473  -130.32026658     0.00000000    -0.00000000  0.61D-17  0.37D-17  6  1    25.15     1.35
  21      1.13990878    -0.47059473  -130.32026658    -0.00000000     0.00000000  0.81D-18  0.53D-18  6  3    26.35     1.36
  22      1.13990878    -0.47059473  -130.32026658    -0.00000000     0.00000000  0.12D-18  0.57D-19  6  2    27.55     1.36
  23      1.13990878    -0.47059473  -130.32026658    -0.00000000     0.00000000  0.25D-19  0.12D-19  6  4    28.77     1.36
  24      1.13990878    -0.47059473  -130.32026658    -0.00000000     0.00000000  0.51D-20  0.13D-20  6  1    30.01     1.36
  25      1.13990878    -0.47059473  -130.32026658     0.00000000    -0.00000000  0.16D-20  0.46D-21  6  6    31.25     1.36

 Norm of t1 vector:      0.07466363      S-energy:    -0.00000000      T1 diagnostic:  0.01524065
                                                                       D1 diagnostic:  0.04032190

 Doubles amplitudes (print threshold =  0.500E-01):

         I         J         SYM. A    SYM. B    A         B      T(IJ, AB)

         6         6         2         2         1         1     -0.09019698


 Total CPU time for triples:     15.19 sec


 RESULTS
 =======

  Reference energy                   -129.849671849803
  CCSD singlet pair energy             -0.324974085266
  CCSD triplet pair energy             -0.145620642436
  CCSD correlation energy              -0.470594727702

  Triples (T) contribution             -0.021906451780
  Total correlation energy             -0.492501179482

  CCSD total energy                  -130.320266577505
  CCSD[T] energy                     -130.343188763488
  CCSD-T energy                      -130.341801939976
 !CCSD(T) total energy               -130.342173029285

 Timing summary (sec):

 STEP                 CPU(USER)    SYS     CPU(TOT)    WALL
 Transformation          1.41      0.27      1.68      1.68
 CCSD iterations        29.84      4.19     34.03     34.04
 Triples                15.19      0.41     15.60     15.61

 Program statistics:

 Available memory in ccsd:               994999756
 Min. memory needed in ccsd:               1265322
 Max. memory used in ccsd:                 1555950
 Max. memory used in cckext:               2415326 (25 integral passes)



 **********************************************************************************************************************************
 DATASETS  * FILE   NREC   LENGTH (MB)   RECORD NAMES
              1      20     1044.69       500      610      700      900      950      970     1000      129      960     1100   
                                          VAR    BASINP    GEOM    SYMINP    ZMAT    AOBASIS   BASIS     P2S    ABASIS      S 
                                         1400     1410     1200     1210     1080     1600     1650     1300     1700     1380   
                                           T        V       H0       H01     AOSYM     SMH    MOLCAS    ERIS     OPER     JKOP   

              2       4        3.27       700     1000      520     2100   
                                         GEOM     BASIS   MCVARS     RHF  

 PROGRAMS   *        TOTAL   CCSD(T)        HF       INT
 CPU TIMES  *        65.54     46.46      8.53     10.46
 REAL TIME  *        75.70 SEC
 DISK USED  *         3.13 GB      
 **********************************************************************************************************************************

 CCSD(T)/aug-cc-pVQZ energy=   -130.342173029285

        CCSD(T)         HF-SCF  
   -130.34217303   -129.84967185
 **********************************************************************************************************************************
 Molpro calculation terminated
 Variable memory released
