
 Primary working directories    : /tmp/r2666/234867.maple
 Secondary working directories  : /tmp/r2666/234867.maple
 Wavefunction directory         : /ddn/home4/r2666/wfu/
 Main file repository           : /tmp/r2666/234867.maple/

 SHA1      : d5ffa45e93fdbca01ffc919aa182cfdae0147319
 NAME      : 2015.1.35
 ARCHNAME  : linux/x86_64
 FC        : /opt/intel/composer_xe_2015.1.133/bin/intel64/ifort
 BLASLIB   : -Wl,-_start-group /opt/intel/mkl/lib/intel64/libmkl_intel_ilp64.a /opt/intel/mkl/lib/intel64/libmkl_intel_thread.a /opt/intel/mkl/lib/intel64/libmkl_core.a -Wl,-_end-group
 id        : olemiss

 Nodes     nprocs
 cn089        1

 Using customized tuning parameters: mindgm=1; mindgv=20; mindgc=4; mindgr=1; noblas=0; minvec=7
 default implementation of scratch files=df  

 ***,hno CCSD(T)/TZ-F12 QFF
 memory, 995, m;
 gthresh,energy=1.d-12,zero=1.d-22,oneint=1.d-22,twoint=1.d-22;
 gthresh,optgrad=1.d-8,optstep=1.d-8;
 nocompress;
 geomtyp=xyz
 bohr
 geometry={
 3
        110       110
 N        0.0000000000       -0.1628622964       -1.1530925039
 H        0.0000000000        1.6733011401       -1.9395592532
 O        0.0000000000        0.0313289463        1.1420621661
 }
 
 basis=avqz
   {hf,maxit=500;accu,20;}
 {ccsd(t),nocheck,maxit=250;orbital,IGNORE_ERROR;}

 Variables initialized (889), CPU time= 0.01 sec
 Commands  initialized (702), CPU time= 0.01 sec, 572 directives.
 Default parameters read. Elapsed time= 0.05 sec

 Checking input...
 Passed
1


                                         ***  PROGRAM SYSTEM MOLPRO  ***
                                       Copyright, TTI GmbH Stuttgart, 2015
                                    Version 2015.1 linked Jul  9 2018 13:16:40


 **********************************************************************************************************************************
 LABEL *   hno CCSD(T)/TZ-F12 QFF                                                        
  64 bit serial version                                                                  DATE: 08-Feb-20          TIME: 17:55:02  
 **********************************************************************************************************************************

 SHA1:             d5ffa45e93fdbca01ffc919aa182cfdae0147319
 **********************************************************************************************************************************

 THRESHOLDS:

 ZERO    =  1.00D-22  ONEINT  =  1.00D-22  TWOINT  =  1.00D-22  PREFAC  =  1.00D-14  LOCALI  =  1.00D-09  EORDER  =  1.00D-04
 ENERGY  =  1.00D-12  ETEST   =  0.00D+00  EDENS   =  0.00D+00  THRDEDEF=  1.00D-06  GRADIENT=  1.00D-02  STEP    =  1.00D-03
 ORBITAL =  1.00D-05  CIVEC   =  1.00D-05  COEFF   =  1.00D-04  PRINTCI =  5.00D-02  PUNCHCI =  9.90D+01  OPTGRAD =  3.00D-04
 OPTENERG=  1.00D-06  OPTSTEP =  3.00D-04  THRGRAD =  1.00D-10  COMPRESS=  1.00D-11  VARMIN  =  1.00D-07  VARMAX  =  1.00D-03
 THRDOUB =  0.00D+00  THRDIV  =  1.00D-05  THRRED  =  1.00D-07  THRPSP  =  1.00D+00  THRDC   =  1.00D-10  THRCS   =  1.00D-10
 THRNRM  =  1.00D-08  THREQ   =  0.00D+00  THRDE   =  1.00D+00  THRREF  =  1.00D-05  SPARFAC =  1.00D+00  THRDLP  =  1.00D-07
 THRDIA  =  1.00D-10  THRDLS  =  1.00D-07  THRGPS  =  0.00D+00  THRKEX  =  0.00D+00  THRDIS  =  2.00D-01  THRVAR  =  1.00D-10
 THRLOC  =  1.00D-06  THRGAP  =  1.00D-06  THRLOCT = -1.00D+00  THRGAPT = -1.00D+00  THRORB  =  1.00D-06  THRMLTP =  0.00D+00
 THRCPQCI=  1.00D-10  KEXTA   =  0.00D+00  THRCOARS=  0.00D+00  SYMTOL  =  1.00D-06  GRADTOL =  1.00D-06  THROVL  =  1.00D-08
 THRORTH =  1.00D-08  GRID    =  1.00D-06  GRIDMAX =  1.00D-03  DTMAX   =  0.00D+00  THROCCDE=  1.00D-01  THROCCDE=  1.00D-01



 THRESHOLDS:

 ZERO    =  1.00D-22  ONEINT  =  1.00D-22  TWOINT  =  1.00D-22  PREFAC  =  1.00D-14  LOCALI  =  1.00D-09  EORDER  =  1.00D-04
 ENERGY  =  1.00D-12  ETEST   =  0.00D+00  EDENS   =  0.00D+00  THRDEDEF=  1.00D-06  GRADIENT=  1.00D-02  STEP    =  1.00D-03
 ORBITAL =  1.00D-05  CIVEC   =  1.00D-05  COEFF   =  1.00D-04  PRINTCI =  5.00D-02  PUNCHCI =  9.90D+01  OPTGRAD =  1.00D-08
 OPTENERG=  1.00D-06  OPTSTEP =  1.00D-08  THRGRAD =  1.00D-10  COMPRESS=  1.00D-11  VARMIN  =  1.00D-07  VARMAX  =  1.00D-03
 THRDOUB =  0.00D+00  THRDIV  =  1.00D-05  THRRED  =  1.00D-07  THRPSP  =  1.00D+00  THRDC   =  1.00D-10  THRCS   =  1.00D-10
 THRNRM  =  1.00D-08  THREQ   =  0.00D+00  THRDE   =  1.00D+00  THRREF  =  1.00D-05  SPARFAC =  1.00D+00  THRDLP  =  1.00D-07
 THRDIA  =  1.00D-10  THRDLS  =  1.00D-07  THRGPS  =  0.00D+00  THRKEX  =  0.00D+00  THRDIS  =  2.00D-01  THRVAR  =  1.00D-10
 THRLOC  =  1.00D-06  THRGAP  =  1.00D-06  THRLOCT = -1.00D+00  THRGAPT = -1.00D+00  THRORB  =  1.00D-06  THRMLTP =  0.00D+00
 THRCPQCI=  1.00D-10  KEXTA   =  0.00D+00  THRCOARS=  0.00D+00  SYMTOL  =  1.00D-06  GRADTOL =  1.00D-06  THROVL  =  1.00D-08
 THRORTH =  1.00D-08  GRID    =  1.00D-06  GRIDMAX =  1.00D-03  DTMAX   =  0.00D+00  THROCCDE=  1.00D-01  THROCCDE=  1.00D-01



 Input parameters for SORTINT:

 COMPRESS =    0.000000
 C_FINAL  =    1.000000
 DEBUG    =   -1.000000
 C_SORT1  =    0.000000
 C_SEWARD =    0.000000
 THRESH   =    0.000000
 IO       =  molpro                                                          
 SPRI     =    0.000000
 SETTING GEOMTYP        =    XYZ
 ZUNIT=BOHR
 

 Variable memory set to  995000000 words,  buffer space   230000 words

 SETTING BASIS          =    AVQZ


 Recomputing integrals since basis changed


 Using spherical harmonics

 Library entry N      S aug-cc-pVQZ          selected for orbital group  1
 Library entry N      P aug-cc-pVQZ          selected for orbital group  1
 Library entry N      D aug-cc-pVQZ          selected for orbital group  1
 Library entry N      F aug-cc-pVQZ          selected for orbital group  1
 Library entry N      G aug-cc-pVQZ          selected for orbital group  1
 Library entry H      S aug-cc-pVQZ          selected for orbital group  2
 Library entry H      P aug-cc-pVQZ          selected for orbital group  2
 Library entry H      D aug-cc-pVQZ          selected for orbital group  2
 Library entry H      F aug-cc-pVQZ          selected for orbital group  2
 Library entry O      S aug-cc-pVQZ          selected for orbital group  3
 Library entry O      P aug-cc-pVQZ          selected for orbital group  3
 Library entry O      D aug-cc-pVQZ          selected for orbital group  3
 Library entry O      F aug-cc-pVQZ          selected for orbital group  3
 Library entry O      G aug-cc-pVQZ          selected for orbital group  3


 PROGRAM * SEWARD (Integral evaluation for generally contracted gaussian basis sets)     Author: Roland Lindh, 1990

 Geometry written to block  1 of record 700


 Point group  Cs  



 ATOMIC COORDINATES

 NR  ATOM    CHARGE       X              Y              Z

   1  N       7.00    0.000000000   -0.162862296   -1.153092504
   2  H       1.00    0.000000000    1.673301140   -1.939559253
   3  O       8.00    0.000000000    0.031328946    1.142062166

 Bond lengths in Bohr (Angstrom)

 1-2  1.997504972  1-3  2.303355204
     ( 1.057034110)     ( 1.218883083)

 Bond angles

  2-1-3  108.35021866

 NUCLEAR CHARGE:                   16
 NUMBER OF PRIMITIVE AOS:         293
 NUMBER OF SYMMETRY AOS:          234
 NUMBER OF CONTRACTIONS:          206   ( 130A'  +  76A"  )
 NUMBER OF CORE ORBITALS:           2   (   2A'  +   0A"  )
 NUMBER OF VALENCE ORBITALS:        9   (   7A'  +   2A"  )


 NUCLEAR REPULSION ENERGY   30.10783247

 Eigenvalues of metric

         1 0.608E-04 0.148E-03 0.322E-03 0.437E-03 0.606E-03 0.693E-03 0.103E-02 0.110E-02
         2 0.853E-03 0.166E-02 0.508E-02 0.900E-02 0.102E-01 0.126E-01 0.129E-01 0.194E-01


 Contracted 2-electron integrals neglected if value below      1.0D-22

      109945081. INTEGRALS WRITTEN OUT IN   26849 BLOCKS ON RECORD 1290 OF FILE 1


 NUMBER OF SORTED TWO-ELECTRON INTEGRALS:  115283741.     BUFFER LENGTH:  32768
 NUMBER OF SEGMENTS:   8  SEGMENT LENGTH:   15998004      RECORD LENGTH: 524288

 Memory used in sort:      16.56 MW

 SORT1 READ   109945081. AND WROTE   110865248. INTEGRALS IN    322 RECORDS. CPU TIME:     1.79 SEC, REAL TIME:     2.64 SEC
 SORT2 READ   110865248. AND WROTE   115283741. INTEGRALS IN      8 RECORDS. CPU TIME:     1.31 SEC, REAL TIME:     1.82 SEC

 FILE SIZES:   FILE 1:  1780.6 MBYTE,  FILE 4:  1350.6 MBYTE,   TOTAL:   3131.2 MBYTE

 OPERATOR DM      FOR CENTER  0  COORDINATES:    0.000000    0.000000    0.000000


 **********************************************************************************************************************************
 DATASETS  * FILE   NREC   LENGTH (MB)   RECORD NAMES
              1      19      944.14       500      610      700      900      950      970     1000      129      960     1100   
                                          VAR    BASINP    GEOM    SYMINP    ZMAT    AOBASIS   BASIS     P2S    ABASIS      S 
                                         1400     1410     1200     1210     1080     1600     1650     1300     1700   
                                           T        V       H0       H01     AOSYM     SMH    MOLCAS    ERIS     OPER   

 PROGRAMS   *        TOTAL       INT
 CPU TIMES  *        10.87     10.78
 REAL TIME  *        13.78 SEC
 DISK USED  *         3.13 GB      
 **********************************************************************************************************************************


 PROGRAM * RHF-SCF (CLOSED SHELL)       Authors: W. Meyer, H.-J. Werner


 NUMBER OF ELECTRONS:       8+    8-
 CONVERGENCE THRESHOLDS:    1.00E-10 (Density)    1.00E-13 (Energy)
 MAX. NUMBER OF ITERATIONS:      500
 INTERPOLATION TYPE:            DIIS
 INTERPOLATION STEPS:              2 (START)      1 (STEP)
 LEVEL SHIFTS:                  0.00 (CLOSED)  0.00 (OPEN) 



 Orbital guess generated from atomic densities. Full valence occupancy:    9   2

 Molecular orbital dump at record        2100.2

 Initial occupancy:   7   1

 ITERATION    DDIFF          GRAD             ENERGY        2-EL.EN.            DIPOLE MOMENTS         DIIS   ORB.
    1      0.000D+00      0.000D+00      -129.79291405    153.489250    0.00000    0.59750   -1.06314    0    start
    2      0.000D+00      0.823D-02      -129.81977841    154.705353    0.00000    0.61670   -0.20055    1    diag
    3      0.671D-02      0.645D-02      -129.84481396    154.852016    0.00000    0.56053   -0.61026    2    diag
    4      0.345D-02      0.985D-03      -129.84564406    154.557309    0.00000    0.56754   -0.54703    3    diag
    5      0.615D-03      0.322D-03      -129.84577596    154.652438    0.00000    0.57295   -0.54946    4    diag
    6      0.258D-03      0.933D-04      -129.84579712    154.636038    0.00000    0.57319   -0.54506    5    diag
    7      0.989D-04      0.469D-04      -129.84580343    154.638722    0.00000    0.57441   -0.54229    6    diag
    8      0.686D-04      0.170D-04      -129.84580421    154.637981    0.00000    0.57445   -0.54117    7    diag
    9      0.280D-04      0.331D-05      -129.84580425    154.637852    0.00000    0.57441   -0.54093    8    diag
   10      0.573D-05      0.738D-06      -129.84580425    154.637833    0.00000    0.57437   -0.54090    9    orth
   11      0.107D-05      0.146D-06      -129.84580425    154.637829    0.00000    0.57436   -0.54090    9    diag
   12      0.191D-06      0.302D-07      -129.84580425    154.637829    0.00000    0.57436   -0.54090    9    diag
   13      0.410D-07      0.804D-08      -129.84580425    154.637829    0.00000    0.57436   -0.54090    9    diag
   14      0.116D-07      0.158D-08      -129.84580425    154.637829    0.00000    0.57436   -0.54090    9    diag
   15      0.209D-08      0.447D-09      -129.84580425    154.637829    0.00000    0.57436   -0.54090    9    diag
   16      0.631D-09      0.130D-09      -129.84580425    154.637829    0.00000    0.57436   -0.54090    9    diag
   17      0.112D-09      0.329D-10      -129.84580425    154.637829    0.00000    0.57436   -0.54090    9    diag
   18      0.293D-10      0.108D-10      -129.84580425    154.637829    0.00000    0.57436   -0.54090    0    orth

 Final occupancy:   7   1

 !RHF STATE 1.1 Energy               -129.845804247755
 Nuclear energy                        30.10783247
 One-electron energy                 -237.27255115
 Two-electron energy                   77.31891443
 Virial quotient                       -1.00212823
 !RHF STATE 1.1 Dipole moment           0.00000000     0.57436130    -0.54089808
 Dipole moment /Debye                   0.00000000     1.45978520    -1.37473573

 Orbital energies:

         1.1          2.1          3.1          4.1          5.1          6.1          7.1          8.1          9.1
    -20.654849   -15.715166    -1.520610    -0.995922    -0.743349    -0.663020    -0.433447     0.026200     0.079440

         1.2          2.2          3.2
     -0.590998     0.060478     0.110081

 HOMO      7.1    -0.433447 =     -11.7947eV
 LUMO      8.1     0.026200 =       0.7129eV
 LUMO-HOMO         0.459647 =      12.5076eV


 **********************************************************************************************************************************
 DATASETS  * FILE   NREC   LENGTH (MB)   RECORD NAMES
              1      19      944.14       500      610      700      900      950      970     1000      129      960     1100   
                                          VAR    BASINP    GEOM    SYMINP    ZMAT    AOBASIS   BASIS     P2S    ABASIS      S 
                                         1400     1410     1200     1210     1080     1600     1650     1300     1700   
                                           T        V       H0       H01     AOSYM     SMH    MOLCAS    ERIS     OPER   

              2       4        3.27       700     1000      520     2100   
                                         GEOM     BASIS   MCVARS     RHF  

 PROGRAMS   *        TOTAL        HF       INT
 CPU TIMES  *        20.07      9.20     10.78
 REAL TIME  *        24.98 SEC
 DISK USED  *         3.13 GB      
 **********************************************************************************************************************************


 PROGRAM * CCSD (Closed-shell coupled cluster)     Authors: C. Hampel, H.-J. Werner, 1991, M. Deegan, P.J. Knowles, 1992


 Convergence thresholds:  THRVAR = 1.00D-08  THRDEN = 1.00D-12

 CCSD(T)     terms to be evaluated (factor= 1.000)


 Number of core orbitals:           2 (   2   0 )
 Number of closed-shell orbitals:   6 (   5   1 )
 Number of external orbitals:     198 ( 123  75 )

 Molecular orbitals read from record     2100.2  Type=RHF/CANONICAL (state 1.1)

 Number of N-1 electron functions:               6
 Number of N-2 electron functions:              21
 Number of singly external CSFs:               690
 Number of doubly external CSFs:            362646
 Total number of CSFs:                      363337

 Length of J-op  integral file:               0.00 MB
 Length of K-op  integral file:               1.60 MB
 Length of 3-ext integral record:             0.00 MB

 Memory could be reduced to 34.67 Mwords without degradation in triples

 Integral transformation finished. Total CPU:   1.49 sec, npass=  1  Memory used:   9.53 MW

 Reference energy:                   -129.84580425

 MP2 singlet pair energy:              -0.30285578
 MP2 triplet pair energy:              -0.17126019
 MP2 correlation energy:               -0.47411597
 MP2 total energy:                   -130.31992022

 SCS-MP2 correlation energy:           -0.46998883   (PS=  1.200000  PT=  0.333333)
 SCS-MP2 total energy:               -130.31579308

 ITER.      SQ.NORM     CORR.ENERGY   TOTAL ENERGY   ENERGY CHANGE        DEN1      VAR(S)    VAR(P)  DIIS     TIME  TIME/IT
   1      1.12238700    -0.47369282  -130.31949707     0.00042315     0.01737210  0.33D-02  0.33D-02  1  1     2.73     1.34
   2      1.13340269    -0.47355058  -130.31935483     0.00014224    -0.01281759  0.11D-03  0.51D-03  2  2     3.98     1.38
   3      1.13996745    -0.47394968  -130.31975392    -0.00039909    -0.00312720  0.53D-04  0.56D-04  3  3     5.20     1.39
   4      1.14286686    -0.47395615  -130.31976039    -0.00000647    -0.00097559  0.48D-05  0.10D-04  4  4     6.45     1.39
   5      1.14404943    -0.47398824  -130.31979249    -0.00003209    -0.00025689  0.12D-05  0.17D-05  5  5     7.63     1.39
   6      1.14442669    -0.47397201  -130.31977625     0.00001623    -0.00005441  0.12D-06  0.40D-06  6  6     8.87     1.39
   7      1.14450153    -0.47397248  -130.31977673    -0.00000048     0.00000293  0.18D-07  0.92D-07  6  1    10.12     1.39
   8      1.14452507    -0.47397270  -130.31977695    -0.00000022    -0.00000131  0.33D-08  0.19D-07  6  2    11.35     1.39
   9      1.14453033    -0.47397226  -130.31977650     0.00000044     0.00000108  0.27D-08  0.23D-08  6  4    12.61     1.39
  10      1.14453299    -0.47397265  -130.31977689    -0.00000039    -0.00000081  0.51D-09  0.28D-09  6  3    13.86     1.40
  11      1.14453276    -0.47397271  -130.31977696    -0.00000006    -0.00000014  0.17D-09  0.40D-10  6  5    15.12     1.40
  12      1.14453175    -0.47397286  -130.31977711    -0.00000015     0.00000038  0.21D-10  0.12D-10  6  6    16.36     1.40
  13      1.14453083    -0.47397291  -130.31977715    -0.00000004     0.00000023  0.65D-11  0.26D-11  6  1    17.67     1.40
  14      1.14453010    -0.47397294  -130.31977719    -0.00000004     0.00000017  0.39D-12  0.55D-12  6  4    18.98     1.41
  15      1.14452987    -0.47397295  -130.31977720    -0.00000001     0.00000004  0.91D-13  0.43D-13  6  2    20.26     1.41
  16      1.14452981    -0.47397295  -130.31977720    -0.00000000     0.00000001  0.24D-13  0.80D-14  6  3    21.55     1.41
  17      1.14452978    -0.47397295  -130.31977720    -0.00000000     0.00000001  0.44D-14  0.11D-14  6  5    22.82     1.41
  18      1.14452978    -0.47397295  -130.31977720    -0.00000000     0.00000000  0.94D-15  0.28D-15  6  6    24.07     1.42
  19      1.14452978    -0.47397295  -130.31977720    -0.00000000     0.00000000  0.12D-15  0.58D-16  6  1    25.35     1.42
  20      1.14452978    -0.47397295  -130.31977720     0.00000000    -0.00000000  0.11D-16  0.84D-17  6  4    26.61     1.42
  21      1.14452978    -0.47397295  -130.31977720     0.00000000    -0.00000000  0.57D-18  0.69D-18  6  3    27.90     1.42
  22      1.14452978    -0.47397295  -130.31977720     0.00000000    -0.00000000  0.15D-18  0.14D-18  6  2    29.26     1.42
  23      1.14452978    -0.47397295  -130.31977720     0.00000000     0.00000000  0.42D-19  0.52D-19  6  5    30.52     1.42
  24      1.14452978    -0.47397295  -130.31977720    -0.00000000     0.00000000  0.35D-20  0.12D-19  6  1    31.79     1.42

 Norm of t1 vector:      0.07888200      S-energy:    -0.00000000      T1 diagnostic:  0.01610172
                                                                       D1 diagnostic:  0.04366184

 Doubles amplitudes (print threshold =  0.500E-01):

         I         J         SYM. A    SYM. B    A         B      T(IJ, AB)

         6         6         2         2         1         1     -0.10441231


 Total CPU time for triples:     16.14 sec


 RESULTS
 =======

  Reference energy                   -129.845804247755
  CCSD singlet pair energy             -0.327900283517
  CCSD triplet pair energy             -0.146072669577
  CCSD correlation energy              -0.473972953094

  Triples (T) contribution             -0.022749074241
  Total correlation energy             -0.496722027335

  CCSD total energy                  -130.319777200849
  CCSD[T] energy                     -130.343655473459
  CCSD-T energy                      -130.342127180868
 !CCSD(T) total energy               -130.342526275090

 Timing summary (sec):

 STEP                 CPU(USER)    SYS     CPU(TOT)    WALL
 Transformation          1.51      0.27      1.78      1.78
 CCSD iterations        30.29      3.92     34.21     34.21
 Triples                16.14      0.41     16.55     16.56

 Program statistics:

 Available memory in ccsd:               994999756
 Min. memory needed in ccsd:               1265322
 Max. memory used in ccsd:                 1555950
 Max. memory used in cckext:               2415326 (24 integral passes)



 **********************************************************************************************************************************
 DATASETS  * FILE   NREC   LENGTH (MB)   RECORD NAMES
              1      20     1044.69       500      610      700      900      950      970     1000      129      960     1100   
                                          VAR    BASINP    GEOM    SYMINP    ZMAT    AOBASIS   BASIS     P2S    ABASIS      S 
                                         1400     1410     1200     1210     1080     1600     1650     1300     1700     1380   
                                           T        V       H0       H01     AOSYM     SMH    MOLCAS    ERIS     OPER     JKOP   

              2       4        3.27       700     1000      520     2100   
                                         GEOM     BASIS   MCVARS     RHF  

 PROGRAMS   *        TOTAL   CCSD(T)        HF       INT
 CPU TIMES  *        68.04     47.97      9.20     10.78
 REAL TIME  *        77.56 SEC
 DISK USED  *         3.13 GB      
 **********************************************************************************************************************************

 CCSD(T)/aug-cc-pVQZ energy=   -130.342526275090

        CCSD(T)         HF-SCF  
   -130.34252628   -129.84580425
 **********************************************************************************************************************************
 Molpro calculation terminated
 Variable memory released
