
 Primary working directories    : /tmp/r2666/234796.maple
 Secondary working directories  : /tmp/r2666/234796.maple
 Wavefunction directory         : /ddn/home4/r2666/wfu/
 Main file repository           : /tmp/r2666/234796.maple/

 SHA1      : d5ffa45e93fdbca01ffc919aa182cfdae0147319
 NAME      : 2015.1.35
 ARCHNAME  : linux/x86_64
 FC        : /opt/intel/composer_xe_2015.1.133/bin/intel64/ifort
 BLASLIB   : -Wl,-_start-group /opt/intel/mkl/lib/intel64/libmkl_intel_ilp64.a /opt/intel/mkl/lib/intel64/libmkl_intel_thread.a /opt/intel/mkl/lib/intel64/libmkl_core.a -Wl,-_end-group
 id        : olemiss

 Nodes     nprocs
 cn088        1

 Using customized tuning parameters: mindgm=1; mindgv=20; mindgc=4; mindgr=1; noblas=0; minvec=7
 default implementation of scratch files=df  

 ***,hno CCSD(T)/TZ-F12 QFF
 memory, 995, m;
 gthresh,energy=1.d-12,zero=1.d-22,oneint=1.d-22,twoint=1.d-22;
 gthresh,optgrad=1.d-8,optstep=1.d-8;
 nocompress;
 geomtyp=xyz
 bohr
 geometry={
 3
         39        39
 N        0.0000000000       -0.1546592722       -1.1519403594
 H        0.0000000000        1.6634878931       -1.9324718219
 O        0.0000000000        0.0329391691        1.1338225903
 }
 
 basis=avqz
   {hf,maxit=500;accu,20;}
 {ccsd(t),nocheck,maxit=250;orbital,IGNORE_ERROR;}

 Variables initialized (889), CPU time= 0.01 sec
 Commands  initialized (702), CPU time= 0.01 sec, 572 directives.
 Default parameters read. Elapsed time= 0.04 sec

 Checking input...
 Passed
1


                                         ***  PROGRAM SYSTEM MOLPRO  ***
                                       Copyright, TTI GmbH Stuttgart, 2015
                                    Version 2015.1 linked Jul  9 2018 13:16:40


 **********************************************************************************************************************************
 LABEL *   hno CCSD(T)/TZ-F12 QFF                                                        
  64 bit serial version                                                                  DATE: 08-Feb-20          TIME: 17:51:49  
 **********************************************************************************************************************************

 SHA1:             d5ffa45e93fdbca01ffc919aa182cfdae0147319
 **********************************************************************************************************************************

 THRESHOLDS:

 ZERO    =  1.00D-22  ONEINT  =  1.00D-22  TWOINT  =  1.00D-22  PREFAC  =  1.00D-14  LOCALI  =  1.00D-09  EORDER  =  1.00D-04
 ENERGY  =  1.00D-12  ETEST   =  0.00D+00  EDENS   =  0.00D+00  THRDEDEF=  1.00D-06  GRADIENT=  1.00D-02  STEP    =  1.00D-03
 ORBITAL =  1.00D-05  CIVEC   =  1.00D-05  COEFF   =  1.00D-04  PRINTCI =  5.00D-02  PUNCHCI =  9.90D+01  OPTGRAD =  3.00D-04
 OPTENERG=  1.00D-06  OPTSTEP =  3.00D-04  THRGRAD =  1.00D-10  COMPRESS=  1.00D-11  VARMIN  =  1.00D-07  VARMAX  =  1.00D-03
 THRDOUB =  0.00D+00  THRDIV  =  1.00D-05  THRRED  =  1.00D-07  THRPSP  =  1.00D+00  THRDC   =  1.00D-10  THRCS   =  1.00D-10
 THRNRM  =  1.00D-08  THREQ   =  0.00D+00  THRDE   =  1.00D+00  THRREF  =  1.00D-05  SPARFAC =  1.00D+00  THRDLP  =  1.00D-07
 THRDIA  =  1.00D-10  THRDLS  =  1.00D-07  THRGPS  =  0.00D+00  THRKEX  =  0.00D+00  THRDIS  =  2.00D-01  THRVAR  =  1.00D-10
 THRLOC  =  1.00D-06  THRGAP  =  1.00D-06  THRLOCT = -1.00D+00  THRGAPT = -1.00D+00  THRORB  =  1.00D-06  THRMLTP =  0.00D+00
 THRCPQCI=  1.00D-10  KEXTA   =  0.00D+00  THRCOARS=  0.00D+00  SYMTOL  =  1.00D-06  GRADTOL =  1.00D-06  THROVL  =  1.00D-08
 THRORTH =  1.00D-08  GRID    =  1.00D-06  GRIDMAX =  1.00D-03  DTMAX   =  0.00D+00  THROCCDE=  1.00D-01  THROCCDE=  1.00D-01



 THRESHOLDS:

 ZERO    =  1.00D-22  ONEINT  =  1.00D-22  TWOINT  =  1.00D-22  PREFAC  =  1.00D-14  LOCALI  =  1.00D-09  EORDER  =  1.00D-04
 ENERGY  =  1.00D-12  ETEST   =  0.00D+00  EDENS   =  0.00D+00  THRDEDEF=  1.00D-06  GRADIENT=  1.00D-02  STEP    =  1.00D-03
 ORBITAL =  1.00D-05  CIVEC   =  1.00D-05  COEFF   =  1.00D-04  PRINTCI =  5.00D-02  PUNCHCI =  9.90D+01  OPTGRAD =  1.00D-08
 OPTENERG=  1.00D-06  OPTSTEP =  1.00D-08  THRGRAD =  1.00D-10  COMPRESS=  1.00D-11  VARMIN  =  1.00D-07  VARMAX  =  1.00D-03
 THRDOUB =  0.00D+00  THRDIV  =  1.00D-05  THRRED  =  1.00D-07  THRPSP  =  1.00D+00  THRDC   =  1.00D-10  THRCS   =  1.00D-10
 THRNRM  =  1.00D-08  THREQ   =  0.00D+00  THRDE   =  1.00D+00  THRREF  =  1.00D-05  SPARFAC =  1.00D+00  THRDLP  =  1.00D-07
 THRDIA  =  1.00D-10  THRDLS  =  1.00D-07  THRGPS  =  0.00D+00  THRKEX  =  0.00D+00  THRDIS  =  2.00D-01  THRVAR  =  1.00D-10
 THRLOC  =  1.00D-06  THRGAP  =  1.00D-06  THRLOCT = -1.00D+00  THRGAPT = -1.00D+00  THRORB  =  1.00D-06  THRMLTP =  0.00D+00
 THRCPQCI=  1.00D-10  KEXTA   =  0.00D+00  THRCOARS=  0.00D+00  SYMTOL  =  1.00D-06  GRADTOL =  1.00D-06  THROVL  =  1.00D-08
 THRORTH =  1.00D-08  GRID    =  1.00D-06  GRIDMAX =  1.00D-03  DTMAX   =  0.00D+00  THROCCDE=  1.00D-01  THROCCDE=  1.00D-01



 Input parameters for SORTINT:

 COMPRESS =    0.000000
 C_FINAL  =    1.000000
 DEBUG    =   -1.000000
 C_SORT1  =    0.000000
 C_SEWARD =    0.000000
 THRESH   =    0.000000
 IO       =  molpro                                                          
 SPRI     =    0.000000
 SETTING GEOMTYP        =    XYZ
 ZUNIT=BOHR
 

 Variable memory set to  995000000 words,  buffer space   230000 words

 SETTING BASIS          =    AVQZ


 Recomputing integrals since basis changed


 Using spherical harmonics

 Library entry N      S aug-cc-pVQZ          selected for orbital group  1
 Library entry N      P aug-cc-pVQZ          selected for orbital group  1
 Library entry N      D aug-cc-pVQZ          selected for orbital group  1
 Library entry N      F aug-cc-pVQZ          selected for orbital group  1
 Library entry N      G aug-cc-pVQZ          selected for orbital group  1
 Library entry H      S aug-cc-pVQZ          selected for orbital group  2
 Library entry H      P aug-cc-pVQZ          selected for orbital group  2
 Library entry H      D aug-cc-pVQZ          selected for orbital group  2
 Library entry H      F aug-cc-pVQZ          selected for orbital group  2
 Library entry O      S aug-cc-pVQZ          selected for orbital group  3
 Library entry O      P aug-cc-pVQZ          selected for orbital group  3
 Library entry O      D aug-cc-pVQZ          selected for orbital group  3
 Library entry O      F aug-cc-pVQZ          selected for orbital group  3
 Library entry O      G aug-cc-pVQZ          selected for orbital group  3


 PROGRAM * SEWARD (Integral evaluation for generally contracted gaussian basis sets)     Author: Roland Lindh, 1990

 Geometry written to block  1 of record 700


 Point group  Cs  



 ATOMIC COORDINATES

 NR  ATOM    CHARGE       X              Y              Z

   1  N       7.00    0.000000000   -0.154659272   -1.151940359
   2  H       1.00    0.000000000    1.663487893   -1.932471822
   3  O       8.00    0.000000000    0.032939169    1.133822590

 Bond lengths in Bohr (Angstrom)

 1-2  1.978607712  1-3  2.293448373
     ( 1.047034111)     ( 1.213640613)

 Bond angles

  2-1-3  108.54197524

 NUCLEAR CHARGE:                   16
 NUMBER OF PRIMITIVE AOS:         293
 NUMBER OF SYMMETRY AOS:          234
 NUMBER OF CONTRACTIONS:          206   ( 130A'  +  76A"  )
 NUMBER OF CORE ORBITALS:           2   (   2A'  +   0A"  )
 NUMBER OF VALENCE ORBITALS:        9   (   7A'  +   2A"  )


 NUCLEAR REPULSION ENERGY   30.25878898

 Eigenvalues of metric

         1 0.594E-04 0.145E-03 0.319E-03 0.436E-03 0.594E-03 0.676E-03 0.101E-02 0.109E-02
         2 0.836E-03 0.160E-02 0.496E-02 0.896E-02 0.101E-01 0.124E-01 0.126E-01 0.187E-01


 Contracted 2-electron integrals neglected if value below      1.0D-22

      109945082. INTEGRALS WRITTEN OUT IN   26849 BLOCKS ON RECORD 1290 OF FILE 1


 NUMBER OF SORTED TWO-ELECTRON INTEGRALS:  115283741.     BUFFER LENGTH:  32768
 NUMBER OF SEGMENTS:   8  SEGMENT LENGTH:   15998004      RECORD LENGTH: 524288

 Memory used in sort:      16.56 MW

 SORT1 READ   109945082. AND WROTE   110865249. INTEGRALS IN    322 RECORDS. CPU TIME:     1.82 SEC, REAL TIME:     2.56 SEC
 SORT2 READ   110865249. AND WROTE   115283741. INTEGRALS IN      8 RECORDS. CPU TIME:     1.24 SEC, REAL TIME:     1.76 SEC

 FILE SIZES:   FILE 1:  1780.6 MBYTE,  FILE 4:  1350.6 MBYTE,   TOTAL:   3131.2 MBYTE

 OPERATOR DM      FOR CENTER  0  COORDINATES:    0.000000    0.000000    0.000000


 **********************************************************************************************************************************
 DATASETS  * FILE   NREC   LENGTH (MB)   RECORD NAMES
              1      19      944.14       500      610      700      900      950      970     1000      129      960     1100   
                                          VAR    BASINP    GEOM    SYMINP    ZMAT    AOBASIS   BASIS     P2S    ABASIS      S 
                                         1400     1410     1200     1210     1080     1600     1650     1300     1700   
                                           T        V       H0       H01     AOSYM     SMH    MOLCAS    ERIS     OPER   

 PROGRAMS   *        TOTAL       INT
 CPU TIMES  *        10.62     10.54
 REAL TIME  *        13.33 SEC
 DISK USED  *         3.13 GB      
 **********************************************************************************************************************************


 PROGRAM * RHF-SCF (CLOSED SHELL)       Authors: W. Meyer, H.-J. Werner


 NUMBER OF ELECTRONS:       8+    8-
 CONVERGENCE THRESHOLDS:    1.00E-10 (Density)    1.00E-13 (Energy)
 MAX. NUMBER OF ITERATIONS:      500
 INTERPOLATION TYPE:            DIIS
 INTERPOLATION STEPS:              2 (START)      1 (STEP)
 LEVEL SHIFTS:                  0.00 (CLOSED)  0.00 (OPEN) 



 Orbital guess generated from atomic densities. Full valence occupancy:    9   2

 Molecular orbital dump at record        2100.2

 Initial occupancy:   7   1

 ITERATION    DDIFF          GRAD             ENERGY        2-EL.EN.            DIPOLE MOMENTS         DIIS   ORB.
    1      0.000D+00      0.000D+00      -129.79542344    153.765426    0.00000    0.60313   -1.04483    0    start
    2      0.000D+00      0.814D-02      -129.82251637    154.982687    0.00000    0.61395   -0.20852    1    diag
    3      0.660D-02      0.627D-02      -129.84611417    155.119551    0.00000    0.56215   -0.60419    2    diag
    4      0.337D-02      0.980D-03      -129.84693148    154.830215    0.00000    0.56927   -0.54175    3    diag
    5      0.611D-03      0.318D-03      -129.84705925    154.924078    0.00000    0.57456   -0.54424    4    diag
    6      0.254D-03      0.916D-04      -129.84707958    154.907903    0.00000    0.57483   -0.53997    5    diag
    7      0.968D-04      0.459D-04      -129.84708558    154.910584    0.00000    0.57603   -0.53728    6    diag
    8      0.671D-04      0.163D-04      -129.84708630    154.909874    0.00000    0.57607   -0.53621    7    diag
    9      0.266D-04      0.315D-05      -129.84708633    154.909754    0.00000    0.57603   -0.53598    8    diag
   10      0.537D-05      0.711D-06      -129.84708633    154.909736    0.00000    0.57600   -0.53595    9    orth
   11      0.103D-05      0.141D-06      -129.84708633    154.909733    0.00000    0.57599   -0.53595    9    diag
   12      0.185D-06      0.288D-07      -129.84708633    154.909733    0.00000    0.57599   -0.53594    9    diag
   13      0.395D-07      0.754D-08      -129.84708633    154.909733    0.00000    0.57599   -0.53594    9    diag
   14      0.109D-07      0.147D-08      -129.84708633    154.909732    0.00000    0.57599   -0.53594    9    diag
   15      0.198D-08      0.419D-09      -129.84708633    154.909733    0.00000    0.57599   -0.53594    9    diag
   16      0.595D-09      0.123D-09      -129.84708633    154.909733    0.00000    0.57599   -0.53594    9    diag
   17      0.109D-09      0.310D-10      -129.84708633    154.909733    0.00000    0.57599   -0.53594    9    diag
   18      0.287D-10      0.102D-10      -129.84708633    154.909733    0.00000    0.57599   -0.53594    0    orth

 Final occupancy:   7   1

 !RHF STATE 1.1 Energy               -129.847086329790
 Nuclear energy                        30.25878898
 One-electron energy                 -237.56074156
 Two-electron energy                   77.45486625
 Virial quotient                       -1.00186436
 !RHF STATE 1.1 Dipole moment           0.00000000     0.57598865    -0.53594394
 Dipole moment /Debye                   0.00000000     1.46392123    -1.36214441

 Orbital energies:

         1.1          2.1          3.1          4.1          5.1          6.1          7.1          8.1          9.1
    -20.654222   -15.712886    -1.524861    -0.997342    -0.746033    -0.664555    -0.432326     0.026262     0.079454

         1.2          2.2          3.2
     -0.593281     0.061784     0.110076

 HOMO      7.1    -0.432326 =     -11.7642eV
 LUMO      8.1     0.026262 =       0.7146eV
 LUMO-HOMO         0.458588 =      12.4788eV


 **********************************************************************************************************************************
 DATASETS  * FILE   NREC   LENGTH (MB)   RECORD NAMES
              1      19      944.14       500      610      700      900      950      970     1000      129      960     1100   
                                          VAR    BASINP    GEOM    SYMINP    ZMAT    AOBASIS   BASIS     P2S    ABASIS      S 
                                         1400     1410     1200     1210     1080     1600     1650     1300     1700   
                                           T        V       H0       H01     AOSYM     SMH    MOLCAS    ERIS     OPER   

              2       4        3.27       700     1000      520     2100   
                                         GEOM     BASIS   MCVARS     RHF  

 PROGRAMS   *        TOTAL        HF       INT
 CPU TIMES  *        19.39      8.76     10.54
 REAL TIME  *        24.04 SEC
 DISK USED  *         3.13 GB      
 **********************************************************************************************************************************


 PROGRAM * CCSD (Closed-shell coupled cluster)     Authors: C. Hampel, H.-J. Werner, 1991, M. Deegan, P.J. Knowles, 1992


 Convergence thresholds:  THRVAR = 1.00D-08  THRDEN = 1.00D-12

 CCSD(T)     terms to be evaluated (factor= 1.000)


 Number of core orbitals:           2 (   2   0 )
 Number of closed-shell orbitals:   6 (   5   1 )
 Number of external orbitals:     198 ( 123  75 )

 Molecular orbitals read from record     2100.2  Type=RHF/CANONICAL (state 1.1)

 Number of N-1 electron functions:               6
 Number of N-2 electron functions:              21
 Number of singly external CSFs:               690
 Number of doubly external CSFs:            362646
 Total number of CSFs:                      363337

 Length of J-op  integral file:               0.00 MB
 Length of K-op  integral file:               1.60 MB
 Length of 3-ext integral record:             0.00 MB

 Memory could be reduced to 34.67 Mwords without degradation in triples

 Integral transformation finished. Total CPU:   1.40 sec, npass=  1  Memory used:   9.53 MW

 Reference energy:                   -129.84708633

 MP2 singlet pair energy:              -0.30208837
 MP2 triplet pair energy:              -0.17075834
 MP2 correlation energy:               -0.47284671
 MP2 total energy:                   -130.31993304

 SCS-MP2 correlation energy:           -0.46875568   (PS=  1.200000  PT=  0.333333)
 SCS-MP2 total energy:               -130.31584201

 ITER.      SQ.NORM     CORR.ENERGY   TOTAL ENERGY   ENERGY CHANGE        DEN1      VAR(S)    VAR(P)  DIIS     TIME  TIME/IT
   1      1.12148757    -0.47266400  -130.31975033     0.00018271     0.01681095  0.32D-02  0.32D-02  1  1     2.57     1.27
   2      1.13230887    -0.47257542  -130.31966175     0.00008858    -0.01262585  0.11D-03  0.50D-03  2  2     3.70     1.29
   3      1.13871295    -0.47296013  -130.32004646    -0.00038471    -0.00307392  0.50D-04  0.55D-04  3  3     4.87     1.30
   4      1.14153263    -0.47296771  -130.32005404    -0.00000759    -0.00095230  0.45D-05  0.99D-05  4  4     6.05     1.31
   5      1.14266403    -0.47299809  -130.32008442    -0.00003038    -0.00024612  0.11D-05  0.17D-05  5  5     7.20     1.32
   6      1.14302815    -0.47298262  -130.32006895     0.00001548    -0.00005245  0.11D-06  0.40D-06  6  6     8.41     1.32
   7      1.14310134    -0.47298323  -130.32006956    -0.00000061     0.00000284  0.16D-07  0.92D-07  6  1     9.63     1.33
   8      1.14312417    -0.47298353  -130.32006986    -0.00000030    -0.00000115  0.34D-08  0.19D-07  6  2    10.86     1.33
   9      1.14312914    -0.47298313  -130.32006946     0.00000040     0.00000100  0.26D-08  0.22D-08  6  4    12.10     1.33
  10      1.14313167    -0.47298352  -130.32006985    -0.00000038    -0.00000077  0.50D-09  0.26D-09  6  3    13.27     1.34
  11      1.14313141    -0.47298358  -130.32006991    -0.00000006    -0.00000013  0.16D-09  0.37D-10  6  5    14.47     1.34
  12      1.14313043    -0.47298373  -130.32007006    -0.00000015     0.00000037  0.19D-10  0.11D-10  6  6    15.66     1.34
  13      1.14312956    -0.47298377  -130.32007010    -0.00000004     0.00000022  0.60D-11  0.25D-11  6  1    16.82     1.33
  14      1.14312887    -0.47298380  -130.32007013    -0.00000003     0.00000016  0.38D-12  0.52D-12  6  4    17.98     1.33
  15      1.14312865    -0.47298381  -130.32007014    -0.00000001     0.00000004  0.83D-13  0.41D-13  6  2    19.17     1.33
  16      1.14312859    -0.47298381  -130.32007014    -0.00000000     0.00000001  0.22D-13  0.75D-14  6  3    20.33     1.33
  17      1.14312857    -0.47298381  -130.32007014    -0.00000000     0.00000001  0.41D-14  0.10D-14  6  5    21.51     1.33
  18      1.14312856    -0.47298381  -130.32007014    -0.00000000     0.00000000  0.87D-15  0.26D-15  6  6    22.68     1.33
  19      1.14312856    -0.47298381  -130.32007014    -0.00000000     0.00000000  0.11D-15  0.52D-16  6  1    23.87     1.33
  20      1.14312856    -0.47298381  -130.32007014     0.00000000    -0.00000000  0.10D-16  0.78D-17  6  4    25.02     1.33
  21      1.14312857    -0.47298381  -130.32007014     0.00000000    -0.00000000  0.49D-18  0.67D-18  6  3    26.21     1.33
  22      1.14312857    -0.47298381  -130.32007014     0.00000000    -0.00000000  0.12D-18  0.14D-18  6  2    27.40     1.33
  23      1.14312857    -0.47298381  -130.32007014     0.00000000     0.00000000  0.35D-19  0.53D-19  6  5    28.57     1.33
  24      1.14312857    -0.47298381  -130.32007014    -0.00000000     0.00000000  0.31D-20  0.12D-19  6  1    29.75     1.33

 Norm of t1 vector:      0.07762351      S-energy:    -0.00000000      T1 diagnostic:  0.01584483
                                                                       D1 diagnostic:  0.04294581

 Doubles amplitudes (print threshold =  0.500E-01):

         I         J         SYM. A    SYM. B    A         B      T(IJ, AB)

         6         6         2         2         1         1     -0.10169575


 Total CPU time for triples:     14.67 sec


 RESULTS
 =======

  Reference energy                   -129.847086329790
  CCSD singlet pair energy             -0.327048459035
  CCSD triplet pair energy             -0.145935352889
  CCSD correlation energy              -0.472983811924

  Triples (T) contribution             -0.022514243689
  Total correlation energy             -0.495498055613

  CCSD total energy                  -130.320070141715
  CCSD[T] energy                     -130.343680128692
  CCSD-T energy                      -130.342194378994
 !CCSD(T) total energy               -130.342584385403

 Timing summary (sec):

 STEP                 CPU(USER)    SYS     CPU(TOT)    WALL
 Transformation          1.42      0.23      1.65      1.65
 CCSD iterations        28.34      3.63     31.97     31.99
 Triples                14.67      0.40     15.07     15.07

 Program statistics:

 Available memory in ccsd:               994999756
 Min. memory needed in ccsd:               1265322
 Max. memory used in ccsd:                 1555950
 Max. memory used in cckext:               2415326 (24 integral passes)



 **********************************************************************************************************************************
 DATASETS  * FILE   NREC   LENGTH (MB)   RECORD NAMES
              1      20     1044.69       500      610      700      900      950      970     1000      129      960     1100   
                                          VAR    BASINP    GEOM    SYMINP    ZMAT    AOBASIS   BASIS     P2S    ABASIS      S 
                                         1400     1410     1200     1210     1080     1600     1650     1300     1700     1380   
                                           T        V       H0       H01     AOSYM     SMH    MOLCAS    ERIS     OPER     JKOP   

              2       4        3.27       700     1000      520     2100   
                                         GEOM     BASIS   MCVARS     RHF  

 PROGRAMS   *        TOTAL   CCSD(T)        HF       INT
 CPU TIMES  *        63.83     44.45      8.76     10.54
 REAL TIME  *        72.78 SEC
 DISK USED  *         3.13 GB      
 **********************************************************************************************************************************

 CCSD(T)/aug-cc-pVQZ energy=   -130.342584385403

        CCSD(T)         HF-SCF  
   -130.34258439   -129.84708633
 **********************************************************************************************************************************
 Molpro calculation terminated
 Variable memory released
