
 Primary working directories    : /tmp/r2666/214589.maple
 Secondary working directories  : /tmp/r2666/214589.maple
 Wavefunction directory         : /ddn/home4/r2666/wfu/
 Main file repository           : /tmp/r2666/214589.maple/

 SHA1      : d5ffa45e93fdbca01ffc919aa182cfdae0147319
 NAME      : 2015.1.35
 ARCHNAME  : linux/x86_64
 FC        : /opt/intel/composer_xe_2015.1.133/bin/intel64/ifort
 BLASLIB   : -Wl,-_start-group /opt/intel/mkl/lib/intel64/libmkl_intel_ilp64.a /opt/intel/mkl/lib/intel64/libmkl_intel_thread.a /opt/intel/mkl/lib/intel64/libmkl_core.a -Wl,-_end-group
 id        : olemiss

 Nodes     nprocs
 cn041        1

 Using customized tuning parameters: mindgm=1; mindgv=20; mindgc=4; mindgr=1; noblas=0; minvec=7
 default implementation of scratch files=df  

 ***,AlONC, CCSD(T)/MT QFF
 memory, 995, m;
 gthresh,energy=1.d-12,zero=1.d-22,oneint=1.d-22,twoint=1.d-22;
 gthresh,optgrad=1.d-8,optstep=1.d-8;
 nocompress;
 geometry={
 N
 O 1 no
 H 1 nh 2 hno
 }
 
  no=1.2 ANG
  nh=0.8 ANG
  hno=105.0 DEG
 
 basis={
 default=aug-cc-pvtz
 s,C,8236.0,1235.0,280.8, 79.27,25.59, 8.997,3.319
 s,C,0.9059,0.3643,0.1285000
 p,C,56.0,18.71,4.133,0.2827,0.3827,0.1209
 d,C,30.0,10.0,3.3,1.097,0.318
 f,C,7.0,2.3,0.7610
 s,N,11420.0,1712.0,389.3,110.0,35.57,12.54,4.644
 s,N,1.293,0.5118,0.1787
 p,N,79.89,26.63,5.948,1.742,0.555,0.1725
 d,N,45.0,15.0,5.0,1.654,0.469
 f,N,9.9,3.3,1.093
 s,O,15330.0,2299.0,522.4,147.3,47.55,16.76,6.207
 s,O,1.752,0.6882,0.2384
 p,O,103.5,34.46,7.749,2.28,0.7156,0.214
 d,O,63.0,21.0,7.0,2.314,0.645
 f,O,12.9,4.3,1.428
 }
   {hf,maxit=500;wf,charge=0,spin=0;accu,20;}
   {ccsd(t),maxit=250;core;wf,charge=0,spin=0;orbital,IGNORE_ERROR;}
  {optg,grms=1.d-8,srms=1.d-8}
 

 Variables initialized (889), CPU time= 0.01 sec
 Commands  initialized (702), CPU time= 0.00 sec, 572 directives.
 Default parameters read. Elapsed time= 0.06 sec

 Checking input...
 Passed
1


                                         ***  PROGRAM SYSTEM MOLPRO  ***
                                       Copyright, TTI GmbH Stuttgart, 2015
                                    Version 2015.1 linked Jul  9 2018 13:16:40


 **********************************************************************************************************************************
 LABEL *   AlONC, CCSD(T)/MT QFF                                                         
  (4 PROC) 64 bit serial version                                                         DATE: 23-Jan-20          TIME: 20:49:27  
 **********************************************************************************************************************************

 SHA1:             d5ffa45e93fdbca01ffc919aa182cfdae0147319
 **********************************************************************************************************************************

 THRESHOLDS:

 ZERO    =  1.00D-22  ONEINT  =  1.00D-22  TWOINT  =  1.00D-22  PREFAC  =  1.00D-14  LOCALI  =  1.00D-09  EORDER  =  1.00D-04
 ENERGY  =  1.00D-12  ETEST   =  0.00D+00  EDENS   =  0.00D+00  THRDEDEF=  1.00D-06  GRADIENT=  1.00D-02  STEP    =  1.00D-03
 ORBITAL =  1.00D-05  CIVEC   =  1.00D-05  COEFF   =  1.00D-04  PRINTCI =  5.00D-02  PUNCHCI =  9.90D+01  OPTGRAD =  3.00D-04
 OPTENERG=  1.00D-06  OPTSTEP =  3.00D-04  THRGRAD =  1.00D-10  COMPRESS=  1.00D-11  VARMIN  =  1.00D-07  VARMAX  =  1.00D-03
 THRDOUB =  0.00D+00  THRDIV  =  1.00D-05  THRRED  =  1.00D-07  THRPSP  =  1.00D+00  THRDC   =  1.00D-10  THRCS   =  1.00D-10
 THRNRM  =  1.00D-08  THREQ   =  0.00D+00  THRDE   =  1.00D+00  THRREF  =  1.00D-05  SPARFAC =  1.00D+00  THRDLP  =  1.00D-07
 THRDIA  =  1.00D-10  THRDLS  =  1.00D-07  THRGPS  =  0.00D+00  THRKEX  =  0.00D+00  THRDIS  =  2.00D-01  THRVAR  =  1.00D-10
 THRLOC  =  1.00D-06  THRGAP  =  1.00D-06  THRLOCT = -1.00D+00  THRGAPT = -1.00D+00  THRORB  =  1.00D-06  THRMLTP =  0.00D+00
 THRCPQCI=  1.00D-10  KEXTA   =  0.00D+00  THRCOARS=  0.00D+00  SYMTOL  =  1.00D-06  GRADTOL =  1.00D-06  THROVL  =  1.00D-08
 THRORTH =  1.00D-08  GRID    =  1.00D-06  GRIDMAX =  1.00D-03  DTMAX   =  0.00D+00  THROCCDE=  1.00D-01  THROCCDE=  1.00D-01



 THRESHOLDS:

 ZERO    =  1.00D-22  ONEINT  =  1.00D-22  TWOINT  =  1.00D-22  PREFAC  =  1.00D-14  LOCALI  =  1.00D-09  EORDER  =  1.00D-04
 ENERGY  =  1.00D-12  ETEST   =  0.00D+00  EDENS   =  0.00D+00  THRDEDEF=  1.00D-06  GRADIENT=  1.00D-02  STEP    =  1.00D-03
 ORBITAL =  1.00D-05  CIVEC   =  1.00D-05  COEFF   =  1.00D-04  PRINTCI =  5.00D-02  PUNCHCI =  9.90D+01  OPTGRAD =  1.00D-08
 OPTENERG=  1.00D-06  OPTSTEP =  1.00D-08  THRGRAD =  1.00D-10  COMPRESS=  1.00D-11  VARMIN  =  1.00D-07  VARMAX  =  1.00D-03
 THRDOUB =  0.00D+00  THRDIV  =  1.00D-05  THRRED  =  1.00D-07  THRPSP  =  1.00D+00  THRDC   =  1.00D-10  THRCS   =  1.00D-10
 THRNRM  =  1.00D-08  THREQ   =  0.00D+00  THRDE   =  1.00D+00  THRREF  =  1.00D-05  SPARFAC =  1.00D+00  THRDLP  =  1.00D-07
 THRDIA  =  1.00D-10  THRDLS  =  1.00D-07  THRGPS  =  0.00D+00  THRKEX  =  0.00D+00  THRDIS  =  2.00D-01  THRVAR  =  1.00D-10
 THRLOC  =  1.00D-06  THRGAP  =  1.00D-06  THRLOCT = -1.00D+00  THRGAPT = -1.00D+00  THRORB  =  1.00D-06  THRMLTP =  0.00D+00
 THRCPQCI=  1.00D-10  KEXTA   =  0.00D+00  THRCOARS=  0.00D+00  SYMTOL  =  1.00D-06  GRADTOL =  1.00D-06  THROVL  =  1.00D-08
 THRORTH =  1.00D-08  GRID    =  1.00D-06  GRIDMAX =  1.00D-03  DTMAX   =  0.00D+00  THROCCDE=  1.00D-01  THROCCDE=  1.00D-01



 Input parameters for SORTINT:

 COMPRESS =    0.000000
 C_FINAL  =    1.000000
 DEBUG    =   -1.000000
 C_SORT1  =    0.000000
 C_SEWARD =    0.000000
 THRESH   =    0.000000
 IO       =  molpro                                                          
 SPRI     =    0.000000
 SETTING NO             =         1.20000000  ANG                             
 SETTING NH             =         0.80000000  ANG                             
 SETTING HNO            =       105.00000000  DEG                             

 Variable memory set to  995000000 words,  buffer space   230000 words

 SETTING BASIS          =    USERDEF


 Recomputing integrals since basis changed


 Using spherical harmonics

 Library entry H      S aug-cc-pVTZ          selected for orbital group  3
 Library entry H      P aug-cc-pVTZ          selected for orbital group  3
 Library entry H      D aug-cc-pVTZ          selected for orbital group  3


 PROGRAM * SEWARD (Integral evaluation for generally contracted gaussian basis sets)     Author: Roland Lindh, 1990

 Geometry written to block  1 of record 700

 Orientation using atomic masses  
 Molecule type: Asymmetric top
 Symmetry elements: X
 Rotational constants:      41.9878831     43.9791483    927.3457377 GHz  (calculated with average atomic masses)

 Point group  Cs  



 ATOMIC COORDINATES

 NR  ATOM    CHARGE       X              Y              Z

   1  N       7.00    0.000000000   -0.114954642   -1.152374359
   2  O       8.00    0.000000000    0.017480950    1.111426463
   3  H       1.00    0.000000000    1.319969909   -1.628266177

 Bond lengths in Bohr (Angstrom)

 1-2  2.267671349  1-3  1.511780900
     ( 1.200000000)     ( 0.800000000)

 Bond angles

  2-1-3  105.00000000

 NUCLEAR CHARGE:                   16
 NUMBER OF PRIMITIVE AOS:         203
 NUMBER OF SYMMETRY AOS:          173
 NUMBER OF CONTRACTIONS:          171   ( 114A'  +  57A"  )
 NUMBER OF CORE ORBITALS:           2   (   2A'  +   0A"  )
 NUMBER OF VALENCE ORBITALS:        9   (   7A'  +   2A"  )


 NUCLEAR REPULSION ENERGY   31.96241601


 Eigenvalues of metric

         1 0.701E-03 0.217E-02 0.228E-02 0.309E-02 0.589E-02 0.978E-02 0.117E-01 0.142E-01
         2 0.123E-01 0.448E-01 0.559E-01 0.922E-01 0.948E-01 0.128E+00 0.128E+00 0.140E+00


 Contracted 2-electron integrals neglected if value below      1.0D-22

       46209992. INTEGRALS WRITTEN OUT IN   11285 BLOCKS ON RECORD 1290 OF FILE 1


 NUMBER OF SORTED TWO-ELECTRON INTEGRALS:   55360566.     BUFFER LENGTH:  32768
 NUMBER OF SEGMENTS:   4  SEGMENT LENGTH:   15997996      RECORD LENGTH: 524288

 Memory used in sort:      16.56 MW

 SORT1 READ    46209992. AND WROTE    46648071. INTEGRALS IN    136 RECORDS. CPU TIME:     2.10 SEC, REAL TIME:     2.16 SEC
 SORT2 READ    46648071. AND WROTE    55360566. INTEGRALS IN      4 RECORDS. CPU TIME:     0.97 SEC, REAL TIME:     1.38 SEC

 FILE SIZES:   FILE 1:   760.3 MBYTE,  FILE 4:   570.5 MBYTE,   TOTAL:   1330.7 MBYTE

 OPERATOR DM      FOR CENTER  0  COORDINATES:    0.000000    0.000000    0.000000


 **********************************************************************************************************************************
 DATASETS  * FILE   NREC   LENGTH (MB)   RECORD NAMES
              1      19      421.64       500      610      700      900      950      970     1000      129      960     1100   
                                          VAR    BASINP    GEOM    SYMINP    ZMAT    AOBASIS   BASIS     P2S    ABASIS      S 
                                         1400     1410     1200     1210     1080     1600     1650     1300     1700   
                                           T        V       H0       H01     AOSYM     SMH    MOLCAS    ERIS     OPER   

 PROGRAMS   *        TOTAL       INT
 CPU TIMES  *        23.68     23.57
 REAL TIME  *        10.48 SEC
 DISK USED  *         1.33 GB      
 **********************************************************************************************************************************


 PROGRAM * RHF-SCF (CLOSED SHELL)       Authors: W. Meyer, H.-J. Werner


 NUMBER OF ELECTRONS:       8+    8-
 CONVERGENCE THRESHOLDS:    1.00E-10 (Density)    1.00E-13 (Energy)
 MAX. NUMBER OF ITERATIONS:      500
 INTERPOLATION TYPE:            DIIS
 INTERPOLATION STEPS:              2 (START)      1 (STEP)
 LEVEL SHIFTS:                  0.00 (CLOSED)  0.00 (OPEN) 



 Orbital guess generated from atomic densities. Full valence occupancy:    9   2

 Molecular orbital dump at record        2100.2

 Initial occupancy:   7   1

 ITERATION    DDIFF          GRAD             ENERGY        2-EL.EN.            DIPOLE MOMENTS         DIIS   ORB.
    1      0.000D+00      0.000D+00      -129.74303658    156.781380    0.00000    0.62434   -0.82417    0    start
    2      0.000D+00      0.724D-02      -129.76769094    157.830846    0.00000    0.58230   -0.28852    1    diag
    3      0.444D-02      0.429D-02      -129.77656797    157.889034    0.00000    0.57606   -0.55267    2    diag
    4      0.102D-02      0.113D-02      -129.77738479    157.660677    0.00000    0.58410   -0.48520    3    diag
    5      0.378D-03      0.302D-03      -129.77746453    157.731541    0.00000    0.58720   -0.48878    4    diag
    6      0.152D-03      0.695D-04      -129.77747413    157.718471    0.00000    0.58756   -0.48570    5    diag
    7      0.522D-04      0.358D-04      -129.77747700    157.719906    0.00000    0.58819   -0.48364    6    diag
    8      0.330D-04      0.127D-04      -129.77747735    157.719340    0.00000    0.58821   -0.48289    7    diag
    9      0.111D-04      0.231D-05      -129.77747736    157.719345    0.00000    0.58821   -0.48276    8    diag
   10      0.256D-05      0.481D-06      -129.77747736    157.719356    0.00000    0.58820   -0.48275    9    orth
   11      0.764D-06      0.959D-07      -129.77747736    157.719357    0.00000    0.58820   -0.48275    9    diag
   12      0.173D-06      0.202D-07      -129.77747736    157.719358    0.00000    0.58820   -0.48275    9    diag
   13      0.354D-07      0.441D-08      -129.77747736    157.719358    0.00000    0.58820   -0.48275    9    diag
   14      0.571D-08      0.856D-09      -129.77747736    157.719358    0.00000    0.58820   -0.48275    9    diag
   15      0.699D-09      0.248D-09      -129.77747736    157.719358    0.00000    0.58820   -0.48275    9    diag
   16      0.273D-09      0.831D-10      -129.77747736    157.719358    0.00000    0.58820   -0.48275    9    diag
   17      0.452D-10      0.196D-10      -129.77747736    157.719358    0.00000    0.58820   -0.48275    9    diag
   18      0.159D-10      0.624D-11      -129.77747736    157.719358    0.00000    0.58820   -0.48275    0    orth

 Final occupancy:   7   1

 !RHF STATE 1.1 Energy               -129.777477360669
 Nuclear energy                        31.96241601
 One-electron energy                 -240.59957229
 Two-electron energy                   78.85967892
 Virial quotient                       -0.99623912
 !RHF STATE 1.1 Dipole moment           0.00000000     0.58819566    -0.48274856
 Dipole moment /Debye                   0.00000000     1.49494634    -1.22694408

 Orbital energies:

         1.1          2.1          3.1          4.1          5.1          6.1          7.1          8.1          9.1
    -20.650588   -15.675720    -1.550531    -1.078271    -0.771978    -0.669537    -0.444361     0.041690     0.205450

         1.2          2.2          3.2
     -0.599121     0.079540     0.238297

 HOMO      7.1    -0.444361 =     -12.0917eV
 LUMO      8.1     0.041690 =       1.1344eV
 LUMO-HOMO         0.486051 =      13.2261eV


 **********************************************************************************************************************************
 DATASETS  * FILE   NREC   LENGTH (MB)   RECORD NAMES
              1      19      421.64       500      610      700      900      950      970     1000      129      960     1100   
                                          VAR    BASINP    GEOM    SYMINP    ZMAT    AOBASIS   BASIS     P2S    ABASIS      S 
                                         1400     1410     1200     1210     1080     1600     1650     1300     1700   
                                           T        V       H0       H01     AOSYM     SMH    MOLCAS    ERIS     OPER   

              2       4        3.11       700     1000      520     2100   
                                         GEOM     BASIS   MCVARS     RHF  

 PROGRAMS   *        TOTAL        HF       INT
 CPU TIMES  *        60.89     37.21     23.57
 REAL TIME  *        20.72 SEC
 DISK USED  *         1.33 GB      
 **********************************************************************************************************************************


 PROGRAM * CCSD (Closed-shell coupled cluster)     Authors: C. Hampel, H.-J. Werner, 1991, M. Deegan, P.J. Knowles, 1992


 Convergence thresholds:  THRVAR = 1.00D-16  THRDEN = 1.00D-12

 CCSD(T)     terms to be evaluated (factor= 1.000)


 Number of closed-shell orbitals:   8 (   7   1 )
 Number of external orbitals:     163 ( 107  56 )

 Molecular orbitals read from record     2100.2  Type=RHF/CANONICAL (state 1.1)

 Number of N-1 electron functions:               8
 Number of N-2 electron functions:              36
 Number of singly external CSFs:               805
 Number of doubly external CSFs:            449165
 Total number of CSFs:                      449971

 Length of J-op  integral file:               0.00 MB
 Length of K-op  integral file:               1.15 MB
 Length of 3-ext integral record:             0.00 MB

 Memory could be reduced to 24.90 Mwords without degradation in triples

 Integral transformation finished. Total CPU:   6.53 sec, npass=  1  Memory used:   6.89 MW

 Reference energy:                   -129.77747736

 MP2 singlet pair energy:              -0.37424157
 MP2 triplet pair energy:              -0.18439610
 MP2 correlation energy:               -0.55863767
 MP2 total energy:                   -130.33611503

 SCS-MP2 correlation energy:           -0.56382524   (PS=  1.200000  PT=  0.333333)
 SCS-MP2 total energy:               -130.34130260

 ITER.      SQ.NORM     CORR.ENERGY   TOTAL ENERGY   ENERGY CHANGE        DEN1      VAR(S)    VAR(P)  DIIS     TIME  TIME/IT
   1      1.11262873    -0.56413665  -130.34161401    -0.00549897     0.01031298  0.28D-02  0.26D-02  1  1    13.21     1.72
   2      1.12226121    -0.56404225  -130.34151961     0.00009439    -0.01248489  0.76D-04  0.42D-03  2  2    20.24     1.80
   3      1.12669916    -0.56427765  -130.34175501    -0.00023539    -0.00206053  0.35D-04  0.61D-04  3  3    27.51     1.84
   4      1.12973657    -0.56428815  -130.34176551    -0.00001050    -0.00123020  0.22D-05  0.81D-05  4  4    35.61     1.93
   5      1.13054939    -0.56430443  -130.34178179    -0.00001628    -0.00017521  0.60D-06  0.18D-05  5  5    43.96     1.98
   6      1.13084492    -0.56430144  -130.34177880     0.00000299    -0.00002560  0.44D-07  0.47D-06  6  6    52.58     2.03
   7      1.13091087    -0.56430376  -130.34178112    -0.00000231     0.00000051  0.47D-08  0.98D-07  6  1    61.12     2.07
   8      1.13093973    -0.56430255  -130.34177991     0.00000121    -0.00000399  0.53D-08  0.93D-08  6  2    68.46     2.05
   9      1.13094146    -0.56430298  -130.34178035    -0.00000043     0.00000109  0.13D-08  0.87D-09  6  3    75.49     2.03
  10      1.13094232    -0.56430316  -130.34178052    -0.00000018    -0.00000016  0.29D-09  0.99D-10  6  4    82.44     2.02
  11      1.13094088    -0.56430329  -130.34178065    -0.00000013     0.00000034  0.28D-10  0.13D-10  6  6    90.11     2.02
  12      1.13094079    -0.56430333  -130.34178069    -0.00000004     0.00000008  0.17D-11  0.20D-11  6  5    97.47     2.01
  13      1.13094082    -0.56430332  -130.34178068     0.00000001    -0.00000006  0.56D-12  0.31D-12  6  2   104.41     2.00
  14      1.13094087    -0.56430332  -130.34178068    -0.00000000    -0.00000002  0.83D-13  0.30D-13  6  1   111.64     1.99
  15      1.13094088    -0.56430332  -130.34178068     0.00000000    -0.00000001  0.28D-13  0.77D-14  6  3   119.13     1.99
  16      1.13094089    -0.56430332  -130.34178068    -0.00000000    -0.00000000  0.39D-14  0.21D-14  6  4   126.91     2.00
  17      1.13094088    -0.56430332  -130.34178068    -0.00000000     0.00000000  0.41D-15  0.46D-15  6  6   134.16     1.99
  18      1.13094088    -0.56430332  -130.34178068    -0.00000000     0.00000000  0.36D-16  0.48D-16  6  5   141.30     1.99
  19      1.13094088    -0.56430332  -130.34178068     0.00000000     0.00000000  0.29D-17  0.39D-17  6  2   148.50     1.98
  20      1.13094088    -0.56430332  -130.34178068     0.00000000    -0.00000000  0.22D-18  0.37D-18  6  1   155.78     1.98
  21      1.13094088    -0.56430332  -130.34178068    -0.00000000     0.00000000  0.52D-19  0.79D-19  6  3   162.84     1.98
  22      1.13094088    -0.56430332  -130.34178068    -0.00000000     0.00000000  0.68D-20  0.91D-20  6  4   169.98     1.97
  23      1.13094088    -0.56430332  -130.34178068    -0.00000000    -0.00000000  0.70D-21  0.12D-20  6  5   177.08     1.97

 Norm of t1 vector:      0.06964679      S-energy:     0.00000000      T1 diagnostic:  0.01231193
                                                                       D1 diagnostic:  0.04220668

 Doubles amplitudes (print threshold =  0.500E-01):

         I         J         SYM. A    SYM. B    A         B      T(IJ, AB)

         8         8         2         2         1         1     -0.13548784


 Total CPU time for triples:     44.73 sec


 RESULTS
 =======

  Reference energy                   -129.777477360669

  Correlated core orbitals:             1.1       2.1
  Orbital energies:                   -20.6506  -15.6757
 
  CCSD core-core energy                -0.079132399435
  CCSD core-valence energy             -0.036902680778
  CCSD valence correlation energy      -0.448268240790
 
  CCSD singlet pair energy             -0.402056204001
  CCSD triplet pair energy             -0.162247117001
  CCSD correlation energy              -0.564303321002

  Triples (T) contribution             -0.020822103952
  Total correlation energy             -0.585125424955

  CCSD total energy                  -130.341780681672
  CCSD[T] energy                     -130.363561010497
  CCSD-T energy                      -130.362237336265
 !CCSD(T) total energy               -130.362602785624

 Timing summary (sec):

 STEP                 CPU(USER)    SYS     CPU(TOT)    WALL
 Transformation          6.64      0.51      7.15      1.80
 CCSD iterations       170.48     10.58    181.06     45.26
 Triples                44.73      1.80     46.53     11.63

 Program statistics:

 Available memory in ccsd:               994999644
 Min. memory needed in ccsd:               1368037
 Max. memory used in ccsd:                 1750502
 Max. memory used in cckext:               2014357 (23 integral passes)



 **********************************************************************************************************************************
 DATASETS  * FILE   NREC   LENGTH (MB)   RECORD NAMES
              1      20      500.56       500      610      700      900      950      970     1000      129      960     1100   
                                          VAR    BASINP    GEOM    SYMINP    ZMAT    AOBASIS   BASIS     P2S    ABASIS      S 
                                         1400     1410     1200     1210     1080     1600     1650     1300     1700     1380   
                                           T        V       H0       H01     AOSYM     SMH    MOLCAS    ERIS     OPER     JKOP   

              2       4        3.11       700     1000      520     2100   
                                         GEOM     BASIS   MCVARS     RHF  

 PROGRAMS   *        TOTAL   CCSD(T)        HF       INT
 CPU TIMES  *       282.91    221.98     37.21     23.57
 REAL TIME  *        79.46 SEC
 DISK USED  *         1.33 GB      
 **********************************************************************************************************************************


 PROGRAM * OPT (Geometry optimization)     Authors: F. Eckert and H.-J. Werner


 BFGS update of hessian

 *** Long output written to logfile /ddn/home4/r2666/chem/rotation/hno/opt/MTc/opt.log ***


 Geometry optimization using default procedure for command CCSD(T)

 Geometry written to block  1 of record 700

 Making model hessian for Z-matrix coordinates

 Entering Rational Function Geometry Optimization

 ITER.   ENERGY(OLD)    ENERGY(NEW)      DE          GRADMAX     GRADNORM    GRADRMS     STEPMAX     STEPLEN     STEPRMS   CPU-time
   1  -130.36260279  -130.42584659    -0.06324381  0.39223350  0.39451290  0.22777213  0.29939714  0.30000000  0.10000000   1572.42
   2  -130.42584659  -130.43057397    -0.00472737  0.07861287  0.08145703  0.04702924  0.07437590  0.08275992  0.02758664   3198.59
   3  -130.43057397  -130.43233458    -0.00176061  0.03887380  0.03916413  0.02261142  0.07239898  0.07432664  0.02477555   4877.85
   4  -130.43233458  -130.43249263    -0.00015805  0.00983393  0.01057297  0.00610431  0.02520771  0.02587456  0.00862485   6532.80
   5  -130.43249263  -130.43249930    -0.00000667  0.00170779  0.00220925  0.00127551  0.00564470  0.00605168  0.00201723   8207.84
   6  -130.43249930  -130.43249938    -0.00000007  0.00028052  0.00028793  0.00016624  0.00033764  0.00050004  0.00016668   9938.12
   7  -130.43249938  -130.43249938    -0.00000001  0.00006789  0.00007324  0.00004228  0.00008615  0.00010874  0.00003625  11615.22
   8  -130.43249938  -130.43249938    -0.00000000  0.00000923  0.00001205  0.00000696  0.00002547  0.00002814  0.00000938  13319.67
   9  -130.43249938  -130.43249938    -0.00000000  0.00000073  0.00000079  0.00000045  0.00000239  0.00000246  0.00000082  15010.85
  10  -130.43249938  -130.43249938    -0.00000000  0.00000004  0.00000005  0.00000003  0.00000007  0.00000010  0.00000003  16683.21
  11  -130.43249938  -130.43249938     0.00000000  0.00000000  0.00000000  0.00000000  0.00000000  0.00000000  0.00000000  18330.16

 END OF GEOMETRY OPTIMIZATION.

 Optimized variables
 NO=                  1.20883906 ANG
 NH=                  1.05256203 ANG
 HNO=               108.05614358 DEG

 **********************************************************************************************************************************

 Current geometry (xyz format, in Angstrom)

    3
 CCSD(T)/USERDEF  ENERGY=-130.43249938
 N          0.0000000000       -0.0852989941       -0.6079154631
 O          0.0000000000        0.0190131321        0.5964145821
 H          0.0000000000        0.8835433805       -1.0192927641

 **********************************************************************************************************************************

 Geometry written to block  1 of record 700


 **********************************************************************************************************************************
 DATASETS  * FILE   NREC   LENGTH (MB)   RECORD NAMES
              1      20      500.16       500      610      700      900      950      970     1000      129      960     1100   
                                          VAR    BASINP    GEOM    SYMINP    ZMAT    AOBASIS   BASIS     P2S    ABASIS      S 
                                         1400     1410     1200     1210     1080     1600     1650     1300     1700     1380   
                                           T        V       H0       H01     AOSYM     SMH    MOLCAS    ERIS     OPER     JKOP   

              2       5        3.45       700     1000      520     2100     5600   
                                         GEOM     BASIS   MCVARS     RHF     GINFO   

 PROGRAMS   *        TOTAL      OPTG   CCSD(T)        HF       INT
 CPU TIMES  *     18613.08  18330.17    221.98     37.21     23.57
 REAL TIME  *      5203.82 SEC
 DISK USED  *         1.34 GB      
 **********************************************************************************************************************************

 CCSD(T)/USERDEF//CCSD(T)/USERDEF energy=   -130.432499384445

   OPTG(CCSD(T))        CCSD(T)         HF-SCF  
   -130.43249938   -130.36260279   -129.77747736
 **********************************************************************************************************************************
 Molpro calculation terminated
 Variable memory released
