
 Primary working directories    : /tmp/r2518/365807.maple/molpro.RrG591KRCi
 Secondary working directories  : /tmp/r2518/365807.maple/molpro.RrG591KRCi
 Wavefunction directory         : /ddn/home1/r2518/wfu/
 Main file repository           : /tmp/r2518/365807.maple/molpro.RrG591KRCi/

 id        : olemiss

 Nodes     nprocs
 cn107        1

 Using customized tuning parameters: mindgm=1; mindgv=20; mindgc=4; mindgr=1; noblas=0; minvec=7
 default implementation of scratch files=df  


 Variables initialized (945), CPU time= 0.01 sec
 memory,1,g
 
 nocompress;
 
 geometry={
 3
 DF-CCSD(T)-F12/CC-PVTZ-F12  ENERGY=-76.36827708
 H          0.0000000000        0.7578204038        0.5219210812
 O          0.0000000000       -0.0000000012       -0.0660052896
 H          0.0000000000       -0.7578204026        0.5219210802
 }
 
 basis={
 default,cc-pVTZ-F12
 }
 set,charge=0
 set,spin=0
 df-hf
 DF-CCSD(T)-F12
 forces,varsav
 show[f20.15],gradx
 show[f20.15],grady
 show[f20.15],gradz
 Commands  initialized (802), CPU time= 0.01 sec, 659 directives.
 Default parameters read. Elapsed time= 0.10 sec

 Checking input...
 Passed
1


                                         ***  PROGRAM SYSTEM MOLPRO  ***
                                       Copyright, TTI GmbH Stuttgart, 2015
                                    Version 2020.1 linked Oct  6 2020 12:04:11


 **********************************************************************************************************************************
 LABEL *                                                                                 
  64 bit serial version                                                                  DATE: 13-Nov-20          TIME: 21:32:15  
 **********************************************************************************************************************************

 SHA1:             8c27446f6450a7499e38f603e13c65f775101d37
 **********************************************************************************************************************************

 Memory per process:      1000 MW
 Total memory per node:   1000 MW

 GA preallocation disabled
 GA check disabled

 Variable memory set to 1000.0 MW


 Input parameters for SORTINT:

 COMPRESS =    0.000000
 C_FINAL  =    1.000000
 DEBUG    =   -1.000000
 C_SORT1  =    0.000000
 C_SEWARD =    0.000000
 THRESH   =    0.000000
 IO       =  molpro                                                                                                                          
 SPRI     =    0.000000

 Geometry recognized as XYZ


 Turning off symmetry in density fitting calculation
 To re-enable, use 'symmetry,auto'

 SETTING BASIS          =    CC-PVTZ-F12
 SETTING CHARGE         =     0.00000000D+00                                  
 SETTING SPIN           =     0.00000000D+00                                  


 Recomputing integrals since basis changed


 Using spherical harmonics

 Library entry H      S cc-pVTZ-F12          selected for orbital group  1
 Library entry H      P cc-pVTZ-F12          selected for orbital group  1
 Library entry H      D cc-pVTZ-F12          selected for orbital group  1
 Library entry O      S cc-pVTZ-F12          selected for orbital group  2
 Library entry O      P cc-pVTZ-F12          selected for orbital group  2
 Library entry O      D cc-pVTZ-F12          selected for orbital group  2
 Library entry O      F cc-pVTZ-F12          selected for orbital group  2


 PROGRAM * SEWARD (Integral evaluation for generally contracted gaussian basis sets)     Author: Roland Lindh, 1990

 Geometry written to block  1 of record 700


 Point group  C1  



 ATOMIC COORDINATES

 NR  ATOM    CHARGE       X              Y              Z

   1  H       1.00    0.000000000    1.432073015    0.986287902
   2  O       8.00    0.000000000   -0.000000002   -0.124731920
   3  H       1.00    0.000000000   -1.432073013    0.986287900

 Bond lengths in Bohr (Angstrom)

 1-2  1.812511565  2-3  1.812511558
     ( 0.959139814)     ( 0.959139811)

 Bond angles

  1-2-3  104.39050213

 NUCLEAR CHARGE:                   10
 NUMBER OF PRIMITIVE AOS:         114
 NUMBER OF SYMMETRY AOS:          103
 NUMBER OF CONTRACTIONS:           89   (   89A   )
 NUMBER OF INNER CORE ORBITALS:     0   (    0A   )
 NUMBER OF OUTER CORE ORBITALS:     1   (    1A   )
 NUMBER OF VALENCE ORBITALS:        6   (    6A   )


 NUCLEAR REPULSION ENERGY    9.17667411

 EXTRA SYMMETRY OF AOS IN SYMMETRY 1:   1 1 1 1 2 1 1 2 1 1   2 1 1 1 2 2 1 1 1 1   1 1 1 1 2 1 1 2 1 1   2 1 1 2 1 1 2 1 1 2
                                        1 1 1 2 2 1 1 1 2 2   1 1 1 2 2 1 1 2 1 1   2 2 1 1 2 1 1 2 2 1   1 1 1 1 1 2 1 1 2 1
                                        1 2 1 1 1 2 2 1 1

 Eigenvalues of metric

         1 0.215E-03 0.452E-03 0.574E-03 0.691E-03 0.711E-03 0.796E-03 0.158E-02 0.202E-02


 OPERATOR DM      FOR CENTER  0  COORDINATES:    0.000000    0.000000    0.000000


 **********************************************************************************************************************************
 DATASETS  * FILE   NREC   LENGTH (MB)   RECORD NAMES
              1      18       30.29       500      610      700      900      950      970     1000      129      960     1100   
                                          VAR    BASINP    GEOM    SYMINP    ZMAT    AOBASIS   BASIS     P2S    ABASIS      S 
                                         1400     1410     1200     1210     1080     1600     1650     1700   
                                           T        V       H0       H01     AOSYM     SMH    MOLCAS    OPER   

 PROGRAMS   *        TOTAL       INT
 CPU TIMES  *         0.51      0.40
 REAL TIME  *         2.01 SEC
 DISK USED  *        30.60 MB
 **********************************************************************************************************************************


 PROGRAM * RHF-SCF (CLOSED SHELL)       Authors: W. Meyer, H.-J. Werner


 NUMBER OF ELECTRONS:       5+    5-    SPACE SYMMETRY=1    SPIN SYMMETRY: Singlet 
 CONVERGENCE THRESHOLDS:    1.00E-06 (Density)    1.00E-07 (Energy)
 INTEGRAL THRESHOLDS:       1.00E-11 (Initial)    1.00E-11 (Final)
 MAX. NUMBER OF ITERATIONS:       60
 INTERPOLATION TYPE:            DIIS
 INTERPOLATION STEPS:              2 (START)      1 (STEP)
 LEVEL SHIFTS:                  0.00 (CLOSED)  0.00 (OPEN) 




 Basis set AUG-CC-PVTZ/JKFIT generated.  Number of basis functions:   196 


 Basis set AUG-CC-PVTZ-JKFI loaded. Number of basis functions: 196
 Orbital guess generated from atomic densities. Full valence occupancy:    7
 Using density fitting in orbital guess

 Coulomb and exchange fitting
 Thresholds for fitting:       THRAO_COUL= 1.0D-14    THRAO_EXCH= 1.0D-12    THRMO= 1.0D-11    THRPROD= 1.0D-11    THRASM= 1.0D-11
                               THR2HLF=    1.0D-11

 Molecular orbital dump at record        2100.2

 Initial occupancy:   5

 ITERATION   DDIFF            GRAD            ENERGY        2-EL.EN.            DIPOLE MOMENTS         DIIS   CPU(IT)  CPU(TOT)  ORB.
    1      0.000D+00      0.000D+00       -76.02694341     77.651207    0.00000    0.00000    1.13702    0      0.1      0.1     start
    2      0.000D+00      0.106D-01       -76.05388859     74.065239    0.00000    0.00000    0.67672    1      0.0      0.2     diag
    3      0.112D-01      0.661D-02       -76.06490254     75.644231    0.00000    0.00000    0.79066    2      0.0      0.2     diag
    4      0.382D-02      0.625D-03       -76.06508735     75.553165    0.00000    0.00000    0.78705    3      0.0      0.2     diag
    5      0.556D-03      0.169D-03       -76.06510586     75.567159    0.00000    0.00000    0.78575    4      0.1      0.3     diag
    6      0.193D-03      0.324D-04       -76.06510696     75.566242    0.00000    0.00000    0.78547    5      0.1      0.4     diag
    7      0.546D-04      0.635D-05       -76.06510701     75.566384    0.00000    0.00000    0.78537    6      0.0      0.4     diag
    8      0.116D-04      0.126D-05       -76.06510701     75.566375    0.00000    0.00000    0.78533    7      0.1      0.4     diag
    9      0.217D-05      0.159D-06       -76.06510701     75.566367    0.00000    0.00000    0.78532    8      0.1      0.5     diag
   10      0.424D-06      0.320D-07       -76.06510701     75.566371    0.00000    0.00000    0.78532    0      0.0      0.5     orth

 Final occupancy:   5

 !RHF STATE  1.1 Energy               -76.065107009883
 Nuclear energy                         9.17667411
 One-electron energy                 -123.02496648
 Two-electron energy                   37.78318536
 Virial quotient                       -1.00102290
 !RHF STATE  1.1 Dipole moment          0.00000000     0.00000000     0.78532169
 Dipole moment /Debye                   0.00000000     0.00000000     1.99595789

 Orbital energies:

         1.1          2.1          3.1          4.1          5.1          6.1          7.1
    -20.565287    -1.352082    -0.716634    -0.584900    -0.510395     0.101836     0.120736


 HOMO      5.1    -0.510395 =     -13.8886eV
 LUMO      6.1     0.101836 =       2.7711eV
 LUMO-HOMO         0.612232 =      16.6597eV


 **********************************************************************************************************************************
 DATASETS  * FILE   NREC   LENGTH (MB)   RECORD NAMES
              1      18       30.29       500      610      700      900      950      970     1000      129      960     1100   
                                          VAR    BASINP    GEOM    SYMINP    ZMAT    AOBASIS   BASIS     P2S    ABASIS      S 
                                         1400     1410     1200     1210     1080     1600     1650     1700   
                                           T        V       H0       H01     AOSYM     SMH    MOLCAS    OPER   

              2       4        2.95       700     1000      520     2100   
                                         GEOM     BASIS   MCVARS     RHF  

 PROGRAMS   *        TOTAL     DF-HF       INT
 CPU TIMES  *         1.06      0.55      0.40
 REAL TIME  *         3.16 SEC
 DISK USED  *        34.55 MB
 **********************************************************************************************************************************


 PROGRAM * CCSD (Closed-shell coupled cluster)     Authors: C. Hampel, H.-J. Werner, 1991, M. Deegan, P.J. Knowles, 1992

                    Density fitting coupled cluster methods (ITF), W. Gyorffy, 2015

                                  CCSD-F12 implementation by  H.-J. Werner, 2007

                   Density fitting integral evaluation by F.R. Manby, 2003,2007, G. Knizia, 2010


 Basis set CC-PVTZ-F12/OPTRI generated.  Number of basis functions:   157 

 Generating union of orbital basis set CC-PVTZ-F12 and corresponding OPTRI basis

 Basis set CC-PVTZ-F12_CABS generated.   Number of basis functions:   246 
 Basis set AUG-CC-PVTZ/MP2FIT generated. Number of basis functions:   198 

 Convergence thresholds:  THRVAR = 1.00D-12  THRDEN = 1.00D-08

 CCSD(T)     terms to be evaluated (factor= 1.000)


 Using ITF DF-CCSD(T)-F12 gradient implementation

 Number of core orbitals:           1 (   1 )
 Number of closed-shell orbitals:   4 (   4 )
 Number of external orbitals:      84 (  84 )

 Molecular orbitals read from record     2100.2  Type=RHF/CANONICAL (state 1.1)
 Ansatz: F12/3*C(FIX,HY1)
 F12b method
 Enter DF-CCSD-F12 [ITF]

 Geminal basis:    OPTFULL  GEM_TYPE=SLATER  BETA=1.0  NGEM=6

 Optimizing Gaussian exponents for each gem_beta

 Geminal optimization for beta= 1.0000
 Weight function:   m=0, omega= 1.4646

 Augmented Hessian optimization of geminal fit. Trust ratio= 0.40000
 Convergence reached after   2 iterations. Final gradient= 8.66D-16, Step= 4.23D-06, Delta= 1.28D-09

 Alpha:                 0.19532     0.81920     2.85917     9.50073    35.69989   197.79328
 Coeff:                 0.27070     0.30552     0.18297     0.10986     0.06810     0.04224



  Reference energy:                   -76.065107009883
  MP2 correlation energy:              -0.273094172533

  !MP2 total energy:                  -76.338201182416

  DF-MP2-F12 energy corrections:
  ==============================
  Approx.                                    Total
  DF-MP2-F12/3*C(DX,FIX):              -0.028281251059
  DF-MP2-F12/3*C(FIX):                 -0.025951619566

  DF-MP2-F12 correlation energies:
  ================================
  Approx.                                    Ecorr
  DF-MP2:                              -0.273094172533
  DF-MP2-F12/3*C(DX,FIX):              -0.301375423592
  DF-MP2-F12/3*C(FIX):                 -0.299045792100

  Reference energy:                   -76.065107009883
  MP2-F12 correlation energy:          -0.299045792100

  !MP2-F12 total energy:              -76.364152801982
  MP2 correlation energy:              -0.273094172533
  PT2 correlation energy:              -0.273094172534

 Transformed 3-ext integrals are computed and stored!

 Transformed 4-ext integrals are computed and stored!

 ITER.      SQ.NORM     CORR.ENERGY   TOTAL ENERGY   ENERGY CHANGE        DEN1      VAR(S)    VAR(P)  DIIS     TIME
   1      1.06154804    -0.27261835   -76.33772536     0.00047583     0.00578876  7.70e-04  9.28e-04  1  1     0.10
   2      1.06482890    -0.27276222   -76.33786923    -0.00014388    -0.00474198  4.29e-05  1.05e-04  2  2     0.20
   3      1.06571593    -0.27298322   -76.33809023    -0.00022100    -0.00039786  1.20e-06  1.67e-05  3  3     0.29
   4      1.06626160    -0.27299944   -76.33810645    -0.00001622    -0.00042545  4.91e-08  1.60e-06  4  4     0.42
   5      1.06641116    -0.27300027   -76.33810728    -0.00000083    -0.00010386  5.93e-09  1.31e-07  5  5     0.53
   6      1.06644390    -0.27300015   -76.33810716     0.00000012    -0.00002301  7.01e-11  4.50e-09  6  0     0.64
   7      1.06644637    -0.27300021   -76.33810722    -0.00000005    -0.00000252  1.71e-11  1.61e-10  6  1     0.74
   8      1.06644627    -0.27300021   -76.33810722    -0.00000000    -0.00000013  1.63e-13  9.03e-12  6  2     0.84
   9      1.06644623    -0.27300021   -76.33810722    -0.00000000     0.00000001  1.96e-14  6.78e-13           0.93

 Norm of t1 vector:      0.03494571     S-energy:     -0.00000000   T1 diagnostic:  0.00873643

 Time per iteration:                      0.10 sec


  F12b       energy corrections:
  ==============================
  CC-F12b:                              0.004512190047
  
  RESULTS
  =======

  Reference energy:                   -76.065107009883
  CCSD correlation energy:             -0.273000211089
 !CCSD total energy:                  -76.338107220972

  Triples (T) contribution:            -0.008730428794
  Total correlation energy:            -0.281730639883
  CCSD[T] total energy:               -76.347128678395
  CCSD(T) total energy:               -76.346837649765
  DF-MP2-F12 energy corrections:
  ==============================
  Approx.                                    Total
  DF-MP2-F12/3*C(DX,FIX):              -0.028281251059
  DF-MP2-F12/3*C(FIX):                 -0.025951619566

  DF-MP2-F12 correlation energies:
  ================================
  Approx.                                    Ecorr
  DF-MP2:                              -0.273094172533
  DF-MP2-F12/3*C(DX,FIX):              -0.301375423592
  DF-MP2-F12/3*C(FIX):                 -0.299045792100

  Reference energy:                   -76.065107009883
  MP2-F12 correlation energy:          -0.299045792100

  !MP2-F12 total energy:              -76.364152801982

  CCSD(T)-F12 correlation energies:
  ================================
  Approx.                                    Ecorr
  CCSD(T):                             -0.281730639883
  CCSD(T)-F12/3*C(DX,FIX):             -0.310011890941
  CCSD(T)-F12/3*C(FIX):                -0.303170069402

  Reference energy:                   -76.065107009883
  CCSD(T)-F12 correlation energy:      -0.303170069402

  !CCSD(T)-F12 total energy:          -76.368277079284

 Starting CP-CCSD-F12(T) iterations.   Author: W. Gyorffy (2015)

 ITER.      NRM1           NRM2      VAR(S)+VAR(P)   DIIS    TIME
   1     0.00053381     0.25806835     3.62e-03      1  1    0.13
   2     0.00065023     0.25512650     6.78e-05      2  2    0.24
   3     0.00063761     0.25607116     2.96e-06      3  3    0.36
   4     0.00064684     0.25611994     2.84e-07      4  4    0.45
   5     0.00065022     0.25615401     6.18e-08      5  5    0.57
   6     0.00065302     0.25615778     8.69e-09      6  0    0.69
   7     0.00065403     0.25615968     9.55e-10      6  1    0.78
   8     0.00065432     0.25616069     4.60e-11      6  2    0.92
   9     0.00065434     0.25616100     2.51e-12      6  3    1.01
  10     0.00065433     0.25616110     2.09e-13              1.13


 Time per iteration:                      0.11 sec


 ===============================================================
 One-body density matrix check:   DF-MP2-F12 energy corrections:
  DF-MP2-F12/3*C(FIX)(1rdm):           -0.025951619566
 ===============================================================

 Starting coupled-perturbed Hartree-Fock, convergence threshold= 1e-06

 ITER   MIC  DIIS         VAR       VAReC       VARec      CPU
    1           1    6.72e-04    1.62e-05    6.72e-04     0.03
    2           2    2.73e-04    3.49e-06    2.73e-04     0.07
    3           3    1.14e-04    1.69e-06    1.14e-04     0.10
    4           4    2.85e-05    6.08e-07    2.85e-05     0.14
    5           5    7.40e-06    3.34e-08    7.40e-06     0.18
    6           6    1.06e-06    1.94e-08    1.06e-06     0.23
    7                1.74e-07    2.19e-09    1.74e-07     0.26

 CPHF convergence reached in 7 macroiterations. Accuracy: 1.74e-07
  Timings in the CPHF solver


 Dipole moments (unrelaxed,MP2):       -0.00000000    -0.00000000    -0.05184424
 Dipole moments (unrelaxed,F12):       -0.00000000     0.00000000    -0.00000004

 CPHF solution written to record  8500.2

 Dipole moments (unrelaxed):            0.00000000     0.00000000     0.73347740
 Orbital relaxation contribution:       0.00000000     0.00000000     0.00296155
 !CCSD-F12(T) STATE  1.1 Dipole mom     0.00000000     0.00000000     0.73643895
 Dipole moment /Debye                   0.00000000     0.00000000     1.87171850

 Number of N-1 electron functions:               4
 Number of N-2 electron functions:              10
 Number of singly external CSFs:               336
 Number of doubly external CSFs:             56616
 Total number of CSFs:                       56953

 DF-CCSD(T)-F12 gradient info saved on record        55555.1




 **********************************************************************************************************************************
 DATASETS  * FILE   NREC   LENGTH (MB)   RECORD NAMES
              1      19       30.48       500      610      700      900      950      970     1000      129      960     1100   
                                          VAR    BASINP    GEOM    SYMINP    ZMAT    AOBASIS   BASIS     P2S    ABASIS      S 
                                         1400     1410     1200     1210     1080     1600     1650     1700    55555   
                                           T        V       H0       H01     AOSYM     SMH    MOLCAS    OPER      MP2  

              2       6        3.27       700     1000      520     2100    57001     8500   
                                         GEOM     BASIS   MCVARS     RHF              CPHF   

 PROGRAMS   *        TOTAL   CCSD(T)     DF-HF       INT
 CPU TIMES  *        30.43     29.35      0.55      0.40
 REAL TIME  *        39.65 SEC
 DISK USED  *         4.25 GB
 **********************************************************************************************************************************


 PROGRAM * ALASKA (Gradient of the energy)     Author: R. Lindh


 MP2      Gradient info restored from record   55555.1

 Number of core orbitals:           1 (   1 )
 Number of closed-shell orbitals:   4 (   4 )
 Number of external orbitals:      84 (  84 )

 DF-CCSD(T)-F12 GRADIENT FOR STATE 1.1

 Atom          dE/dx               dE/dy               dE/dz

   1         0.000000000         0.000006530        -0.000009648
   2        -0.000000000        -0.000000003         0.000019297
   3        -0.000000000        -0.000006527        -0.000009650

 Nuclear force contribution to virial =        -0.000002741


 **********************************************************************************************************************************
 DATASETS  * FILE   NREC   LENGTH (MB)   RECORD NAMES
              1      19       30.48       500      610      700      900      950      970     1000      129      960     1100   
                                          VAR    BASINP    GEOM    SYMINP    ZMAT    AOBASIS   BASIS     P2S    ABASIS      S 
                                         1400     1410     1200     1210     1080     1600     1650     1700    55555   
                                           T        V       H0       H01     AOSYM     SMH    MOLCAS    OPER      MP2  

              2       6        3.27       700     1000      520     2100    57001     8500   
                                         GEOM     BASIS   MCVARS     RHF              CPHF   

 PROGRAMS   *        TOTAL    FORCES   CCSD(T)     DF-HF       INT
 CPU TIMES  *        30.44      0.01     29.35      0.55      0.40
 REAL TIME  *        39.69 SEC
 DISK USED  *         4.25 GB
 **********************************************************************************************************************************
 GRADX(1:3)       = [     0.000000000000001  -0.000000000000001  -0.000000000000000] AU
 GRADY(1:3)       = [     0.000006529941679  -0.000000002767233  -0.000006527174443] AU
 GRADZ(1:3)       = [    -0.000009647522093   0.000019297219821  -0.000009649697733] AU

 DF-CCSD(T)-F12/cc-pVTZ-F12 energy=    -76.368277079284

  DF-CCSD(T)-F12           DF-HF
    -76.36827708    -76.06510701
 **********************************************************************************************************************************
 Molpro calculation terminated
