
 Primary working directories    : /tmp/r2666/282160.maple
 Secondary working directories  : /tmp/r2666/282160.maple
 Wavefunction directory         : /ddn/home4/r2666/wfu/
 Main file repository           : /tmp/r2666/282160.maple/

 SHA1      : d5ffa45e93fdbca01ffc919aa182cfdae0147319
 NAME      : 2015.1.35
 ARCHNAME  : linux/x86_64
 FC        : /opt/intel/composer_xe_2015.1.133/bin/intel64/ifort
 BLASLIB   : -Wl,-_start-group /opt/intel/mkl/lib/intel64/libmkl_intel_ilp64.a /opt/intel/mkl/lib/intel64/libmkl_intel_thread.a /opt/intel/mkl/lib/intel64/libmkl_core.a -Wl,-_end-group
 id        : olemiss

 Nodes     nprocs
 cn084        1

 Using customized tuning parameters: mindgm=1; mindgv=20; mindgc=4; mindgr=1; noblas=0; minvec=7
 default implementation of scratch files=df  

 ***,hno CCSD(T)/TZ-F12 QFF
 memory, 995, m;
 gthresh,energy=1.d-12,zero=1.d-22,oneint=1.d-22,twoint=1.d-22;
 gthresh,optgrad=1.d-8,optstep=1.d-8;
 nocompress;
 geomtyp=xyz
 bohr
 geometry={
 3
         57        57
 H        0.0000000000        1.6658293541       -1.9234668749
 N        0.0000000000       -0.1637086659       -1.1455474363
 O        0.0000000000        0.0396471018        1.1184247202
 }
 
 basis=avtz
   {hf,maxit=500;accu,20;}
 {ccsd(t),nocheck,maxit=250;orbital,IGNORE_ERROR;}

 Variables initialized (889), CPU time= 0.00 sec
 Commands  initialized (702), CPU time= 0.02 sec, 572 directives.
 Default parameters read. Elapsed time= 0.04 sec

 Checking input...
 Passed
1


                                         ***  PROGRAM SYSTEM MOLPRO  ***
                                       Copyright, TTI GmbH Stuttgart, 2015
                                    Version 2015.1 linked Jul  9 2018 13:16:40


 **********************************************************************************************************************************
 LABEL *   hno CCSD(T)/TZ-F12 QFF                                                        
  64 bit serial version                                                                  DATE: 04-Mar-20          TIME: 13:46:22  
 **********************************************************************************************************************************

 SHA1:             d5ffa45e93fdbca01ffc919aa182cfdae0147319
 **********************************************************************************************************************************

 THRESHOLDS:

 ZERO    =  1.00D-22  ONEINT  =  1.00D-22  TWOINT  =  1.00D-22  PREFAC  =  1.00D-14  LOCALI  =  1.00D-09  EORDER  =  1.00D-04
 ENERGY  =  1.00D-12  ETEST   =  0.00D+00  EDENS   =  0.00D+00  THRDEDEF=  1.00D-06  GRADIENT=  1.00D-02  STEP    =  1.00D-03
 ORBITAL =  1.00D-05  CIVEC   =  1.00D-05  COEFF   =  1.00D-04  PRINTCI =  5.00D-02  PUNCHCI =  9.90D+01  OPTGRAD =  3.00D-04
 OPTENERG=  1.00D-06  OPTSTEP =  3.00D-04  THRGRAD =  1.00D-10  COMPRESS=  1.00D-11  VARMIN  =  1.00D-07  VARMAX  =  1.00D-03
 THRDOUB =  0.00D+00  THRDIV  =  1.00D-05  THRRED  =  1.00D-07  THRPSP  =  1.00D+00  THRDC   =  1.00D-10  THRCS   =  1.00D-10
 THRNRM  =  1.00D-08  THREQ   =  0.00D+00  THRDE   =  1.00D+00  THRREF  =  1.00D-05  SPARFAC =  1.00D+00  THRDLP  =  1.00D-07
 THRDIA  =  1.00D-10  THRDLS  =  1.00D-07  THRGPS  =  0.00D+00  THRKEX  =  0.00D+00  THRDIS  =  2.00D-01  THRVAR  =  1.00D-10
 THRLOC  =  1.00D-06  THRGAP  =  1.00D-06  THRLOCT = -1.00D+00  THRGAPT = -1.00D+00  THRORB  =  1.00D-06  THRMLTP =  0.00D+00
 THRCPQCI=  1.00D-10  KEXTA   =  0.00D+00  THRCOARS=  0.00D+00  SYMTOL  =  1.00D-06  GRADTOL =  1.00D-06  THROVL  =  1.00D-08
 THRORTH =  1.00D-08  GRID    =  1.00D-06  GRIDMAX =  1.00D-03  DTMAX   =  0.00D+00  THROCCDE=  1.00D-01  THROCCDE=  1.00D-01



 THRESHOLDS:

 ZERO    =  1.00D-22  ONEINT  =  1.00D-22  TWOINT  =  1.00D-22  PREFAC  =  1.00D-14  LOCALI  =  1.00D-09  EORDER  =  1.00D-04
 ENERGY  =  1.00D-12  ETEST   =  0.00D+00  EDENS   =  0.00D+00  THRDEDEF=  1.00D-06  GRADIENT=  1.00D-02  STEP    =  1.00D-03
 ORBITAL =  1.00D-05  CIVEC   =  1.00D-05  COEFF   =  1.00D-04  PRINTCI =  5.00D-02  PUNCHCI =  9.90D+01  OPTGRAD =  1.00D-08
 OPTENERG=  1.00D-06  OPTSTEP =  1.00D-08  THRGRAD =  1.00D-10  COMPRESS=  1.00D-11  VARMIN  =  1.00D-07  VARMAX  =  1.00D-03
 THRDOUB =  0.00D+00  THRDIV  =  1.00D-05  THRRED  =  1.00D-07  THRPSP  =  1.00D+00  THRDC   =  1.00D-10  THRCS   =  1.00D-10
 THRNRM  =  1.00D-08  THREQ   =  0.00D+00  THRDE   =  1.00D+00  THRREF  =  1.00D-05  SPARFAC =  1.00D+00  THRDLP  =  1.00D-07
 THRDIA  =  1.00D-10  THRDLS  =  1.00D-07  THRGPS  =  0.00D+00  THRKEX  =  0.00D+00  THRDIS  =  2.00D-01  THRVAR  =  1.00D-10
 THRLOC  =  1.00D-06  THRGAP  =  1.00D-06  THRLOCT = -1.00D+00  THRGAPT = -1.00D+00  THRORB  =  1.00D-06  THRMLTP =  0.00D+00
 THRCPQCI=  1.00D-10  KEXTA   =  0.00D+00  THRCOARS=  0.00D+00  SYMTOL  =  1.00D-06  GRADTOL =  1.00D-06  THROVL  =  1.00D-08
 THRORTH =  1.00D-08  GRID    =  1.00D-06  GRIDMAX =  1.00D-03  DTMAX   =  0.00D+00  THROCCDE=  1.00D-01  THROCCDE=  1.00D-01



 Input parameters for SORTINT:

 COMPRESS =    0.000000
 C_FINAL  =    1.000000
 DEBUG    =   -1.000000
 C_SORT1  =    0.000000
 C_SEWARD =    0.000000
 THRESH   =    0.000000
 IO       =  molpro                                                          
 SPRI     =    0.000000
 SETTING GEOMTYP        =    XYZ
 ZUNIT=BOHR
 

 Variable memory set to  995000000 words,  buffer space   230000 words

 SETTING BASIS          =    AVTZ


 Recomputing integrals since basis changed


 Using spherical harmonics

 Library entry H      S aug-cc-pVTZ          selected for orbital group  1
 Library entry H      P aug-cc-pVTZ          selected for orbital group  1
 Library entry H      D aug-cc-pVTZ          selected for orbital group  1
 Library entry N      S aug-cc-pVTZ          selected for orbital group  2
 Library entry N      P aug-cc-pVTZ          selected for orbital group  2
 Library entry N      D aug-cc-pVTZ          selected for orbital group  2
 Library entry N      F aug-cc-pVTZ          selected for orbital group  2
 Library entry O      S aug-cc-pVTZ          selected for orbital group  3
 Library entry O      P aug-cc-pVTZ          selected for orbital group  3
 Library entry O      D aug-cc-pVTZ          selected for orbital group  3
 Library entry O      F aug-cc-pVTZ          selected for orbital group  3


 PROGRAM * SEWARD (Integral evaluation for generally contracted gaussian basis sets)     Author: Roland Lindh, 1990

 Geometry written to block  1 of record 700


 Point group  Cs  



 ATOMIC COORDINATES

 NR  ATOM    CHARGE       X              Y              Z

   1  H       1.00    0.000000000    1.665829354   -1.923466875
   2  N       7.00    0.000000000   -0.163708666   -1.145547436
   3  O       8.00    0.000000000    0.039647102    1.118424720

 Bond lengths in Bohr (Angstrom)

 1-2  1.988056342  2-3  2.273086777
     ( 1.052034110)     ( 1.202865721)

 Bond angles

  1-2-3  107.90251459

 NUCLEAR CHARGE:                   16
 NUMBER OF PRIMITIVE AOS:         161
 NUMBER OF SYMMETRY AOS:          141
 NUMBER OF CONTRACTIONS:          115   (  76A'  +  39A"  )
 NUMBER OF CORE ORBITALS:           2   (   2A'  +   0A"  )
 NUMBER OF VALENCE ORBITALS:        9   (   7A'  +   2A"  )


 NUCLEAR REPULSION ENERGY   30.47645064

 Eigenvalues of metric

         1 0.230E-03 0.498E-03 0.179E-02 0.211E-02 0.249E-02 0.350E-02 0.429E-02 0.513E-02
         2 0.389E-02 0.101E-01 0.260E-01 0.370E-01 0.512E-01 0.621E-01 0.810E-01 0.119E+00


 Contracted 2-electron integrals neglected if value below      1.0D-22

       10790064. INTEGRALS WRITTEN OUT IN    2635 BLOCKS ON RECORD 1290 OF FILE 1


 NUMBER OF SORTED TWO-ELECTRON INTEGRALS:   11433631.     BUFFER LENGTH:  32768
 NUMBER OF SEGMENTS:   1  SEGMENT LENGTH:   11433631      RECORD LENGTH: 524288

 Memory used in sort:      11.99 MW

 SORT1 READ    10790064. AND WROTE    10943632. INTEGRALS IN     32 RECORDS. CPU TIME:     0.15 SEC, REAL TIME:     0.22 SEC
 SORT2 READ    10943632. AND WROTE    11433631. INTEGRALS IN      1 RECORDS. CPU TIME:     0.16 SEC, REAL TIME:     0.22 SEC

 FILE SIZES:   FILE 1:   193.0 MBYTE,  FILE 4:   134.3 MBYTE,   TOTAL:    327.2 MBYTE

 OPERATOR DM      FOR CENTER  0  COORDINATES:    0.000000    0.000000    0.000000


 **********************************************************************************************************************************
 DATASETS  * FILE   NREC   LENGTH (MB)   RECORD NAMES
              1      19      111.05       500      610      700      900      950      970     1000      129      960     1100   
                                          VAR    BASINP    GEOM    SYMINP    ZMAT    AOBASIS   BASIS     P2S    ABASIS      S 
                                         1400     1410     1200     1210     1080     1600     1650     1300     1700   
                                           T        V       H0       H01     AOSYM     SMH    MOLCAS    ERIS     OPER   

 PROGRAMS   *        TOTAL       INT
 CPU TIMES  *         1.25      1.16
 REAL TIME  *         1.95 SEC
 DISK USED  *       327.55 MB      
 **********************************************************************************************************************************


 PROGRAM * RHF-SCF (CLOSED SHELL)       Authors: W. Meyer, H.-J. Werner


 NUMBER OF ELECTRONS:       8+    8-
 CONVERGENCE THRESHOLDS:    1.00E-10 (Density)    1.00E-13 (Energy)
 MAX. NUMBER OF ITERATIONS:      500
 INTERPOLATION TYPE:            DIIS
 INTERPOLATION STEPS:              2 (START)      1 (STEP)
 LEVEL SHIFTS:                  0.00 (CLOSED)  0.00 (OPEN) 



 Orbital guess generated from atomic densities. Full valence occupancy:    9   2

 Molecular orbital dump at record        2100.2

 Initial occupancy:   7   1

 ITERATION    DDIFF          GRAD             ENERGY        2-EL.EN.            DIPOLE MOMENTS         DIIS   ORB.
    1      0.000D+00      0.000D+00      -129.78972402    154.089260    0.00000    0.58722   -1.00392    0    start
    2      0.000D+00      0.107D-01      -129.81734212    155.367035    0.00000    0.60778   -0.21091    1    diag
    3      0.118D-01      0.809D-02      -129.83916042    155.467240    0.00000    0.55378   -0.58383    2    diag
    4      0.584D-02      0.127D-02      -129.83994007    155.183009    0.00000    0.56150   -0.52485    3    diag
    5      0.107D-02      0.418D-03      -129.84006389    155.276428    0.00000    0.56705   -0.52772    4    diag
    6      0.446D-03      0.121D-03      -129.84008362    155.260933    0.00000    0.56745   -0.52373    5    diag
    7      0.170D-03      0.595D-04      -129.84008921    155.263491    0.00000    0.56871   -0.52124    6    diag
    8      0.117D-03      0.199D-04      -129.84008979    155.262852    0.00000    0.56874   -0.52029    7    diag
    9      0.427D-04      0.374D-05      -129.84008981    155.262749    0.00000    0.56870   -0.52008    8    diag
   10      0.813D-05      0.861D-06      -129.84008981    155.262730    0.00000    0.56867   -0.52005    9    orth
   11      0.169D-05      0.173D-06      -129.84008981    155.262727    0.00000    0.56866   -0.52005    9    diag
   12      0.331D-06      0.354D-07      -129.84008981    155.262727    0.00000    0.56866   -0.52005    9    diag
   13      0.717D-07      0.884D-08      -129.84008981    155.262727    0.00000    0.56866   -0.52005    9    diag
   14      0.185D-07      0.184D-08      -129.84008981    155.262727    0.00000    0.56866   -0.52005    9    diag
   15      0.372D-08      0.520D-09      -129.84008981    155.262727    0.00000    0.56866   -0.52005    9    diag
   16      0.101D-08      0.145D-09      -129.84008981    155.262727    0.00000    0.56866   -0.52005    9    diag
   17      0.187D-09      0.421D-10      -129.84008981    155.262727    0.00000    0.56866   -0.52005    9    diag
   18      0.536D-10      0.150D-10      -129.84008981    155.262727    0.00000    0.56866   -0.52005    9    diag
   19      0.270D-10      0.336D-11      -129.84008981    155.262727    0.00000    0.56866   -0.52005    9    fixocc
   20      0.653D-11      0.563D-12      -129.84008981    155.262727    0.00000    0.56866   -0.52005    9    orth
   21      0.168D-11      0.195D-12      -129.84008981    155.262727    0.00000    0.56866   -0.52005    9    diag
   22      0.161D-11      0.907D-13      -129.84008981    155.262727    0.00000    0.56866   -0.52005    9    diag
   23      0.108D-11      0.706D-13      -129.84008981    155.262727    0.00000    0.56866   -0.52005    9    diag
   24      0.527D-12      0.433D-13      -129.84008981    155.262727    0.00000    0.56866   -0.52005    9    diag
   25      0.330D-12      0.592D-13      -129.84008981    155.262727    0.00000    0.56866   -0.52005    9    diag
   26      0.287D-12      0.437D-13      -129.84008981    155.262727    0.00000    0.56866   -0.52005    9    diag
   27      0.127D-12      0.459D-13      -129.84008981    155.262727    0.00000    0.56866   -0.52005    9    diag
   28      0.254D-13      0.432D-13      -129.84008981    155.262727    0.00000    0.56866   -0.52005    9    diag
   29      0.848D-13      0.375D-13      -129.84008981    155.262727    0.00000    0.56866   -0.52005    9    diag
   30      0.206D-13      0.482D-13      -129.84008981    155.262727    0.00000    0.56866   -0.52005    0    orth

 Final occupancy:   7   1

 !RHF STATE 1.1 Energy               -129.840089813808
 Nuclear energy                        30.47645064
 One-electron energy                 -237.94790395
 Two-electron energy                   77.63136349
 Virial quotient                       -1.00199117
 !RHF STATE 1.1 Dipole moment           0.00000000     0.56865719    -0.52005022
 Dipole moment /Debye                   0.00000000     1.44528775    -1.32174924

 Orbital energies:

         1.1          2.1          3.1          4.1          5.1          6.1          7.1          8.1          9.1
    -20.655992   -15.713639    -1.535121    -0.993672    -0.748888    -0.667504    -0.429071     0.029278     0.092202

         1.2          2.2          3.2
     -0.598701     0.066332     0.130343

 HOMO      7.1    -0.429071 =     -11.6756eV
 LUMO      8.1     0.029278 =       0.7967eV
 LUMO-HOMO         0.458348 =      12.4723eV


 **********************************************************************************************************************************
 DATASETS  * FILE   NREC   LENGTH (MB)   RECORD NAMES
              1      19      111.05       500      610      700      900      950      970     1000      129      960     1100   
                                          VAR    BASINP    GEOM    SYMINP    ZMAT    AOBASIS   BASIS     P2S    ABASIS      S 
                                         1400     1410     1200     1210     1080     1600     1650     1300     1700   
                                           T        V       H0       H01     AOSYM     SMH    MOLCAS    ERIS     OPER   

              2       4        2.94       700     1000      520     2100   
                                         GEOM     BASIS   MCVARS     RHF  

 PROGRAMS   *        TOTAL        HF       INT
 CPU TIMES  *         2.77      1.52      1.16
 REAL TIME  *         3.81 SEC
 DISK USED  *       327.55 MB      
 **********************************************************************************************************************************


 PROGRAM * CCSD (Closed-shell coupled cluster)     Authors: C. Hampel, H.-J. Werner, 1991, M. Deegan, P.J. Knowles, 1992


 Convergence thresholds:  THRVAR = 1.00D-08  THRDEN = 1.00D-12

 CCSD(T)     terms to be evaluated (factor= 1.000)


 Number of core orbitals:           2 (   2   0 )
 Number of closed-shell orbitals:   6 (   5   1 )
 Number of external orbitals:     107 (  69  38 )

 Molecular orbitals read from record     2100.2  Type=RHF/CANONICAL (state 1.1)

 Number of N-1 electron functions:               6
 Number of N-2 electron functions:              21
 Number of singly external CSFs:               383
 Number of doubly external CSFs:            107206
 Total number of CSFs:                      107590

 Length of J-op  integral file:               0.00 MB
 Length of K-op  integral file:               0.54 MB
 Length of 3-ext integral record:             0.00 MB

 Memory could be reduced to 5.94 Mwords without degradation in triples

 Integral transformation finished. Total CPU:   0.14 sec, npass=  1  Memory used:   1.65 MW

 Reference energy:                   -129.84008981

 MP2 singlet pair energy:              -0.27890627
 MP2 triplet pair energy:              -0.16482611
 MP2 correlation energy:               -0.44373238
 MP2 total energy:                   -130.28382219

 SCS-MP2 correlation energy:           -0.43724599   (PS=  1.200000  PT=  0.333333)
 SCS-MP2 total energy:               -130.27733581

 ITER.      SQ.NORM     CORR.ENERGY   TOTAL ENERGY   ENERGY CHANGE        DEN1      VAR(S)    VAR(P)  DIIS     TIME  TIME/IT
   1      1.12038350    -0.44803801  -130.28812782    -0.00430563     0.01154337  0.31D-02  0.31D-02  1  1     0.29     0.16
   2      1.13137792    -0.44827484  -130.28836466    -0.00023684    -0.01231851  0.98D-04  0.50D-03  2  2     0.42     0.16
   3      1.13775837    -0.44866597  -130.28875578    -0.00039112    -0.00296789  0.52D-04  0.50D-04  3  3     0.58     0.17
   4      1.14058090    -0.44867725  -130.28876707    -0.00001129    -0.00095913  0.40D-05  0.90D-05  4  4     0.73     0.17
   5      1.14159783    -0.44870505  -130.28879486    -0.00002779    -0.00021559  0.11D-05  0.16D-05  5  5     0.88     0.17
   6      1.14193175    -0.44868874  -130.28877855     0.00001631    -0.00004069  0.98D-07  0.39D-06  6  6     1.04     0.17
   7      1.14200580    -0.44868982  -130.28877964    -0.00000109    -0.00000188  0.19D-07  0.90D-07  6  1     1.19     0.17
   8      1.14202712    -0.44869054  -130.28878035    -0.00000071     0.00000149  0.36D-08  0.16D-07  6  2     1.32     0.17
   9      1.14203238    -0.44869011  -130.28877992     0.00000043     0.00000042  0.27D-08  0.18D-08  6  4     1.47     0.17
  10      1.14203460    -0.44869058  -130.28878039    -0.00000047    -0.00000068  0.43D-09  0.20D-09  6  3     1.61     0.17
  11      1.14203410    -0.44869060  -130.28878042    -0.00000002    -0.00000006  0.15D-09  0.31D-10  6  5     1.75     0.17
  12      1.14203306    -0.44869075  -130.28878056    -0.00000015     0.00000033  0.17D-10  0.10D-10  6  6     1.91     0.17
  13      1.14203224    -0.44869078  -130.28878060    -0.00000003     0.00000021  0.60D-11  0.20D-11  6  1     2.06     0.17
  14      1.14203172    -0.44869081  -130.28878062    -0.00000003     0.00000013  0.96D-12  0.65D-12  6  2     2.19     0.17
  15      1.14203150    -0.44869082  -130.28878063    -0.00000001     0.00000003  0.26D-12  0.21D-12  6  4     2.32     0.17
  16      1.14203141    -0.44869082  -130.28878063    -0.00000000     0.00000001  0.49D-13  0.74D-13  6  3     2.47     0.17
  17      1.14203136    -0.44869082  -130.28878063    -0.00000000     0.00000001  0.36D-14  0.17D-13  6  5     2.61     0.17
  18      1.14203135    -0.44869082  -130.28878063     0.00000000    -0.00000000  0.13D-14  0.36D-14  6  6     2.75     0.17
  19      1.14203135    -0.44869082  -130.28878063    -0.00000000     0.00000000  0.10D-14  0.64D-15  6  1     2.90     0.17
  20      1.14203135    -0.44869082  -130.28878063     0.00000000    -0.00000000  0.21D-15  0.12D-15  6  2     3.04     0.17
  21      1.14203135    -0.44869082  -130.28878063     0.00000000    -0.00000000  0.51D-16  0.29D-16  6  3     3.19     0.17
  22      1.14203135    -0.44869082  -130.28878063     0.00000000     0.00000000  0.58D-17  0.26D-17  6  4     3.34     0.17
  23      1.14203135    -0.44869082  -130.28878063     0.00000000    -0.00000000  0.21D-17  0.53D-18  6  5     3.48     0.17
  24      1.14203135    -0.44869082  -130.28878063     0.00000000     0.00000000  0.14D-18  0.46D-19  6  2     3.63     0.17
  25      1.14203135    -0.44869082  -130.28878063    -0.00000000    -0.00000000  0.20D-19  0.11D-19  6  6     3.78     0.17
  26      1.14203135    -0.44869082  -130.28878063     0.00000000    -0.00000000  0.32D-20  0.19D-20  6  1     3.91     0.17
  27      1.14203135    -0.44869082  -130.28878063    -0.00000000    -0.00000000  0.46D-21  0.45D-21  6  4     4.06     0.17

 Norm of t1 vector:      0.07753372      S-energy:    -0.00000000      T1 diagnostic:  0.01582650
                                                                       D1 diagnostic:  0.04138621

 Doubles amplitudes (print threshold =  0.500E-01):

         I         J         SYM. A    SYM. B    A         B      T(IJ, AB)

         6         6         2         2         1         1     -0.10664950


 Total CPU time for triples:      1.15 sec


 RESULTS
 =======

  Reference energy                   -129.840089813808
  CCSD singlet pair energy             -0.307524668478
  CCSD triplet pair energy             -0.141166152166
  CCSD correlation energy              -0.448690820644

  Triples (T) contribution             -0.020752471812
  Total correlation energy             -0.469443292456

  CCSD total energy                  -130.288780634452
  CCSD[T] energy                     -130.310576412505
  CCSD-T energy                      -130.309134264176
 !CCSD(T) total energy               -130.309533106265

 Timing summary (sec):

 STEP                 CPU(USER)    SYS     CPU(TOT)    WALL
 Transformation          0.15      0.04      0.19      0.22
 CCSD iterations         3.91      0.59      4.50      4.51
 Triples                 1.15      0.04      1.19      1.19

 Program statistics:

 Available memory in ccsd:               994999756
 Min. memory needed in ccsd:                389120
 Max. memory used in ccsd:                  473124
 Max. memory used in cckext:                599488 (27 integral passes)



 **********************************************************************************************************************************
 DATASETS  * FILE   NREC   LENGTH (MB)   RECORD NAMES
              1      20      128.20       500      610      700      900      950      970     1000      129      960     1100   
                                          VAR    BASINP    GEOM    SYMINP    ZMAT    AOBASIS   BASIS     P2S    ABASIS      S 
                                         1400     1410     1200     1210     1080     1600     1650     1300     1700     1380   
                                           T        V       H0       H01     AOSYM     SMH    MOLCAS    ERIS     OPER     JKOP   

              2       4        2.94       700     1000      520     2100   
                                         GEOM     BASIS   MCVARS     RHF  

 PROGRAMS   *        TOTAL   CCSD(T)        HF       INT
 CPU TIMES  *         8.01      5.24      1.52      1.16
 REAL TIME  *         9.79 SEC
 DISK USED  *       327.55 MB      
 **********************************************************************************************************************************

 CCSD(T)/aug-cc-pVTZ energy=   -130.309533106265

        CCSD(T)         HF-SCF  
   -130.30953311   -129.84008981
 **********************************************************************************************************************************
 Molpro calculation terminated
 Variable memory released
