
 Primary working directories    : /tmp/r2666/282168.maple
 Secondary working directories  : /tmp/r2666/282168.maple
 Wavefunction directory         : /ddn/home4/r2666/wfu/
 Main file repository           : /tmp/r2666/282168.maple/

 SHA1      : d5ffa45e93fdbca01ffc919aa182cfdae0147319
 NAME      : 2015.1.35
 ARCHNAME  : linux/x86_64
 FC        : /opt/intel/composer_xe_2015.1.133/bin/intel64/ifort
 BLASLIB   : -Wl,-_start-group /opt/intel/mkl/lib/intel64/libmkl_intel_ilp64.a /opt/intel/mkl/lib/intel64/libmkl_intel_thread.a /opt/intel/mkl/lib/intel64/libmkl_core.a -Wl,-_end-group
 id        : olemiss

 Nodes     nprocs
 cn084        1

 Using customized tuning parameters: mindgm=1; mindgv=20; mindgc=4; mindgr=1; noblas=0; minvec=7
 default implementation of scratch files=df  

 ***,hno CCSD(T)/TZ-F12 QFF
 memory, 995, m;
 gthresh,energy=1.d-12,zero=1.d-22,oneint=1.d-22,twoint=1.d-22;
 gthresh,optgrad=1.d-8,optstep=1.d-8;
 nocompress;
 geomtyp=xyz
 bohr
 geometry={
 3
         65        65
 H        0.0000000000        1.6666338987       -1.9256228379
 N        0.0000000000       -0.1635657754       -1.1492613422
 O        0.0000000000        0.0386996667        1.1242945891
 }
 
 basis=avtz
   {hf,maxit=500;accu,20;}
 {ccsd(t),nocheck,maxit=250;orbital,IGNORE_ERROR;}

 Variables initialized (889), CPU time= 0.02 sec
 Commands  initialized (702), CPU time= 0.01 sec, 572 directives.
 Default parameters read. Elapsed time= 0.04 sec

 Checking input...
 Passed
1


                                         ***  PROGRAM SYSTEM MOLPRO  ***
                                       Copyright, TTI GmbH Stuttgart, 2015
                                    Version 2015.1 linked Jul  9 2018 13:16:40


 **********************************************************************************************************************************
 LABEL *   hno CCSD(T)/TZ-F12 QFF                                                        
  64 bit serial version                                                                  DATE: 04-Mar-20          TIME: 13:46:27  
 **********************************************************************************************************************************

 SHA1:             d5ffa45e93fdbca01ffc919aa182cfdae0147319
 **********************************************************************************************************************************

 THRESHOLDS:

 ZERO    =  1.00D-22  ONEINT  =  1.00D-22  TWOINT  =  1.00D-22  PREFAC  =  1.00D-14  LOCALI  =  1.00D-09  EORDER  =  1.00D-04
 ENERGY  =  1.00D-12  ETEST   =  0.00D+00  EDENS   =  0.00D+00  THRDEDEF=  1.00D-06  GRADIENT=  1.00D-02  STEP    =  1.00D-03
 ORBITAL =  1.00D-05  CIVEC   =  1.00D-05  COEFF   =  1.00D-04  PRINTCI =  5.00D-02  PUNCHCI =  9.90D+01  OPTGRAD =  3.00D-04
 OPTENERG=  1.00D-06  OPTSTEP =  3.00D-04  THRGRAD =  1.00D-10  COMPRESS=  1.00D-11  VARMIN  =  1.00D-07  VARMAX  =  1.00D-03
 THRDOUB =  0.00D+00  THRDIV  =  1.00D-05  THRRED  =  1.00D-07  THRPSP  =  1.00D+00  THRDC   =  1.00D-10  THRCS   =  1.00D-10
 THRNRM  =  1.00D-08  THREQ   =  0.00D+00  THRDE   =  1.00D+00  THRREF  =  1.00D-05  SPARFAC =  1.00D+00  THRDLP  =  1.00D-07
 THRDIA  =  1.00D-10  THRDLS  =  1.00D-07  THRGPS  =  0.00D+00  THRKEX  =  0.00D+00  THRDIS  =  2.00D-01  THRVAR  =  1.00D-10
 THRLOC  =  1.00D-06  THRGAP  =  1.00D-06  THRLOCT = -1.00D+00  THRGAPT = -1.00D+00  THRORB  =  1.00D-06  THRMLTP =  0.00D+00
 THRCPQCI=  1.00D-10  KEXTA   =  0.00D+00  THRCOARS=  0.00D+00  SYMTOL  =  1.00D-06  GRADTOL =  1.00D-06  THROVL  =  1.00D-08
 THRORTH =  1.00D-08  GRID    =  1.00D-06  GRIDMAX =  1.00D-03  DTMAX   =  0.00D+00  THROCCDE=  1.00D-01  THROCCDE=  1.00D-01



 THRESHOLDS:

 ZERO    =  1.00D-22  ONEINT  =  1.00D-22  TWOINT  =  1.00D-22  PREFAC  =  1.00D-14  LOCALI  =  1.00D-09  EORDER  =  1.00D-04
 ENERGY  =  1.00D-12  ETEST   =  0.00D+00  EDENS   =  0.00D+00  THRDEDEF=  1.00D-06  GRADIENT=  1.00D-02  STEP    =  1.00D-03
 ORBITAL =  1.00D-05  CIVEC   =  1.00D-05  COEFF   =  1.00D-04  PRINTCI =  5.00D-02  PUNCHCI =  9.90D+01  OPTGRAD =  1.00D-08
 OPTENERG=  1.00D-06  OPTSTEP =  1.00D-08  THRGRAD =  1.00D-10  COMPRESS=  1.00D-11  VARMIN  =  1.00D-07  VARMAX  =  1.00D-03
 THRDOUB =  0.00D+00  THRDIV  =  1.00D-05  THRRED  =  1.00D-07  THRPSP  =  1.00D+00  THRDC   =  1.00D-10  THRCS   =  1.00D-10
 THRNRM  =  1.00D-08  THREQ   =  0.00D+00  THRDE   =  1.00D+00  THRREF  =  1.00D-05  SPARFAC =  1.00D+00  THRDLP  =  1.00D-07
 THRDIA  =  1.00D-10  THRDLS  =  1.00D-07  THRGPS  =  0.00D+00  THRKEX  =  0.00D+00  THRDIS  =  2.00D-01  THRVAR  =  1.00D-10
 THRLOC  =  1.00D-06  THRGAP  =  1.00D-06  THRLOCT = -1.00D+00  THRGAPT = -1.00D+00  THRORB  =  1.00D-06  THRMLTP =  0.00D+00
 THRCPQCI=  1.00D-10  KEXTA   =  0.00D+00  THRCOARS=  0.00D+00  SYMTOL  =  1.00D-06  GRADTOL =  1.00D-06  THROVL  =  1.00D-08
 THRORTH =  1.00D-08  GRID    =  1.00D-06  GRIDMAX =  1.00D-03  DTMAX   =  0.00D+00  THROCCDE=  1.00D-01  THROCCDE=  1.00D-01



 Input parameters for SORTINT:

 COMPRESS =    0.000000
 C_FINAL  =    1.000000
 DEBUG    =   -1.000000
 C_SORT1  =    0.000000
 C_SEWARD =    0.000000
 THRESH   =    0.000000
 IO       =  molpro                                                          
 SPRI     =    0.000000
 SETTING GEOMTYP        =    XYZ
 ZUNIT=BOHR
 

 Variable memory set to  995000000 words,  buffer space   230000 words

 SETTING BASIS          =    AVTZ


 Recomputing integrals since basis changed


 Using spherical harmonics

 Library entry H      S aug-cc-pVTZ          selected for orbital group  1
 Library entry H      P aug-cc-pVTZ          selected for orbital group  1
 Library entry H      D aug-cc-pVTZ          selected for orbital group  1
 Library entry N      S aug-cc-pVTZ          selected for orbital group  2
 Library entry N      P aug-cc-pVTZ          selected for orbital group  2
 Library entry N      D aug-cc-pVTZ          selected for orbital group  2
 Library entry N      F aug-cc-pVTZ          selected for orbital group  2
 Library entry O      S aug-cc-pVTZ          selected for orbital group  3
 Library entry O      P aug-cc-pVTZ          selected for orbital group  3
 Library entry O      D aug-cc-pVTZ          selected for orbital group  3
 Library entry O      F aug-cc-pVTZ          selected for orbital group  3


 PROGRAM * SEWARD (Integral evaluation for generally contracted gaussian basis sets)     Author: Roland Lindh, 1990

 Geometry written to block  1 of record 700


 Point group  Cs  



 ATOMIC COORDINATES

 NR  ATOM    CHARGE       X              Y              Z

   1  H       1.00    0.000000000    1.666633899   -1.925622838
   2  N       7.00    0.000000000   -0.163565775   -1.149261342
   3  O       8.00    0.000000000    0.038699667    1.124294589

 Bond lengths in Bohr (Angstrom)

 1-2  1.988056342  2-3  2.282535406
     ( 1.052034110)     ( 1.207865720)

 Bond angles

  1-2-3  107.90251459

 NUCLEAR CHARGE:                   16
 NUMBER OF PRIMITIVE AOS:         161
 NUMBER OF SYMMETRY AOS:          141
 NUMBER OF CONTRACTIONS:          115   (  76A'  +  39A"  )
 NUMBER OF CORE ORBITALS:           2   (   2A'  +   0A"  )
 NUMBER OF VALENCE ORBITALS:        9   (   7A'  +   2A"  )


 NUCLEAR REPULSION ENERGY   30.36916573

 Eigenvalues of metric

         1 0.232E-03 0.500E-03 0.180E-02 0.212E-02 0.253E-02 0.358E-02 0.431E-02 0.516E-02
         2 0.395E-02 0.101E-01 0.262E-01 0.371E-01 0.513E-01 0.622E-01 0.818E-01 0.119E+00


 Contracted 2-electron integrals neglected if value below      1.0D-22

       10790064. INTEGRALS WRITTEN OUT IN    2635 BLOCKS ON RECORD 1290 OF FILE 1


 NUMBER OF SORTED TWO-ELECTRON INTEGRALS:   11433631.     BUFFER LENGTH:  32768
 NUMBER OF SEGMENTS:   1  SEGMENT LENGTH:   11433631      RECORD LENGTH: 524288

 Memory used in sort:      11.99 MW

 SORT1 READ    10790064. AND WROTE    10943632. INTEGRALS IN     32 RECORDS. CPU TIME:     0.14 SEC, REAL TIME:     0.22 SEC
 SORT2 READ    10943632. AND WROTE    11433631. INTEGRALS IN      1 RECORDS. CPU TIME:     0.16 SEC, REAL TIME:     0.22 SEC

 FILE SIZES:   FILE 1:   193.0 MBYTE,  FILE 4:   134.3 MBYTE,   TOTAL:    327.2 MBYTE

 OPERATOR DM      FOR CENTER  0  COORDINATES:    0.000000    0.000000    0.000000


 **********************************************************************************************************************************
 DATASETS  * FILE   NREC   LENGTH (MB)   RECORD NAMES
              1      19      111.05       500      610      700      900      950      970     1000      129      960     1100   
                                          VAR    BASINP    GEOM    SYMINP    ZMAT    AOBASIS   BASIS     P2S    ABASIS      S 
                                         1400     1410     1200     1210     1080     1600     1650     1300     1700   
                                           T        V       H0       H01     AOSYM     SMH    MOLCAS    ERIS     OPER   

 PROGRAMS   *        TOTAL       INT
 CPU TIMES  *         1.27      1.18
 REAL TIME  *         1.99 SEC
 DISK USED  *       327.55 MB      
 **********************************************************************************************************************************


 PROGRAM * RHF-SCF (CLOSED SHELL)       Authors: W. Meyer, H.-J. Werner


 NUMBER OF ELECTRONS:       8+    8-
 CONVERGENCE THRESHOLDS:    1.00E-10 (Density)    1.00E-13 (Energy)
 MAX. NUMBER OF ITERATIONS:      500
 INTERPOLATION TYPE:            DIIS
 INTERPOLATION STEPS:              2 (START)      1 (STEP)
 LEVEL SHIFTS:                  0.00 (CLOSED)  0.00 (OPEN) 



 Orbital guess generated from atomic densities. Full valence occupancy:    9   2

 Molecular orbital dump at record        2100.2

 Initial occupancy:   7   1

 ITERATION    DDIFF          GRAD             ENERGY        2-EL.EN.            DIPOLE MOMENTS         DIIS   ORB.
    1      0.000D+00      0.000D+00      -129.78837113    153.897371    0.00000    0.58948   -1.02009    0    start
    2      0.000D+00      0.107D-01      -129.81584512    155.165125    0.00000    0.61096   -0.20876    1    diag
    3      0.119D-01      0.822D-02      -129.83847375    155.276678    0.00000    0.55613   -0.59137    2    diag
    4      0.592D-02      0.128D-02      -129.83926431    154.988495    0.00000    0.56372   -0.53155    3    diag
    5      0.107D-02      0.421D-03      -129.83939017    155.082369    0.00000    0.56927   -0.53434    4    diag
    6      0.450D-03      0.121D-03      -129.83941024    155.066801    0.00000    0.56965   -0.53026    5    diag
    7      0.172D-03      0.602D-04      -129.83941602    155.069311    0.00000    0.57089   -0.52770    6    diag
    8      0.119D-03      0.205D-04      -129.83941663    155.068655    0.00000    0.57092   -0.52670    7    diag
    9      0.444D-04      0.387D-05      -129.83941666    155.068548    0.00000    0.57088   -0.52649    8    diag
   10      0.853D-05      0.881D-06      -129.83941666    155.068529    0.00000    0.57085   -0.52646    9    orth
   11      0.173D-05      0.176D-06      -129.83941666    155.068526    0.00000    0.57084   -0.52646    9    diag
   12      0.334D-06      0.361D-07      -129.83941666    155.068525    0.00000    0.57084   -0.52646    9    diag
   13      0.721D-07      0.912D-08      -129.83941666    155.068525    0.00000    0.57084   -0.52646    9    diag
   14      0.189D-07      0.188D-08      -129.83941666    155.068525    0.00000    0.57084   -0.52645    9    diag
   15      0.373D-08      0.525D-09      -129.83941666    155.068525    0.00000    0.57084   -0.52645    9    diag
   16      0.102D-08      0.143D-09      -129.83941666    155.068525    0.00000    0.57084   -0.52645    9    diag
   17      0.181D-09      0.406D-10      -129.83941666    155.068525    0.00000    0.57084   -0.52645    9    diag
   18      0.501D-10      0.145D-10      -129.83941666    155.068525    0.00000    0.57084   -0.52645    9    diag
   19      0.260D-10      0.319D-11      -129.83941666    155.068525    0.00000    0.57084   -0.52645    9    fixocc
   20      0.629D-11      0.566D-12      -129.83941666    155.068525    0.00000    0.57084   -0.52645    9    orth
   21      0.185D-11      0.194D-12      -129.83941666    155.068525    0.00000    0.57084   -0.52645    9    diag
   22      0.184D-11      0.657D-13      -129.83941666    155.068525    0.00000    0.57084   -0.52645    9    diag
   23      0.750D-12      0.503D-13      -129.83941666    155.068525    0.00000    0.57084   -0.52645    9    diag
   24      0.498D-12      0.407D-13      -129.83941666    155.068525    0.00000    0.57084   -0.52645    0    orth

 Final occupancy:   7   1

 !RHF STATE 1.1 Energy               -129.839416661371
 Nuclear energy                        30.36916573
 One-electron energy                 -237.74284507
 Two-electron energy                   77.53426268
 Virial quotient                       -1.00214516
 !RHF STATE 1.1 Dipole moment           0.00000000     0.57083644    -0.52645494
 Dipole moment /Debye                   0.00000000     1.45082648    -1.33802736

 Orbital energies:

         1.1          2.1          3.1          4.1          5.1          6.1          7.1          8.1          9.1
    -20.656478   -15.714501    -1.531000    -0.994842    -0.747349    -0.666067    -0.430614     0.029207     0.092184

         1.2          2.2          3.2
     -0.596309     0.064945     0.130206

 HOMO      7.1    -0.430614 =     -11.7176eV
 LUMO      8.1     0.029207 =       0.7948eV
 LUMO-HOMO         0.459821 =      12.5124eV


 **********************************************************************************************************************************
 DATASETS  * FILE   NREC   LENGTH (MB)   RECORD NAMES
              1      19      111.05       500      610      700      900      950      970     1000      129      960     1100   
                                          VAR    BASINP    GEOM    SYMINP    ZMAT    AOBASIS   BASIS     P2S    ABASIS      S 
                                         1400     1410     1200     1210     1080     1600     1650     1300     1700   
                                           T        V       H0       H01     AOSYM     SMH    MOLCAS    ERIS     OPER   

              2       4        2.94       700     1000      520     2100   
                                         GEOM     BASIS   MCVARS     RHF  

 PROGRAMS   *        TOTAL        HF       INT
 CPU TIMES  *         2.48      1.21      1.18
 REAL TIME  *         3.48 SEC
 DISK USED  *       327.55 MB      
 **********************************************************************************************************************************


 PROGRAM * CCSD (Closed-shell coupled cluster)     Authors: C. Hampel, H.-J. Werner, 1991, M. Deegan, P.J. Knowles, 1992


 Convergence thresholds:  THRVAR = 1.00D-08  THRDEN = 1.00D-12

 CCSD(T)     terms to be evaluated (factor= 1.000)


 Number of core orbitals:           2 (   2   0 )
 Number of closed-shell orbitals:   6 (   5   1 )
 Number of external orbitals:     107 (  69  38 )

 Molecular orbitals read from record     2100.2  Type=RHF/CANONICAL (state 1.1)

 Number of N-1 electron functions:               6
 Number of N-2 electron functions:              21
 Number of singly external CSFs:               383
 Number of doubly external CSFs:            107206
 Total number of CSFs:                      107590

 Length of J-op  integral file:               0.00 MB
 Length of K-op  integral file:               0.54 MB
 Length of 3-ext integral record:             0.00 MB

 Memory could be reduced to 5.94 Mwords without degradation in triples

 Integral transformation finished. Total CPU:   0.13 sec, npass=  1  Memory used:   1.65 MW

 Reference energy:                   -129.83941666

 MP2 singlet pair energy:              -0.27943108
 MP2 triplet pair energy:              -0.16517631
 MP2 correlation energy:               -0.44460739
 MP2 total energy:                   -130.28402405

 SCS-MP2 correlation energy:           -0.43809366   (PS=  1.200000  PT=  0.333333)
 SCS-MP2 total energy:               -130.27751033

 ITER.      SQ.NORM     CORR.ENERGY   TOTAL ENERGY   ENERGY CHANGE        DEN1      VAR(S)    VAR(P)  DIIS     TIME  TIME/IT
   1      1.12092862    -0.44872129  -130.28813795    -0.00411390     0.01194249  0.31D-02  0.31D-02  1  1     0.27     0.15
   2      1.13204613    -0.44892013  -130.28833679    -0.00019884    -0.01243952  0.10D-03  0.51D-03  2  2     0.42     0.16
   3      1.13853311    -0.44931966  -130.28873632    -0.00039953    -0.00300169  0.53D-04  0.51D-04  3  3     0.58     0.16
   4      1.14141693    -0.44933125  -130.28874791    -0.00001159    -0.00097566  0.42D-05  0.92D-05  4  4     0.75     0.17
   5      1.14246450    -0.44935998  -130.28877664    -0.00002873    -0.00022182  0.11D-05  0.16D-05  5  5     0.88     0.17
   6      1.14280595    -0.44934303  -130.28875969     0.00001695    -0.00004176  0.99D-07  0.39D-06  6  6     1.02     0.17
   7      1.14288008    -0.44934420  -130.28876086    -0.00000118    -0.00000172  0.19D-07  0.92D-07  6  1     1.16     0.16
   8      1.14290148    -0.44934487  -130.28876153    -0.00000067     0.00000151  0.36D-08  0.17D-07  6  2     1.30     0.16
   9      1.14290680    -0.44934443  -130.28876109     0.00000044     0.00000044  0.27D-08  0.18D-08  6  4     1.45     0.16
  10      1.14290912    -0.44934491  -130.28876157    -0.00000048    -0.00000071  0.45D-09  0.22D-09  6  3     1.58     0.16
  11      1.14290862    -0.44934493  -130.28876159    -0.00000002    -0.00000007  0.15D-09  0.33D-10  6  5     1.74     0.16
  12      1.14290757    -0.44934508  -130.28876174    -0.00000015     0.00000034  0.18D-10  0.11D-10  6  6     1.88     0.16
  13      1.14290672    -0.44934512  -130.28876178    -0.00000003     0.00000021  0.62D-11  0.22D-11  6  1     2.04     0.16
  14      1.14290618    -0.44934515  -130.28876181    -0.00000003     0.00000014  0.97D-12  0.69D-12  6  2     2.19     0.16
  15      1.14290595    -0.44934515  -130.28876182    -0.00000001     0.00000003  0.27D-12  0.22D-12  6  4     2.34     0.16
  16      1.14290586    -0.44934516  -130.28876182    -0.00000000     0.00000001  0.51D-13  0.77D-13  6  3     2.49     0.16
  17      1.14290580    -0.44934516  -130.28876182    -0.00000000     0.00000001  0.38D-14  0.18D-13  6  5     2.63     0.16
  18      1.14290579    -0.44934516  -130.28876182     0.00000000    -0.00000000  0.13D-14  0.38D-14  6  6     2.79     0.17
  19      1.14290579    -0.44934516  -130.28876182    -0.00000000     0.00000000  0.11D-14  0.67D-15  6  1     2.95     0.17
  20      1.14290579    -0.44934516  -130.28876182     0.00000000    -0.00000000  0.22D-15  0.12D-15  6  2     3.10     0.17
  21      1.14290579    -0.44934516  -130.28876182     0.00000000    -0.00000000  0.54D-16  0.30D-16  6  3     3.25     0.17
  22      1.14290579    -0.44934516  -130.28876182     0.00000000     0.00000000  0.61D-17  0.27D-17  6  4     3.38     0.17
  23      1.14290579    -0.44934516  -130.28876182     0.00000000    -0.00000000  0.22D-17  0.56D-18  6  5     3.53     0.17
  24      1.14290579    -0.44934516  -130.28876182     0.00000000     0.00000000  0.15D-18  0.49D-19  6  2     3.68     0.17
  25      1.14290579    -0.44934516  -130.28876182    -0.00000000    -0.00000000  0.22D-19  0.12D-19  6  6     3.83     0.17
  26      1.14290579    -0.44934516  -130.28876182     0.00000000    -0.00000000  0.34D-20  0.21D-20  6  1     3.97     0.17
  27      1.14290579    -0.44934516  -130.28876182    -0.00000000    -0.00000000  0.48D-21  0.51D-21  6  4     4.12     0.17

 Norm of t1 vector:      0.07834407      S-energy:    -0.00000000      T1 diagnostic:  0.01599192
                                                                       D1 diagnostic:  0.04205206

 Doubles amplitudes (print threshold =  0.500E-01):

         I         J         SYM. A    SYM. B    A         B      T(IJ, AB)

         6         6         2         2         1         1     -0.10888797


 Total CPU time for triples:      1.11 sec


 RESULTS
 =======

  Reference energy                   -129.839416661371
  CCSD singlet pair energy             -0.308088283133
  CCSD triplet pair energy             -0.141256875413
  CCSD correlation energy              -0.449345158547

  Triples (T) contribution             -0.020906829150
  Total correlation energy             -0.470251987697

  CCSD total energy                  -130.288761819918
  CCSD[T] energy                     -130.310733402200
  CCSD-T energy                      -130.309264669348
 !CCSD(T) total energy               -130.309668649068

 Timing summary (sec):

 STEP                 CPU(USER)    SYS     CPU(TOT)    WALL
 Transformation          0.14      0.03      0.17      0.18
 CCSD iterations         3.98      0.51      4.49      4.49
 Triples                 1.11      0.07      1.18      1.18

 Program statistics:

 Available memory in ccsd:               994999756
 Min. memory needed in ccsd:                389120
 Max. memory used in ccsd:                  473124
 Max. memory used in cckext:                599488 (27 integral passes)



 **********************************************************************************************************************************
 DATASETS  * FILE   NREC   LENGTH (MB)   RECORD NAMES
              1      20      128.20       500      610      700      900      950      970     1000      129      960     1100   
                                          VAR    BASINP    GEOM    SYMINP    ZMAT    AOBASIS   BASIS     P2S    ABASIS      S 
                                         1400     1410     1200     1210     1080     1600     1650     1300     1700     1380   
                                           T        V       H0       H01     AOSYM     SMH    MOLCAS    ERIS     OPER     JKOP   

              2       4        2.94       700     1000      520     2100   
                                         GEOM     BASIS   MCVARS     RHF  

 PROGRAMS   *        TOTAL   CCSD(T)        HF       INT
 CPU TIMES  *         7.74      5.25      1.21      1.18
 REAL TIME  *         9.37 SEC
 DISK USED  *       327.55 MB      
 **********************************************************************************************************************************

 CCSD(T)/aug-cc-pVTZ energy=   -130.309668649068

        CCSD(T)         HF-SCF  
   -130.30966865   -129.83941666
 **********************************************************************************************************************************
 Molpro calculation terminated
 Variable memory released
