
 Primary working directories    : /tmp/r2666/282140.maple
 Secondary working directories  : /tmp/r2666/282140.maple
 Wavefunction directory         : /ddn/home4/r2666/wfu/
 Main file repository           : /tmp/r2666/282140.maple/

 SHA1      : d5ffa45e93fdbca01ffc919aa182cfdae0147319
 NAME      : 2015.1.35
 ARCHNAME  : linux/x86_64
 FC        : /opt/intel/composer_xe_2015.1.133/bin/intel64/ifort
 BLASLIB   : -Wl,-_start-group /opt/intel/mkl/lib/intel64/libmkl_intel_ilp64.a /opt/intel/mkl/lib/intel64/libmkl_intel_thread.a /opt/intel/mkl/lib/intel64/libmkl_core.a -Wl,-_end-group
 id        : olemiss

 Nodes     nprocs
 cn083        1

 Using customized tuning parameters: mindgm=1; mindgv=20; mindgc=4; mindgr=1; noblas=0; minvec=7
 default implementation of scratch files=df  

 ***,hno CCSD(T)/TZ-F12 QFF
 memory, 995, m;
 gthresh,energy=1.d-12,zero=1.d-22,oneint=1.d-22,twoint=1.d-22;
 gthresh,optgrad=1.d-8,optstep=1.d-8;
 nocompress;
 geomtyp=xyz
 bohr
 geometry={
 3
         37        37
 H        0.0000000000        1.6626528405       -1.9206412104
 N        0.0000000000       -0.1624103316       -1.1564207603
 O        0.0000000000        0.0415252811        1.1264723797
 }
 
 basis=avtz
   {hf,maxit=500;accu,20;}
 {ccsd(t),nocheck,maxit=250;orbital,IGNORE_ERROR;}

 Variables initialized (889), CPU time= 0.00 sec
 Commands  initialized (702), CPU time= 0.01 sec, 572 directives.
 Default parameters read. Elapsed time= 0.04 sec

 Checking input...
 Passed
1


                                         ***  PROGRAM SYSTEM MOLPRO  ***
                                       Copyright, TTI GmbH Stuttgart, 2015
                                    Version 2015.1 linked Jul  9 2018 13:16:40


 **********************************************************************************************************************************
 LABEL *   hno CCSD(T)/TZ-F12 QFF                                                        
  64 bit serial version                                                                  DATE: 04-Mar-20          TIME: 13:46:09  
 **********************************************************************************************************************************

 SHA1:             d5ffa45e93fdbca01ffc919aa182cfdae0147319
 **********************************************************************************************************************************

 THRESHOLDS:

 ZERO    =  1.00D-22  ONEINT  =  1.00D-22  TWOINT  =  1.00D-22  PREFAC  =  1.00D-14  LOCALI  =  1.00D-09  EORDER  =  1.00D-04
 ENERGY  =  1.00D-12  ETEST   =  0.00D+00  EDENS   =  0.00D+00  THRDEDEF=  1.00D-06  GRADIENT=  1.00D-02  STEP    =  1.00D-03
 ORBITAL =  1.00D-05  CIVEC   =  1.00D-05  COEFF   =  1.00D-04  PRINTCI =  5.00D-02  PUNCHCI =  9.90D+01  OPTGRAD =  3.00D-04
 OPTENERG=  1.00D-06  OPTSTEP =  3.00D-04  THRGRAD =  1.00D-10  COMPRESS=  1.00D-11  VARMIN  =  1.00D-07  VARMAX  =  1.00D-03
 THRDOUB =  0.00D+00  THRDIV  =  1.00D-05  THRRED  =  1.00D-07  THRPSP  =  1.00D+00  THRDC   =  1.00D-10  THRCS   =  1.00D-10
 THRNRM  =  1.00D-08  THREQ   =  0.00D+00  THRDE   =  1.00D+00  THRREF  =  1.00D-05  SPARFAC =  1.00D+00  THRDLP  =  1.00D-07
 THRDIA  =  1.00D-10  THRDLS  =  1.00D-07  THRGPS  =  0.00D+00  THRKEX  =  0.00D+00  THRDIS  =  2.00D-01  THRVAR  =  1.00D-10
 THRLOC  =  1.00D-06  THRGAP  =  1.00D-06  THRLOCT = -1.00D+00  THRGAPT = -1.00D+00  THRORB  =  1.00D-06  THRMLTP =  0.00D+00
 THRCPQCI=  1.00D-10  KEXTA   =  0.00D+00  THRCOARS=  0.00D+00  SYMTOL  =  1.00D-06  GRADTOL =  1.00D-06  THROVL  =  1.00D-08
 THRORTH =  1.00D-08  GRID    =  1.00D-06  GRIDMAX =  1.00D-03  DTMAX   =  0.00D+00  THROCCDE=  1.00D-01  THROCCDE=  1.00D-01



 THRESHOLDS:

 ZERO    =  1.00D-22  ONEINT  =  1.00D-22  TWOINT  =  1.00D-22  PREFAC  =  1.00D-14  LOCALI  =  1.00D-09  EORDER  =  1.00D-04
 ENERGY  =  1.00D-12  ETEST   =  0.00D+00  EDENS   =  0.00D+00  THRDEDEF=  1.00D-06  GRADIENT=  1.00D-02  STEP    =  1.00D-03
 ORBITAL =  1.00D-05  CIVEC   =  1.00D-05  COEFF   =  1.00D-04  PRINTCI =  5.00D-02  PUNCHCI =  9.90D+01  OPTGRAD =  1.00D-08
 OPTENERG=  1.00D-06  OPTSTEP =  1.00D-08  THRGRAD =  1.00D-10  COMPRESS=  1.00D-11  VARMIN  =  1.00D-07  VARMAX  =  1.00D-03
 THRDOUB =  0.00D+00  THRDIV  =  1.00D-05  THRRED  =  1.00D-07  THRPSP  =  1.00D+00  THRDC   =  1.00D-10  THRCS   =  1.00D-10
 THRNRM  =  1.00D-08  THREQ   =  0.00D+00  THRDE   =  1.00D+00  THRREF  =  1.00D-05  SPARFAC =  1.00D+00  THRDLP  =  1.00D-07
 THRDIA  =  1.00D-10  THRDLS  =  1.00D-07  THRGPS  =  0.00D+00  THRKEX  =  0.00D+00  THRDIS  =  2.00D-01  THRVAR  =  1.00D-10
 THRLOC  =  1.00D-06  THRGAP  =  1.00D-06  THRLOCT = -1.00D+00  THRGAPT = -1.00D+00  THRORB  =  1.00D-06  THRMLTP =  0.00D+00
 THRCPQCI=  1.00D-10  KEXTA   =  0.00D+00  THRCOARS=  0.00D+00  SYMTOL  =  1.00D-06  GRADTOL =  1.00D-06  THROVL  =  1.00D-08
 THRORTH =  1.00D-08  GRID    =  1.00D-06  GRIDMAX =  1.00D-03  DTMAX   =  0.00D+00  THROCCDE=  1.00D-01  THROCCDE=  1.00D-01



 Input parameters for SORTINT:

 COMPRESS =    0.000000
 C_FINAL  =    1.000000
 DEBUG    =   -1.000000
 C_SORT1  =    0.000000
 C_SEWARD =    0.000000
 THRESH   =    0.000000
 IO       =  molpro                                                          
 SPRI     =    0.000000
 SETTING GEOMTYP        =    XYZ
 ZUNIT=BOHR
 

 Variable memory set to  995000000 words,  buffer space   230000 words

 SETTING BASIS          =    AVTZ


 Recomputing integrals since basis changed


 Using spherical harmonics

 Library entry H      S aug-cc-pVTZ          selected for orbital group  1
 Library entry H      P aug-cc-pVTZ          selected for orbital group  1
 Library entry H      D aug-cc-pVTZ          selected for orbital group  1
 Library entry N      S aug-cc-pVTZ          selected for orbital group  2
 Library entry N      P aug-cc-pVTZ          selected for orbital group  2
 Library entry N      D aug-cc-pVTZ          selected for orbital group  2
 Library entry N      F aug-cc-pVTZ          selected for orbital group  2
 Library entry O      S aug-cc-pVTZ          selected for orbital group  3
 Library entry O      P aug-cc-pVTZ          selected for orbital group  3
 Library entry O      D aug-cc-pVTZ          selected for orbital group  3
 Library entry O      F aug-cc-pVTZ          selected for orbital group  3


 PROGRAM * SEWARD (Integral evaluation for generally contracted gaussian basis sets)     Author: Roland Lindh, 1990

 Geometry written to block  1 of record 700


 Point group  Cs  



 ATOMIC COORDINATES

 NR  ATOM    CHARGE       X              Y              Z

   1  H       1.00    0.000000000    1.662652841   -1.920641210
   2  N       7.00    0.000000000   -0.162410332   -1.156420760
   3  O       8.00    0.000000000    0.041525281    1.126472380

 Bond lengths in Bohr (Angstrom)

 1-2  1.978607712  2-3  2.291984036
     ( 1.047034111)     ( 1.212865720)

 Bond angles

  1-2-3  107.61603570

 NUCLEAR CHARGE:                   16
 NUMBER OF PRIMITIVE AOS:         161
 NUMBER OF SYMMETRY AOS:          141
 NUMBER OF CONTRACTIONS:          115   (  76A'  +  39A"  )
 NUMBER OF CORE ORBITALS:           2   (   2A'  +   0A"  )
 NUMBER OF VALENCE ORBITALS:        9   (   7A'  +   2A"  )


 NUCLEAR REPULSION ENERGY   30.28864396

 Eigenvalues of metric

         1 0.232E-03 0.501E-03 0.180E-02 0.212E-02 0.257E-02 0.365E-02 0.429E-02 0.514E-02
         2 0.401E-02 0.100E-01 0.264E-01 0.372E-01 0.515E-01 0.621E-01 0.825E-01 0.119E+00


 Contracted 2-electron integrals neglected if value below      1.0D-22

       10790064. INTEGRALS WRITTEN OUT IN    2635 BLOCKS ON RECORD 1290 OF FILE 1


 NUMBER OF SORTED TWO-ELECTRON INTEGRALS:   11433631.     BUFFER LENGTH:  32768
 NUMBER OF SEGMENTS:   1  SEGMENT LENGTH:   11433631      RECORD LENGTH: 524288

 Memory used in sort:      11.99 MW

 SORT1 READ    10790064. AND WROTE    10943632. INTEGRALS IN     32 RECORDS. CPU TIME:     0.16 SEC, REAL TIME:     0.23 SEC
 SORT2 READ    10943632. AND WROTE    11433631. INTEGRALS IN      1 RECORDS. CPU TIME:     0.17 SEC, REAL TIME:     0.23 SEC

 FILE SIZES:   FILE 1:   193.0 MBYTE,  FILE 4:   134.3 MBYTE,   TOTAL:    327.2 MBYTE

 OPERATOR DM      FOR CENTER  0  COORDINATES:    0.000000    0.000000    0.000000


 **********************************************************************************************************************************
 DATASETS  * FILE   NREC   LENGTH (MB)   RECORD NAMES
              1      19      111.05       500      610      700      900      950      970     1000      129      960     1100   
                                          VAR    BASINP    GEOM    SYMINP    ZMAT    AOBASIS   BASIS     P2S    ABASIS      S 
                                         1400     1410     1200     1210     1080     1600     1650     1300     1700   
                                           T        V       H0       H01     AOSYM     SMH    MOLCAS    ERIS     OPER   

 PROGRAMS   *        TOTAL       INT
 CPU TIMES  *         1.26      1.17
 REAL TIME  *         2.06 SEC
 DISK USED  *       327.55 MB      
 **********************************************************************************************************************************


 PROGRAM * RHF-SCF (CLOSED SHELL)       Authors: W. Meyer, H.-J. Werner


 NUMBER OF ELECTRONS:       8+    8-
 CONVERGENCE THRESHOLDS:    1.00E-10 (Density)    1.00E-13 (Energy)
 MAX. NUMBER OF ITERATIONS:      500
 INTERPOLATION TYPE:            DIIS
 INTERPOLATION STEPS:              2 (START)      1 (STEP)
 LEVEL SHIFTS:                  0.00 (CLOSED)  0.00 (OPEN) 



 Orbital guess generated from atomic densities. Full valence occupancy:    9   2

 Molecular orbital dump at record        2100.2

 Initial occupancy:   7   1

 ITERATION    DDIFF          GRAD             ENERGY        2-EL.EN.            DIPOLE MOMENTS         DIIS   ORB.
    1      0.000D+00      0.000D+00      -129.78730428    153.758325    0.00000    0.59233   -1.03492    0    start
    2      0.000D+00      0.108D-01      -129.81462491    155.008297    0.00000    0.61459   -0.20715    1    diag
    3      0.120D-01      0.833D-02      -129.83788393    155.133073    0.00000    0.55893   -0.59818    2    diag
    4      0.599D-02      0.128D-02      -129.83868370    154.841836    0.00000    0.56657   -0.53762    3    diag
    5      0.108D-02      0.424D-03      -129.83881070    154.935670    0.00000    0.57203   -0.54026    4    diag
    6      0.452D-03      0.122D-03      -129.83883094    154.920087    0.00000    0.57237   -0.53610    5    diag
    7      0.173D-03      0.608D-04      -129.83883685    154.922527    0.00000    0.57358   -0.53346    6    diag
    8      0.120D-03      0.209D-04      -129.83883750    154.921856    0.00000    0.57360   -0.53242    7    diag
    9      0.459D-04      0.397D-05      -129.83883753    154.921747    0.00000    0.57356   -0.53220    8    diag
   10      0.888D-05      0.892D-06      -129.83883753    154.921728    0.00000    0.57353   -0.53218    9    orth
   11      0.175D-05      0.177D-06      -129.83883753    154.921726    0.00000    0.57352   -0.53218    9    diag
   12      0.332D-06      0.367D-07      -129.83883753    154.921725    0.00000    0.57352   -0.53217    9    diag
   13      0.718D-07      0.936D-08      -129.83883753    154.921725    0.00000    0.57352   -0.53217    9    diag
   14      0.190D-07      0.191D-08      -129.83883753    154.921725    0.00000    0.57352   -0.53217    9    diag
   15      0.368D-08      0.528D-09      -129.83883753    154.921725    0.00000    0.57352   -0.53217    9    diag
   16      0.101D-08      0.141D-09      -129.83883753    154.921725    0.00000    0.57352   -0.53217    9    diag
   17      0.171D-09      0.384D-10      -129.83883753    154.921725    0.00000    0.57352   -0.53217    9    diag
   18      0.463D-10      0.134D-10      -129.83883753    154.921725    0.00000    0.57352   -0.53217    9    diag
   19      0.236D-10      0.282D-11      -129.83883753    154.921725    0.00000    0.57352   -0.53217    9    fixocc
   20      0.581D-11      0.486D-12      -129.83883753    154.921725    0.00000    0.57352   -0.53217    9    orth
   21      0.199D-11      0.171D-12      -129.83883753    154.921725    0.00000    0.57352   -0.53217    9    diag
   22      0.111D-11      0.919D-13      -129.83883753    154.921725    0.00000    0.57352   -0.53217    9    diag
   23      0.100D-11      0.496D-13      -129.83883753    154.921725    0.00000    0.57352   -0.53217    9    diag
   24      0.502D-12      0.465D-13      -129.83883753    154.921725    0.00000    0.57352   -0.53217    9    diag
   25      0.285D-12      0.348D-13      -129.83883753    154.921725    0.00000    0.57352   -0.53217    0    orth

 Final occupancy:   7   1

 !RHF STATE 1.1 Energy               -129.838837534190
 Nuclear energy                        30.28864396
 One-electron energy                 -237.58834415
 Two-electron energy                   77.46086266
 Virial quotient                       -1.00222611
 !RHF STATE 1.1 Dipole moment           0.00000000     0.57352092    -0.53217406
 Dipole moment /Debye                   0.00000000     1.45764930    -1.35256294

 Orbital energies:

         1.1          2.1          3.1          4.1          5.1          6.1          7.1          8.1          9.1
    -20.656801   -15.714740    -1.527141    -0.997103    -0.746392    -0.664588    -0.432629     0.029166     0.092180

         1.2          2.2          3.2
     -0.593915     0.063584     0.129992

 HOMO      7.1    -0.432629 =     -11.7724eV
 LUMO      8.1     0.029166 =       0.7937eV
 LUMO-HOMO         0.461795 =      12.5661eV


 **********************************************************************************************************************************
 DATASETS  * FILE   NREC   LENGTH (MB)   RECORD NAMES
              1      19      111.05       500      610      700      900      950      970     1000      129      960     1100   
                                          VAR    BASINP    GEOM    SYMINP    ZMAT    AOBASIS   BASIS     P2S    ABASIS      S 
                                         1400     1410     1200     1210     1080     1600     1650     1300     1700   
                                           T        V       H0       H01     AOSYM     SMH    MOLCAS    ERIS     OPER   

              2       4        2.94       700     1000      520     2100   
                                         GEOM     BASIS   MCVARS     RHF  

 PROGRAMS   *        TOTAL        HF       INT
 CPU TIMES  *         2.59      1.32      1.17
 REAL TIME  *         3.72 SEC
 DISK USED  *       327.55 MB      
 **********************************************************************************************************************************


 PROGRAM * CCSD (Closed-shell coupled cluster)     Authors: C. Hampel, H.-J. Werner, 1991, M. Deegan, P.J. Knowles, 1992


 Convergence thresholds:  THRVAR = 1.00D-08  THRDEN = 1.00D-12

 CCSD(T)     terms to be evaluated (factor= 1.000)


 Number of core orbitals:           2 (   2   0 )
 Number of closed-shell orbitals:   6 (   5   1 )
 Number of external orbitals:     107 (  69  38 )

 Molecular orbitals read from record     2100.2  Type=RHF/CANONICAL (state 1.1)

 Number of N-1 electron functions:               6
 Number of N-2 electron functions:              21
 Number of singly external CSFs:               383
 Number of doubly external CSFs:            107206
 Total number of CSFs:                      107590

 Length of J-op  integral file:               0.00 MB
 Length of K-op  integral file:               0.54 MB
 Length of 3-ext integral record:             0.00 MB

 Memory could be reduced to 5.94 Mwords without degradation in triples

 Integral transformation finished. Total CPU:   0.15 sec, npass=  1  Memory used:   1.65 MW

 Reference energy:                   -129.83883753

 MP2 singlet pair energy:              -0.27984203
 MP2 triplet pair energy:              -0.16546054
 MP2 correlation energy:               -0.44530258
 MP2 total energy:                   -130.28414011

 SCS-MP2 correlation energy:           -0.43876367   (PS=  1.200000  PT=  0.333333)
 SCS-MP2 total energy:               -130.27760120

 ITER.      SQ.NORM     CORR.ENERGY   TOTAL ENERGY   ENERGY CHANGE        DEN1      VAR(S)    VAR(P)  DIIS     TIME  TIME/IT
   1      1.12129951    -0.44923374  -130.28807128    -0.00393117     0.01228770  0.32D-02  0.32D-02  1  1     0.31     0.17
   2      1.13250598    -0.44939734  -130.28823488    -0.00016360    -0.01253316  0.10D-03  0.52D-03  2  2     0.46     0.17
   3      1.13906603    -0.44980134  -130.28863887    -0.00040400    -0.00302412  0.54D-04  0.52D-04  3  3     0.63     0.17
   4      1.14200012    -0.44981419  -130.28865173    -0.00001285    -0.00098844  0.42D-05  0.93D-05  4  4     0.79     0.17
   5      1.14306764    -0.44984351  -130.28868104    -0.00002931    -0.00022571  0.11D-05  0.16D-05  5  5     0.94     0.17
   6      1.14341322    -0.44982598  -130.28866352     0.00001752    -0.00004253  0.96D-07  0.40D-06  6  6     1.09     0.17
   7      1.14348612    -0.44982737  -130.28866490    -0.00000139    -0.00000145  0.18D-07  0.93D-07  6  1     1.24     0.17
   8      1.14350712    -0.44982799  -130.28866552    -0.00000062     0.00000165  0.35D-08  0.17D-07  6  2     1.40     0.17
   9      1.14351560    -0.44982741  -130.28866495     0.00000057    -0.00000089  0.25D-08  0.18D-08  6  3     1.54     0.17
  10      1.14351573    -0.44982793  -130.28866546    -0.00000052    -0.00000000  0.50D-09  0.25D-09  6  4     1.69     0.17
  11      1.14351412    -0.44982805  -130.28866558    -0.00000012     0.00000053  0.15D-09  0.32D-10  6  5     1.85     0.17
  12      1.14351281    -0.44982823  -130.28866577    -0.00000018     0.00000042  0.15D-10  0.89D-11  6  6     2.00     0.17
  13      1.14351210    -0.44982825  -130.28866579    -0.00000002     0.00000017  0.54D-11  0.17D-11  6  1     2.15     0.17
  14      1.14351167    -0.44982828  -130.28866581    -0.00000002     0.00000009  0.83D-12  0.55D-12  6  2     2.31     0.17
  15      1.14351149    -0.44982828  -130.28866582    -0.00000000     0.00000002  0.24D-12  0.17D-12  6  3     2.47     0.17
  16      1.14351140    -0.44982828  -130.28866582    -0.00000000     0.00000001  0.40D-13  0.59D-13  6  4     2.62     0.17
  17      1.14351135    -0.44982829  -130.28866582    -0.00000000     0.00000001  0.27D-14  0.13D-13  6  5     2.78     0.17
  18      1.14351134    -0.44982829  -130.28866582     0.00000000     0.00000000  0.11D-14  0.30D-14  6  6     2.91     0.17
  19      1.14351134    -0.44982829  -130.28866582     0.00000000    -0.00000000  0.14D-15  0.21D-15  6  5     3.08     0.17
  20      1.14351134    -0.44982829  -130.28866582    -0.00000000    -0.00000000  0.59D-16  0.38D-16  6  1     3.23     0.17
  21      1.14351134    -0.44982829  -130.28866582     0.00000000     0.00000000  0.13D-16  0.86D-17  6  2     3.39     0.17
  22      1.14351134    -0.44982829  -130.28866582    -0.00000000     0.00000000  0.35D-17  0.96D-18  6  3     3.52     0.17
  23      1.14351134    -0.44982829  -130.28866582     0.00000000     0.00000000  0.83D-18  0.29D-18  6  4     3.68     0.17
  24      1.14351134    -0.44982829  -130.28866582    -0.00000000     0.00000000  0.24D-18  0.55D-19  6  6     3.84     0.17
  25      1.14351134    -0.44982829  -130.28866582     0.00000000    -0.00000000  0.43D-19  0.26D-19  6  5     3.99     0.17
  26      1.14351134    -0.44982829  -130.28866582     0.00000000    -0.00000000  0.63D-20  0.98D-20  6  1     4.14     0.17
  27      1.14351134    -0.44982829  -130.28866582    -0.00000000    -0.00000000  0.29D-21  0.14D-20  6  3     4.29     0.17
  28      1.14351134    -0.44982829  -130.28866582     0.00000000     0.00000000  0.70D-22  0.17D-21  6  2     4.44     0.17

 Norm of t1 vector:      0.07887178      S-energy:     0.00000000      T1 diagnostic:  0.01609963
                                                                       D1 diagnostic:  0.04268759

 Doubles amplitudes (print threshold =  0.500E-01):

         I         J         SYM. A    SYM. B    A         B      T(IJ, AB)

         6         6         2         2         1         1     -0.11113414


 Total CPU time for triples:      1.20 sec


 RESULTS
 =======

  Reference energy                   -129.838837534190
  CCSD singlet pair energy             -0.308505732197
  CCSD triplet pair energy             -0.141322553393
  CCSD correlation energy              -0.449828285590

  Triples (T) contribution             -0.021026942849
  Total correlation energy             -0.470855228439

  CCSD total energy                  -130.288665819779
  CCSD[T] energy                     -130.310772713427
  CCSD-T energy                      -130.309285983385
 !CCSD(T) total energy               -130.309692762629

 Timing summary (sec):

 STEP                 CPU(USER)    SYS     CPU(TOT)    WALL
 Transformation          0.16      0.04      0.20      0.32
 CCSD iterations         4.29      0.58      4.87      4.87
 Triples                 1.20      0.05      1.25      1.26

 Program statistics:

 Available memory in ccsd:               994999756
 Min. memory needed in ccsd:                389120
 Max. memory used in ccsd:                  473124
 Max. memory used in cckext:                599488 (28 integral passes)



 **********************************************************************************************************************************
 DATASETS  * FILE   NREC   LENGTH (MB)   RECORD NAMES
              1      20      128.20       500      610      700      900      950      970     1000      129      960     1100   
                                          VAR    BASINP    GEOM    SYMINP    ZMAT    AOBASIS   BASIS     P2S    ABASIS      S 
                                         1400     1410     1200     1210     1080     1600     1650     1300     1700     1380   
                                           T        V       H0       H01     AOSYM     SMH    MOLCAS    ERIS     OPER     JKOP   

              2       4        2.94       700     1000      520     2100   
                                         GEOM     BASIS   MCVARS     RHF  

 PROGRAMS   *        TOTAL   CCSD(T)        HF       INT
 CPU TIMES  *         8.27      5.67      1.32      1.17
 REAL TIME  *        10.24 SEC
 DISK USED  *       327.55 MB      
 **********************************************************************************************************************************

 CCSD(T)/aug-cc-pVTZ energy=   -130.309692762629

        CCSD(T)         HF-SCF  
   -130.30969276   -129.83883753
 **********************************************************************************************************************************
 Molpro calculation terminated
 Variable memory released
