
 Primary working directories    : /tmp/r2666/282204.maple
 Secondary working directories  : /tmp/r2666/282204.maple
 Wavefunction directory         : /ddn/home4/r2666/wfu/
 Main file repository           : /tmp/r2666/282204.maple/

 SHA1      : d5ffa45e93fdbca01ffc919aa182cfdae0147319
 NAME      : 2015.1.35
 ARCHNAME  : linux/x86_64
 FC        : /opt/intel/composer_xe_2015.1.133/bin/intel64/ifort
 BLASLIB   : -Wl,-_start-group /opt/intel/mkl/lib/intel64/libmkl_intel_ilp64.a /opt/intel/mkl/lib/intel64/libmkl_intel_thread.a /opt/intel/mkl/lib/intel64/libmkl_core.a -Wl,-_end-group
 id        : olemiss

 Nodes     nprocs
 cn081        1

 Using customized tuning parameters: mindgm=1; mindgv=20; mindgc=4; mindgr=1; noblas=0; minvec=7
 default implementation of scratch files=df  

 ***,hno CCSD(T)/TZ-F12 QFF
 memory, 995, m;
 gthresh,energy=1.d-12,zero=1.d-22,oneint=1.d-22,twoint=1.d-22;
 gthresh,optgrad=1.d-8,optstep=1.d-8;
 nocompress;
 geomtyp=xyz
 bohr
 geometry={
 3
        101       101
 H        0.0000000000        1.6719981722       -1.9434243970
 N        0.0000000000       -0.1573010005       -1.1411210566
 O        0.0000000000        0.0270706183        1.1339558626
 }
 
 basis=avtz
   {hf,maxit=500;accu,20;}
 {ccsd(t),nocheck,maxit=250;orbital,IGNORE_ERROR;}

 Variables initialized (889), CPU time= 0.01 sec
 Commands  initialized (702), CPU time= 0.01 sec, 572 directives.
 Default parameters read. Elapsed time= 0.06 sec

 Checking input...
 Passed
1


                                         ***  PROGRAM SYSTEM MOLPRO  ***
                                       Copyright, TTI GmbH Stuttgart, 2015
                                    Version 2015.1 linked Jul  9 2018 13:16:40


 **********************************************************************************************************************************
 LABEL *   hno CCSD(T)/TZ-F12 QFF                                                        
  64 bit serial version                                                                  DATE: 04-Mar-20          TIME: 13:46:39  
 **********************************************************************************************************************************

 SHA1:             d5ffa45e93fdbca01ffc919aa182cfdae0147319
 **********************************************************************************************************************************

 THRESHOLDS:

 ZERO    =  1.00D-22  ONEINT  =  1.00D-22  TWOINT  =  1.00D-22  PREFAC  =  1.00D-14  LOCALI  =  1.00D-09  EORDER  =  1.00D-04
 ENERGY  =  1.00D-12  ETEST   =  0.00D+00  EDENS   =  0.00D+00  THRDEDEF=  1.00D-06  GRADIENT=  1.00D-02  STEP    =  1.00D-03
 ORBITAL =  1.00D-05  CIVEC   =  1.00D-05  COEFF   =  1.00D-04  PRINTCI =  5.00D-02  PUNCHCI =  9.90D+01  OPTGRAD =  3.00D-04
 OPTENERG=  1.00D-06  OPTSTEP =  3.00D-04  THRGRAD =  1.00D-10  COMPRESS=  1.00D-11  VARMIN  =  1.00D-07  VARMAX  =  1.00D-03
 THRDOUB =  0.00D+00  THRDIV  =  1.00D-05  THRRED  =  1.00D-07  THRPSP  =  1.00D+00  THRDC   =  1.00D-10  THRCS   =  1.00D-10
 THRNRM  =  1.00D-08  THREQ   =  0.00D+00  THRDE   =  1.00D+00  THRREF  =  1.00D-05  SPARFAC =  1.00D+00  THRDLP  =  1.00D-07
 THRDIA  =  1.00D-10  THRDLS  =  1.00D-07  THRGPS  =  0.00D+00  THRKEX  =  0.00D+00  THRDIS  =  2.00D-01  THRVAR  =  1.00D-10
 THRLOC  =  1.00D-06  THRGAP  =  1.00D-06  THRLOCT = -1.00D+00  THRGAPT = -1.00D+00  THRORB  =  1.00D-06  THRMLTP =  0.00D+00
 THRCPQCI=  1.00D-10  KEXTA   =  0.00D+00  THRCOARS=  0.00D+00  SYMTOL  =  1.00D-06  GRADTOL =  1.00D-06  THROVL  =  1.00D-08
 THRORTH =  1.00D-08  GRID    =  1.00D-06  GRIDMAX =  1.00D-03  DTMAX   =  0.00D+00  THROCCDE=  1.00D-01  THROCCDE=  1.00D-01



 THRESHOLDS:

 ZERO    =  1.00D-22  ONEINT  =  1.00D-22  TWOINT  =  1.00D-22  PREFAC  =  1.00D-14  LOCALI  =  1.00D-09  EORDER  =  1.00D-04
 ENERGY  =  1.00D-12  ETEST   =  0.00D+00  EDENS   =  0.00D+00  THRDEDEF=  1.00D-06  GRADIENT=  1.00D-02  STEP    =  1.00D-03
 ORBITAL =  1.00D-05  CIVEC   =  1.00D-05  COEFF   =  1.00D-04  PRINTCI =  5.00D-02  PUNCHCI =  9.90D+01  OPTGRAD =  1.00D-08
 OPTENERG=  1.00D-06  OPTSTEP =  1.00D-08  THRGRAD =  1.00D-10  COMPRESS=  1.00D-11  VARMIN  =  1.00D-07  VARMAX  =  1.00D-03
 THRDOUB =  0.00D+00  THRDIV  =  1.00D-05  THRRED  =  1.00D-07  THRPSP  =  1.00D+00  THRDC   =  1.00D-10  THRCS   =  1.00D-10
 THRNRM  =  1.00D-08  THREQ   =  0.00D+00  THRDE   =  1.00D+00  THRREF  =  1.00D-05  SPARFAC =  1.00D+00  THRDLP  =  1.00D-07
 THRDIA  =  1.00D-10  THRDLS  =  1.00D-07  THRGPS  =  0.00D+00  THRKEX  =  0.00D+00  THRDIS  =  2.00D-01  THRVAR  =  1.00D-10
 THRLOC  =  1.00D-06  THRGAP  =  1.00D-06  THRLOCT = -1.00D+00  THRGAPT = -1.00D+00  THRORB  =  1.00D-06  THRMLTP =  0.00D+00
 THRCPQCI=  1.00D-10  KEXTA   =  0.00D+00  THRCOARS=  0.00D+00  SYMTOL  =  1.00D-06  GRADTOL =  1.00D-06  THROVL  =  1.00D-08
 THRORTH =  1.00D-08  GRID    =  1.00D-06  GRIDMAX =  1.00D-03  DTMAX   =  0.00D+00  THROCCDE=  1.00D-01  THROCCDE=  1.00D-01



 Input parameters for SORTINT:

 COMPRESS =    0.000000
 C_FINAL  =    1.000000
 DEBUG    =   -1.000000
 C_SORT1  =    0.000000
 C_SEWARD =    0.000000
 THRESH   =    0.000000
 IO       =  molpro                                                          
 SPRI     =    0.000000
 SETTING GEOMTYP        =    XYZ
 ZUNIT=BOHR
 

 Variable memory set to  995000000 words,  buffer space   230000 words

 SETTING BASIS          =    AVTZ


 Recomputing integrals since basis changed


 Using spherical harmonics

 Library entry H      S aug-cc-pVTZ          selected for orbital group  1
 Library entry H      P aug-cc-pVTZ          selected for orbital group  1
 Library entry H      D aug-cc-pVTZ          selected for orbital group  1
 Library entry N      S aug-cc-pVTZ          selected for orbital group  2
 Library entry N      P aug-cc-pVTZ          selected for orbital group  2
 Library entry N      D aug-cc-pVTZ          selected for orbital group  2
 Library entry N      F aug-cc-pVTZ          selected for orbital group  2
 Library entry O      S aug-cc-pVTZ          selected for orbital group  3
 Library entry O      P aug-cc-pVTZ          selected for orbital group  3
 Library entry O      D aug-cc-pVTZ          selected for orbital group  3
 Library entry O      F aug-cc-pVTZ          selected for orbital group  3


 PROGRAM * SEWARD (Integral evaluation for generally contracted gaussian basis sets)     Author: Roland Lindh, 1990

 Geometry written to block  1 of record 700


 Point group  Cs  



 ATOMIC COORDINATES

 NR  ATOM    CHARGE       X              Y              Z

   1  H       1.00    0.000000000    1.671998172   -1.943424397
   2  N       7.00    0.000000000   -0.157301001   -1.141121057
   3  O       8.00    0.000000000    0.027070618    1.133955863

 Bond lengths in Bohr (Angstrom)

 1-2  1.997504972  2-3  2.282535407
     ( 1.057034110)     ( 1.207865720)

 Bond angles

  1-2-3  109.04843018

 NUCLEAR CHARGE:                   16
 NUMBER OF PRIMITIVE AOS:         161
 NUMBER OF SYMMETRY AOS:          141
 NUMBER OF CONTRACTIONS:          115   (  76A'  +  39A"  )
 NUMBER OF CORE ORBITALS:           2   (   2A'  +   0A"  )
 NUMBER OF VALENCE ORBITALS:        9   (   7A'  +   2A"  )


 NUCLEAR REPULSION ENERGY   30.33113707

 Eigenvalues of metric

         1 0.233E-03 0.499E-03 0.182E-02 0.215E-02 0.253E-02 0.358E-02 0.434E-02 0.518E-02
         2 0.394E-02 0.102E-01 0.262E-01 0.371E-01 0.510E-01 0.624E-01 0.815E-01 0.121E+00


 Contracted 2-electron integrals neglected if value below      1.0D-22

       10790064. INTEGRALS WRITTEN OUT IN    2635 BLOCKS ON RECORD 1290 OF FILE 1


 NUMBER OF SORTED TWO-ELECTRON INTEGRALS:   11433631.     BUFFER LENGTH:  32768
 NUMBER OF SEGMENTS:   1  SEGMENT LENGTH:   11433631      RECORD LENGTH: 524288

 Memory used in sort:      11.99 MW

 SORT1 READ    10790064. AND WROTE    10943632. INTEGRALS IN     32 RECORDS. CPU TIME:     0.14 SEC, REAL TIME:     0.22 SEC
 SORT2 READ    10943632. AND WROTE    11433631. INTEGRALS IN      1 RECORDS. CPU TIME:     0.15 SEC, REAL TIME:     0.21 SEC

 FILE SIZES:   FILE 1:   193.0 MBYTE,  FILE 4:   134.3 MBYTE,   TOTAL:    327.2 MBYTE

 OPERATOR DM      FOR CENTER  0  COORDINATES:    0.000000    0.000000    0.000000


 **********************************************************************************************************************************
 DATASETS  * FILE   NREC   LENGTH (MB)   RECORD NAMES
              1      19      111.05       500      610      700      900      950      970     1000      129      960     1100   
                                          VAR    BASINP    GEOM    SYMINP    ZMAT    AOBASIS   BASIS     P2S    ABASIS      S 
                                         1400     1410     1200     1210     1080     1600     1650     1300     1700   
                                           T        V       H0       H01     AOSYM     SMH    MOLCAS    ERIS     OPER   

 PROGRAMS   *        TOTAL       INT
 CPU TIMES  *         1.25      1.15
 REAL TIME  *         2.11 SEC
 DISK USED  *       327.55 MB      
 **********************************************************************************************************************************


 PROGRAM * RHF-SCF (CLOSED SHELL)       Authors: W. Meyer, H.-J. Werner


 NUMBER OF ELECTRONS:       8+    8-
 CONVERGENCE THRESHOLDS:    1.00E-10 (Density)    1.00E-13 (Energy)
 MAX. NUMBER OF ITERATIONS:      500
 INTERPOLATION TYPE:            DIIS
 INTERPOLATION STEPS:              2 (START)      1 (STEP)
 LEVEL SHIFTS:                  0.00 (CLOSED)  0.00 (OPEN) 



 Orbital guess generated from atomic densities. Full valence occupancy:    9   2

 Molecular orbital dump at record        2100.2

 Initial occupancy:   7   1

 ITERATION    DDIFF          GRAD             ENERGY        2-EL.EN.            DIPOLE MOMENTS         DIIS   ORB.
    1      0.000D+00      0.000D+00      -129.78802695    153.819718    0.00000    0.59619   -1.02310    0    start
    2      0.000D+00      0.108D-01      -129.81547238    155.099257    0.00000    0.60973   -0.21149    1    diag
    3      0.119D-01      0.824D-02      -129.83822427    155.208016    0.00000    0.55882   -0.59530    2    diag
    4      0.594D-02      0.128D-02      -129.83901852    154.918537    0.00000    0.56581   -0.53518    3    diag
    5      0.107D-02      0.421D-03      -129.83914499    155.013183    0.00000    0.57155   -0.53811    4    diag
    6      0.451D-03      0.122D-03      -129.83916517    154.997579    0.00000    0.57194   -0.53402    5    diag
    7      0.173D-03      0.602D-04      -129.83917095    155.000110    0.00000    0.57322   -0.53148    6    diag
    8      0.119D-03      0.205D-04      -129.83917157    154.999459    0.00000    0.57324   -0.53049    7    diag
    9      0.444D-04      0.391D-05      -129.83917160    154.999348    0.00000    0.57321   -0.53027    8    diag
   10      0.861D-05      0.897D-06      -129.83917160    154.999328    0.00000    0.57317   -0.53024    9    orth
   11      0.177D-05      0.178D-06      -129.83917160    154.999325    0.00000    0.57316   -0.53024    9    diag
   12      0.342D-06      0.364D-07      -129.83917160    154.999325    0.00000    0.57316   -0.53024    9    diag
   13      0.730D-07      0.922D-08      -129.83917160    154.999325    0.00000    0.57316   -0.53024    9    diag
   14      0.191D-07      0.192D-08      -129.83917160    154.999325    0.00000    0.57316   -0.53024    9    diag
   15      0.381D-08      0.534D-09      -129.83917160    154.999325    0.00000    0.57316   -0.53024    9    diag
   16      0.103D-08      0.145D-09      -129.83917160    154.999325    0.00000    0.57316   -0.53024    9    diag
   17      0.182D-09      0.408D-10      -129.83917160    154.999325    0.00000    0.57316   -0.53024    9    diag
   18      0.501D-10      0.146D-10      -129.83917160    154.999325    0.00000    0.57316   -0.53024    9    diag
   19      0.260D-10      0.322D-11      -129.83917160    154.999325    0.00000    0.57316   -0.53024    9    fixocc
   20      0.660D-11      0.564D-12      -129.83917160    154.999325    0.00000    0.57316   -0.53024    0    orth

 Final occupancy:   7   1

 !RHF STATE 1.1 Energy               -129.839171598176
 Nuclear energy                        30.33113707
 One-electron energy                 -237.66997097
 Two-electron energy                   77.49966230
 Virial quotient                       -1.00223804
 !RHF STATE 1.1 Dipole moment           0.00000000     0.57316148    -0.53023806
 Dipole moment /Debye                   0.00000000     1.45673576    -1.34764244

 Orbital energies:

         1.1          2.1          3.1          4.1          5.1          6.1          7.1          8.1          9.1
    -20.656871   -15.714970    -1.530373    -0.994288    -0.746751    -0.666292    -0.429537     0.029105     0.092120

         1.2          2.2          3.2
     -0.596241     0.064778     0.130267

 HOMO      7.1    -0.429537 =     -11.6883eV
 LUMO      8.1     0.029105 =       0.7920eV
 LUMO-HOMO         0.458643 =      12.4803eV


 **********************************************************************************************************************************
 DATASETS  * FILE   NREC   LENGTH (MB)   RECORD NAMES
              1      19      111.05       500      610      700      900      950      970     1000      129      960     1100   
                                          VAR    BASINP    GEOM    SYMINP    ZMAT    AOBASIS   BASIS     P2S    ABASIS      S 
                                         1400     1410     1200     1210     1080     1600     1650     1300     1700   
                                           T        V       H0       H01     AOSYM     SMH    MOLCAS    ERIS     OPER   

              2       4        2.94       700     1000      520     2100   
                                         GEOM     BASIS   MCVARS     RHF  

 PROGRAMS   *        TOTAL        HF       INT
 CPU TIMES  *         2.25      0.99      1.15
 REAL TIME  *         3.37 SEC
 DISK USED  *       327.55 MB      
 **********************************************************************************************************************************


 PROGRAM * CCSD (Closed-shell coupled cluster)     Authors: C. Hampel, H.-J. Werner, 1991, M. Deegan, P.J. Knowles, 1992


 Convergence thresholds:  THRVAR = 1.00D-08  THRDEN = 1.00D-12

 CCSD(T)     terms to be evaluated (factor= 1.000)


 Number of core orbitals:           2 (   2   0 )
 Number of closed-shell orbitals:   6 (   5   1 )
 Number of external orbitals:     107 (  69  38 )

 Molecular orbitals read from record     2100.2  Type=RHF/CANONICAL (state 1.1)

 Number of N-1 electron functions:               6
 Number of N-2 electron functions:              21
 Number of singly external CSFs:               383
 Number of doubly external CSFs:            107206
 Total number of CSFs:                      107590

 Length of J-op  integral file:               0.00 MB
 Length of K-op  integral file:               0.54 MB
 Length of 3-ext integral record:             0.00 MB

 Memory could be reduced to 5.94 Mwords without degradation in triples

 Integral transformation finished. Total CPU:   0.13 sec, npass=  1  Memory used:   1.65 MW

 Reference energy:                   -129.83917160

 MP2 singlet pair energy:              -0.27955199
 MP2 triplet pair energy:              -0.16525314
 MP2 correlation energy:               -0.44480512
 MP2 total energy:                   -130.28397672

 SCS-MP2 correlation energy:           -0.43828656   (PS=  1.200000  PT=  0.333333)
 SCS-MP2 total energy:               -130.27745816

 ITER.      SQ.NORM     CORR.ENERGY   TOTAL ENERGY   ENERGY CHANGE        DEN1      VAR(S)    VAR(P)  DIIS     TIME  TIME/IT
   1      1.12113650    -0.44890561  -130.28807721    -0.00410049     0.01202482  0.32D-02  0.32D-02  1  1     0.27     0.15
   2      1.13230555    -0.44909668  -130.28826828    -0.00019106    -0.01247895  0.10D-03  0.52D-03  2  2     0.41     0.16
   3      1.13884649    -0.44950277  -130.28867437    -0.00040609    -0.00301569  0.55D-04  0.52D-04  3  3     0.54     0.16
   4      1.14175519    -0.44951280  -130.28868440    -0.00001003    -0.00098241  0.43D-05  0.94D-05  4  4     0.68     0.16
   5      1.14282815    -0.44954211  -130.28871371    -0.00002931    -0.00022700  0.12D-05  0.17D-05  5  5     0.81     0.16
   6      1.14317858    -0.44952501  -130.28869661     0.00001710    -0.00004254  0.11D-06  0.40D-06  6  6     0.96     0.16
   7      1.14325603    -0.44952604  -130.28869764    -0.00000103    -0.00000195  0.20D-07  0.95D-07  6  1     1.11     0.16
   8      1.14327845    -0.44952675  -130.28869835    -0.00000072     0.00000134  0.37D-08  0.17D-07  6  2     1.25     0.16
   9      1.14328413    -0.44952627  -130.28869787     0.00000048     0.00000053  0.29D-08  0.19D-08  6  4     1.38     0.16
  10      1.14328653    -0.44952677  -130.28869837    -0.00000050    -0.00000075  0.47D-09  0.23D-09  6  3     1.54     0.16
  11      1.14328601    -0.44952679  -130.28869839    -0.00000003    -0.00000007  0.16D-09  0.35D-10  6  5     1.69     0.16
  12      1.14328491    -0.44952695  -130.28869855    -0.00000016     0.00000035  0.19D-10  0.11D-10  6  6     1.83     0.16
  13      1.14328402    -0.44952699  -130.28869858    -0.00000004     0.00000022  0.67D-11  0.23D-11  6  1     1.98     0.16
  14      1.14328345    -0.44952702  -130.28869861    -0.00000003     0.00000014  0.11D-11  0.73D-12  6  2     2.12     0.16
  15      1.14328321    -0.44952702  -130.28869862    -0.00000001     0.00000003  0.30D-12  0.23D-12  6  4     2.25     0.16
  16      1.14328311    -0.44952703  -130.28869862    -0.00000000     0.00000001  0.57D-13  0.82D-13  6  3     2.39     0.16
  17      1.14328305    -0.44952703  -130.28869863    -0.00000000     0.00000001  0.40D-14  0.20D-13  6  5     2.53     0.16
  18      1.14328305    -0.44952703  -130.28869863     0.00000000    -0.00000000  0.14D-14  0.42D-14  6  6     2.67     0.16
  19      1.14328304    -0.44952703  -130.28869863    -0.00000000     0.00000000  0.12D-14  0.77D-15  6  1     2.81     0.16
  20      1.14328304    -0.44952703  -130.28869863     0.00000000    -0.00000000  0.25D-15  0.14D-15  6  2     2.96     0.16
  21      1.14328304    -0.44952703  -130.28869863     0.00000000    -0.00000000  0.58D-16  0.35D-16  6  3     3.13     0.16
  22      1.14328304    -0.44952703  -130.28869863     0.00000000     0.00000000  0.68D-17  0.31D-17  6  4     3.29     0.16
  23      1.14328304    -0.44952703  -130.28869863     0.00000000    -0.00000000  0.25D-17  0.63D-18  6  5     3.44     0.16
  24      1.14328304    -0.44952703  -130.28869863     0.00000000     0.00000000  0.17D-18  0.54D-19  6  2     3.60     0.16
  25      1.14328304    -0.44952703  -130.28869863    -0.00000000    -0.00000000  0.26D-19  0.14D-19  6  6     3.75     0.16
  26      1.14328304    -0.44952703  -130.28869863     0.00000000    -0.00000000  0.41D-20  0.23D-20  6  1     3.90     0.16
  27      1.14328304    -0.44952703  -130.28869863    -0.00000000    -0.00000000  0.55D-21  0.55D-21  6  4     4.03     0.16

 Norm of t1 vector:      0.07890777      S-energy:     0.00000000      T1 diagnostic:  0.01610698
                                                                       D1 diagnostic:  0.04217363

 Doubles amplitudes (print threshold =  0.500E-01):

         I         J         SYM. A    SYM. B    A         B      T(IJ, AB)

         6         6         2         2         1         1     -0.10885229


 Total CPU time for triples:      1.11 sec


 RESULTS
 =======

  Reference energy                   -129.839171598176
  CCSD singlet pair energy             -0.308242062847
  CCSD triplet pair energy             -0.141284965643
  CCSD correlation energy              -0.449527028490

  Triples (T) contribution             -0.020954106555
  Total correlation energy             -0.470481135045

  CCSD total energy                  -130.288698626666
  CCSD[T] energy                     -130.310729378086
  CCSD-T energy                      -130.309245128180
 !CCSD(T) total energy               -130.309652733221

 Timing summary (sec):

 STEP                 CPU(USER)    SYS     CPU(TOT)    WALL
 Transformation          0.13      0.04      0.17      0.18
 CCSD iterations         3.90      0.54      4.44      4.43
 Triples                 1.11      0.03      1.14      1.15

 Program statistics:

 Available memory in ccsd:               994999756
 Min. memory needed in ccsd:                389120
 Max. memory used in ccsd:                  473124
 Max. memory used in cckext:                599488 (27 integral passes)



 **********************************************************************************************************************************
 DATASETS  * FILE   NREC   LENGTH (MB)   RECORD NAMES
              1      20      128.20       500      610      700      900      950      970     1000      129      960     1100   
                                          VAR    BASINP    GEOM    SYMINP    ZMAT    AOBASIS   BASIS     P2S    ABASIS      S 
                                         1400     1410     1200     1210     1080     1600     1650     1300     1700     1380   
                                           T        V       H0       H01     AOSYM     SMH    MOLCAS    ERIS     OPER     JKOP   

              2       4        2.94       700     1000      520     2100   
                                         GEOM     BASIS   MCVARS     RHF  

 PROGRAMS   *        TOTAL   CCSD(T)        HF       INT
 CPU TIMES  *         7.44      5.18      0.99      1.15
 REAL TIME  *         9.19 SEC
 DISK USED  *       327.55 MB      
 **********************************************************************************************************************************

 CCSD(T)/aug-cc-pVTZ energy=   -130.309652733221

        CCSD(T)         HF-SCF  
   -130.30965273   -129.83917160
 **********************************************************************************************************************************
 Molpro calculation terminated
 Variable memory released
