
 Primary working directories    : /tmp/r2666/282137.maple
 Secondary working directories  : /tmp/r2666/282137.maple
 Wavefunction directory         : /ddn/home4/r2666/wfu/
 Main file repository           : /tmp/r2666/282137.maple/

 SHA1      : d5ffa45e93fdbca01ffc919aa182cfdae0147319
 NAME      : 2015.1.35
 ARCHNAME  : linux/x86_64
 FC        : /opt/intel/composer_xe_2015.1.133/bin/intel64/ifort
 BLASLIB   : -Wl,-_start-group /opt/intel/mkl/lib/intel64/libmkl_intel_ilp64.a /opt/intel/mkl/lib/intel64/libmkl_intel_thread.a /opt/intel/mkl/lib/intel64/libmkl_core.a -Wl,-_end-group
 id        : olemiss

 Nodes     nprocs
 cn046        1

 Using customized tuning parameters: mindgm=1; mindgv=20; mindgc=4; mindgr=1; noblas=0; minvec=7
 default implementation of scratch files=df  

 ***,hno CCSD(T)/TZ-F12 QFF
 memory, 995, m;
 gthresh,energy=1.d-12,zero=1.d-22,oneint=1.d-22,twoint=1.d-22;
 gthresh,optgrad=1.d-8,optstep=1.d-8;
 nocompress;
 geomtyp=xyz
 bohr
 geometry={
 3
         34        34
 H        0.0000000000        1.6625065754       -1.9291318417
 N        0.0000000000       -0.1553971036       -1.1480334533
 O        0.0000000000        0.0346583183        1.1265757040
 }
 
 basis=avtz
   {hf,maxit=500;accu,20;}
 {ccsd(t),nocheck,maxit=250;orbital,IGNORE_ERROR;}

 Variables initialized (889), CPU time= 0.00 sec
 Commands  initialized (702), CPU time= 0.01 sec, 572 directives.
 Default parameters read. Elapsed time= 0.22 sec

 Checking input...
 Passed
1


                                         ***  PROGRAM SYSTEM MOLPRO  ***
                                       Copyright, TTI GmbH Stuttgart, 2015
                                    Version 2015.1 linked Jul  9 2018 13:16:40


 **********************************************************************************************************************************
 LABEL *   hno CCSD(T)/TZ-F12 QFF                                                        
  64 bit serial version                                                                  DATE: 04-Mar-20          TIME: 13:46:09  
 **********************************************************************************************************************************

 SHA1:             d5ffa45e93fdbca01ffc919aa182cfdae0147319
 **********************************************************************************************************************************

 THRESHOLDS:

 ZERO    =  1.00D-22  ONEINT  =  1.00D-22  TWOINT  =  1.00D-22  PREFAC  =  1.00D-14  LOCALI  =  1.00D-09  EORDER  =  1.00D-04
 ENERGY  =  1.00D-12  ETEST   =  0.00D+00  EDENS   =  0.00D+00  THRDEDEF=  1.00D-06  GRADIENT=  1.00D-02  STEP    =  1.00D-03
 ORBITAL =  1.00D-05  CIVEC   =  1.00D-05  COEFF   =  1.00D-04  PRINTCI =  5.00D-02  PUNCHCI =  9.90D+01  OPTGRAD =  3.00D-04
 OPTENERG=  1.00D-06  OPTSTEP =  3.00D-04  THRGRAD =  1.00D-10  COMPRESS=  1.00D-11  VARMIN  =  1.00D-07  VARMAX  =  1.00D-03
 THRDOUB =  0.00D+00  THRDIV  =  1.00D-05  THRRED  =  1.00D-07  THRPSP  =  1.00D+00  THRDC   =  1.00D-10  THRCS   =  1.00D-10
 THRNRM  =  1.00D-08  THREQ   =  0.00D+00  THRDE   =  1.00D+00  THRREF  =  1.00D-05  SPARFAC =  1.00D+00  THRDLP  =  1.00D-07
 THRDIA  =  1.00D-10  THRDLS  =  1.00D-07  THRGPS  =  0.00D+00  THRKEX  =  0.00D+00  THRDIS  =  2.00D-01  THRVAR  =  1.00D-10
 THRLOC  =  1.00D-06  THRGAP  =  1.00D-06  THRLOCT = -1.00D+00  THRGAPT = -1.00D+00  THRORB  =  1.00D-06  THRMLTP =  0.00D+00
 THRCPQCI=  1.00D-10  KEXTA   =  0.00D+00  THRCOARS=  0.00D+00  SYMTOL  =  1.00D-06  GRADTOL =  1.00D-06  THROVL  =  1.00D-08
 THRORTH =  1.00D-08  GRID    =  1.00D-06  GRIDMAX =  1.00D-03  DTMAX   =  0.00D+00  THROCCDE=  1.00D-01  THROCCDE=  1.00D-01



 THRESHOLDS:

 ZERO    =  1.00D-22  ONEINT  =  1.00D-22  TWOINT  =  1.00D-22  PREFAC  =  1.00D-14  LOCALI  =  1.00D-09  EORDER  =  1.00D-04
 ENERGY  =  1.00D-12  ETEST   =  0.00D+00  EDENS   =  0.00D+00  THRDEDEF=  1.00D-06  GRADIENT=  1.00D-02  STEP    =  1.00D-03
 ORBITAL =  1.00D-05  CIVEC   =  1.00D-05  COEFF   =  1.00D-04  PRINTCI =  5.00D-02  PUNCHCI =  9.90D+01  OPTGRAD =  1.00D-08
 OPTENERG=  1.00D-06  OPTSTEP =  1.00D-08  THRGRAD =  1.00D-10  COMPRESS=  1.00D-11  VARMIN  =  1.00D-07  VARMAX  =  1.00D-03
 THRDOUB =  0.00D+00  THRDIV  =  1.00D-05  THRRED  =  1.00D-07  THRPSP  =  1.00D+00  THRDC   =  1.00D-10  THRCS   =  1.00D-10
 THRNRM  =  1.00D-08  THREQ   =  0.00D+00  THRDE   =  1.00D+00  THRREF  =  1.00D-05  SPARFAC =  1.00D+00  THRDLP  =  1.00D-07
 THRDIA  =  1.00D-10  THRDLS  =  1.00D-07  THRGPS  =  0.00D+00  THRKEX  =  0.00D+00  THRDIS  =  2.00D-01  THRVAR  =  1.00D-10
 THRLOC  =  1.00D-06  THRGAP  =  1.00D-06  THRLOCT = -1.00D+00  THRGAPT = -1.00D+00  THRORB  =  1.00D-06  THRMLTP =  0.00D+00
 THRCPQCI=  1.00D-10  KEXTA   =  0.00D+00  THRCOARS=  0.00D+00  SYMTOL  =  1.00D-06  GRADTOL =  1.00D-06  THROVL  =  1.00D-08
 THRORTH =  1.00D-08  GRID    =  1.00D-06  GRIDMAX =  1.00D-03  DTMAX   =  0.00D+00  THROCCDE=  1.00D-01  THROCCDE=  1.00D-01



 Input parameters for SORTINT:

 COMPRESS =    0.000000
 C_FINAL  =    1.000000
 DEBUG    =   -1.000000
 C_SORT1  =    0.000000
 C_SEWARD =    0.000000
 THRESH   =    0.000000
 IO       =  molpro                                                          
 SPRI     =    0.000000
 SETTING GEOMTYP        =    XYZ
 ZUNIT=BOHR
 

 Variable memory set to  995000000 words,  buffer space   230000 words

 SETTING BASIS          =    AVTZ


 Recomputing integrals since basis changed


 Using spherical harmonics

 Library entry H      S aug-cc-pVTZ          selected for orbital group  1
 Library entry H      P aug-cc-pVTZ          selected for orbital group  1
 Library entry H      D aug-cc-pVTZ          selected for orbital group  1
 Library entry N      S aug-cc-pVTZ          selected for orbital group  2
 Library entry N      P aug-cc-pVTZ          selected for orbital group  2
 Library entry N      D aug-cc-pVTZ          selected for orbital group  2
 Library entry N      F aug-cc-pVTZ          selected for orbital group  2
 Library entry O      S aug-cc-pVTZ          selected for orbital group  3
 Library entry O      P aug-cc-pVTZ          selected for orbital group  3
 Library entry O      D aug-cc-pVTZ          selected for orbital group  3
 Library entry O      F aug-cc-pVTZ          selected for orbital group  3


 PROGRAM * SEWARD (Integral evaluation for generally contracted gaussian basis sets)     Author: Roland Lindh, 1990

 Geometry written to block  1 of record 700


 Point group  Cs  



 ATOMIC COORDINATES

 NR  ATOM    CHARGE       X              Y              Z

   1  H       1.00    0.000000000    1.662506575   -1.929131842
   2  N       7.00    0.000000000   -0.155397104   -1.148033453
   3  O       8.00    0.000000000    0.034658318    1.126575704

 Bond lengths in Bohr (Angstrom)

 1-2  1.978607712  2-3  2.282535406
     ( 1.047034111)     ( 1.207865720)

 Bond angles

  1-2-3  108.47547239

 NUCLEAR CHARGE:                   16
 NUMBER OF PRIMITIVE AOS:         161
 NUMBER OF SYMMETRY AOS:          141
 NUMBER OF CONTRACTIONS:          115   (  76A'  +  39A"  )
 NUMBER OF CORE ORBITALS:           2   (   2A'  +   0A"  )
 NUMBER OF VALENCE ORBITALS:        9   (   7A'  +   2A"  )


 NUCLEAR REPULSION ENERGY   30.38259235

 Eigenvalues of metric

         1 0.231E-03 0.496E-03 0.180E-02 0.211E-02 0.253E-02 0.357E-02 0.429E-02 0.509E-02
         2 0.394E-02 0.999E-02 0.261E-01 0.369E-01 0.511E-01 0.619E-01 0.812E-01 0.119E+00


 Contracted 2-electron integrals neglected if value below      1.0D-22

       10790064. INTEGRALS WRITTEN OUT IN    2635 BLOCKS ON RECORD 1290 OF FILE 1


 NUMBER OF SORTED TWO-ELECTRON INTEGRALS:   11433631.     BUFFER LENGTH:  32768
 NUMBER OF SEGMENTS:   1  SEGMENT LENGTH:   11433631      RECORD LENGTH: 524288

 Memory used in sort:      11.99 MW

 SORT1 READ    10790064. AND WROTE    10943632. INTEGRALS IN     32 RECORDS. CPU TIME:     0.32 SEC, REAL TIME:     0.40 SEC
 SORT2 READ    10943632. AND WROTE    11433631. INTEGRALS IN      1 RECORDS. CPU TIME:     0.21 SEC, REAL TIME:     0.28 SEC

 FILE SIZES:   FILE 1:   193.0 MBYTE,  FILE 4:   134.3 MBYTE,   TOTAL:    327.2 MBYTE

 OPERATOR DM      FOR CENTER  0  COORDINATES:    0.000000    0.000000    0.000000


 **********************************************************************************************************************************
 DATASETS  * FILE   NREC   LENGTH (MB)   RECORD NAMES
              1      19      111.05       500      610      700      900      950      970     1000      129      960     1100   
                                          VAR    BASINP    GEOM    SYMINP    ZMAT    AOBASIS   BASIS     P2S    ABASIS      S 
                                         1400     1410     1200     1210     1080     1600     1650     1300     1700   
                                           T        V       H0       H01     AOSYM     SMH    MOLCAS    ERIS     OPER   

 PROGRAMS   *        TOTAL       INT
 CPU TIMES  *         1.81      1.72
 REAL TIME  *         2.93 SEC
 DISK USED  *       327.55 MB      
 **********************************************************************************************************************************


 PROGRAM * RHF-SCF (CLOSED SHELL)       Authors: W. Meyer, H.-J. Werner


 NUMBER OF ELECTRONS:       8+    8-
 CONVERGENCE THRESHOLDS:    1.00E-10 (Density)    1.00E-13 (Energy)
 MAX. NUMBER OF ITERATIONS:      500
 INTERPOLATION TYPE:            DIIS
 INTERPOLATION STEPS:              2 (START)      1 (STEP)
 LEVEL SHIFTS:                  0.00 (CLOSED)  0.00 (OPEN) 



 Orbital guess generated from atomic densities. Full valence occupancy:    9   2

 Molecular orbital dump at record        2100.2

 Initial occupancy:   7   1

 ITERATION    DDIFF          GRAD             ENERGY        2-EL.EN.            DIPOLE MOMENTS         DIIS   ORB.
    1      0.000D+00      0.000D+00      -129.78881793    153.922428    0.00000    0.59763   -1.02068    0    start
    2      0.000D+00      0.107D-01      -129.81628565    155.187048    0.00000    0.61100   -0.21322    1    diag
    3      0.119D-01      0.817D-02      -129.83863702    155.299324    0.00000    0.56003   -0.59415    2    diag
    4      0.590D-02      0.128D-02      -129.83942802    155.011585    0.00000    0.56738   -0.53417    3    diag
    5      0.107D-02      0.420D-03      -129.83955275    155.105225    0.00000    0.57292   -0.53698    4    diag
    6      0.448D-03      0.121D-03      -129.83957255    155.089735    0.00000    0.57330   -0.53292    5    diag
    7      0.171D-03      0.599D-04      -129.83957825    155.092220    0.00000    0.57453   -0.53037    6    diag
    8      0.118D-03      0.203D-04      -129.83957886    155.091572    0.00000    0.57456   -0.52937    7    diag
    9      0.441D-04      0.385D-05      -129.83957888    155.091466    0.00000    0.57452   -0.52916    8    diag
   10      0.848D-05      0.879D-06      -129.83957889    155.091447    0.00000    0.57449   -0.52913    9    orth
   11      0.173D-05      0.175D-06      -129.83957889    155.091444    0.00000    0.57448   -0.52913    9    diag
   12      0.332D-06      0.358D-07      -129.83957889    155.091444    0.00000    0.57448   -0.52913    9    diag
   13      0.711D-07      0.900D-08      -129.83957889    155.091444    0.00000    0.57448   -0.52913    9    diag
   14      0.185D-07      0.186D-08      -129.83957889    155.091444    0.00000    0.57448   -0.52913    9    diag
   15      0.366D-08      0.517D-09      -129.83957889    155.091444    0.00000    0.57448   -0.52913    9    diag
   16      0.997D-09      0.140D-09      -129.83957889    155.091444    0.00000    0.57448   -0.52913    9    diag
   17      0.175D-09      0.389D-10      -129.83957889    155.091444    0.00000    0.57448   -0.52913    9    diag
   18      0.482D-10      0.138D-10      -129.83957889    155.091444    0.00000    0.57448   -0.52913    9    diag
   19      0.246D-10      0.302D-11      -129.83957889    155.091444    0.00000    0.57448   -0.52913    9    fixocc
   20      0.583D-11      0.538D-12      -129.83957889    155.091444    0.00000    0.57448   -0.52913    9    orth
   21      0.178D-11      0.189D-12      -129.83957889    155.091444    0.00000    0.57448   -0.52913    9    diag
   22      0.866D-12      0.701D-13      -129.83957889    155.091444    0.00000    0.57448   -0.52913    9    diag
   23      0.692D-12      0.471D-13      -129.83957889    155.091444    0.00000    0.57448   -0.52913    0    orth

 Final occupancy:   7   1

 !RHF STATE 1.1 Energy               -129.839578885219
 Nuclear energy                        30.38259235
 One-electron energy                 -237.76789325
 Two-electron energy                   77.54572201
 Virial quotient                       -1.00210145
 !RHF STATE 1.1 Dipole moment           0.00000000     0.57447750    -0.52912859
 Dipole moment /Debye                   0.00000000     1.46008053    -1.34482265

 Orbital energies:

         1.1          2.1          3.1          4.1          5.1          6.1          7.1          8.1          9.1
    -20.656529   -15.713721    -1.530768    -0.996470    -0.747871    -0.666181    -0.430523     0.029162     0.092154

         1.2          2.2          3.2
     -0.596163     0.064852     0.130096

 HOMO      7.1    -0.430523 =     -11.7151eV
 LUMO      8.1     0.029162 =       0.7935eV
 LUMO-HOMO         0.459685 =      12.5087eV


 **********************************************************************************************************************************
 DATASETS  * FILE   NREC   LENGTH (MB)   RECORD NAMES
              1      19      111.05       500      610      700      900      950      970     1000      129      960     1100   
                                          VAR    BASINP    GEOM    SYMINP    ZMAT    AOBASIS   BASIS     P2S    ABASIS      S 
                                         1400     1410     1200     1210     1080     1600     1650     1300     1700   
                                           T        V       H0       H01     AOSYM     SMH    MOLCAS    ERIS     OPER   

              2       4        2.94       700     1000      520     2100   
                                         GEOM     BASIS   MCVARS     RHF  

 PROGRAMS   *        TOTAL        HF       INT
 CPU TIMES  *         3.28      1.47      1.72
 REAL TIME  *         4.93 SEC
 DISK USED  *       327.55 MB      
 **********************************************************************************************************************************


 PROGRAM * CCSD (Closed-shell coupled cluster)     Authors: C. Hampel, H.-J. Werner, 1991, M. Deegan, P.J. Knowles, 1992


 Convergence thresholds:  THRVAR = 1.00D-08  THRDEN = 1.00D-12

 CCSD(T)     terms to be evaluated (factor= 1.000)


 Number of core orbitals:           2 (   2   0 )
 Number of closed-shell orbitals:   6 (   5   1 )
 Number of external orbitals:     107 (  69  38 )

 Molecular orbitals read from record     2100.2  Type=RHF/CANONICAL (state 1.1)

 Number of N-1 electron functions:               6
 Number of N-2 electron functions:              21
 Number of singly external CSFs:               383
 Number of doubly external CSFs:            107206
 Total number of CSFs:                      107590

 Length of J-op  integral file:               0.00 MB
 Length of K-op  integral file:               0.54 MB
 Length of 3-ext integral record:             0.00 MB

 Memory could be reduced to 5.94 Mwords without degradation in triples

 Integral transformation finished. Total CPU:   0.21 sec, npass=  1  Memory used:   1.65 MW

 Reference energy:                   -129.83957889

 MP2 singlet pair energy:              -0.27931313
 MP2 triplet pair energy:              -0.16510918
 MP2 correlation energy:               -0.44442231
 MP2 total energy:                   -130.28400120

 SCS-MP2 correlation energy:           -0.43791036   (PS=  1.200000  PT=  0.333333)
 SCS-MP2 total energy:               -130.27748924

 ITER.      SQ.NORM     CORR.ENERGY   TOTAL ENERGY   ENERGY CHANGE        DEN1      VAR(S)    VAR(P)  DIIS     TIME  TIME/IT
   1      1.12077608    -0.44854804  -130.28812692    -0.00412573     0.01189961  0.31D-02  0.31D-02  1  1     0.44     0.24
   2      1.13187110    -0.44874755  -130.28832643    -0.00019951    -0.01241891  0.10D-03  0.51D-03  2  2     0.69     0.25
   3      1.13833981    -0.44914526  -130.28872415    -0.00039772    -0.00299222  0.53D-04  0.51D-04  3  3     0.92     0.25
   4      1.14122254    -0.44915723  -130.28873611    -0.00001196    -0.00097415  0.41D-05  0.92D-05  4  4     1.14     0.25
   5      1.14227035    -0.44918577  -130.28876465    -0.00002854    -0.00022157  0.11D-05  0.17D-05  5  5     1.36     0.25
   6      1.14261278    -0.44916886  -130.28874774     0.00001691    -0.00004180  0.96D-07  0.40D-06  6  6     1.59     0.25
   7      1.14268733    -0.44917012  -130.28874901    -0.00000126    -0.00000173  0.18D-07  0.94D-07  6  1     1.82     0.25
   8      1.14270871    -0.44917083  -130.28874972    -0.00000071     0.00000157  0.37D-08  0.17D-07  6  2     2.04     0.25
   9      1.14271400    -0.44917039  -130.28874928     0.00000044     0.00000043  0.28D-08  0.19D-08  6  4     2.28     0.25
  10      1.14271631    -0.44917088  -130.28874976    -0.00000048    -0.00000071  0.46D-09  0.22D-09  6  3     2.49     0.25
  11      1.14271581    -0.44917090  -130.28874978    -0.00000002    -0.00000007  0.16D-09  0.34D-10  6  5     2.72     0.25
  12      1.14271475    -0.44917105  -130.28874994    -0.00000015     0.00000034  0.18D-10  0.11D-10  6  6     2.97     0.25
  13      1.14271390    -0.44917109  -130.28874997    -0.00000003     0.00000022  0.62D-11  0.22D-11  6  1     3.20     0.26
  14      1.14271335    -0.44917112  -130.28875000    -0.00000003     0.00000014  0.96D-12  0.71D-12  6  2     3.44     0.26
  15      1.14271312    -0.44917112  -130.28875001    -0.00000001     0.00000003  0.26D-12  0.23D-12  6  4     3.67     0.26
  16      1.14271303    -0.44917113  -130.28875001    -0.00000000     0.00000001  0.50D-13  0.81D-13  6  3     3.91     0.26
  17      1.14271297    -0.44917113  -130.28875001    -0.00000000     0.00000001  0.38D-14  0.19D-13  6  5     4.14     0.26
  18      1.14271296    -0.44917113  -130.28875001     0.00000000    -0.00000000  0.14D-14  0.39D-14  6  6     4.38     0.26
  19      1.14271296    -0.44917113  -130.28875001    -0.00000000     0.00000000  0.12D-14  0.70D-15  6  1     4.61     0.26
  20      1.14271296    -0.44917113  -130.28875001     0.00000000    -0.00000000  0.23D-15  0.12D-15  6  2     4.84     0.26
  21      1.14271296    -0.44917113  -130.28875001     0.00000000    -0.00000000  0.57D-16  0.31D-16  6  3     5.07     0.26
  22      1.14271296    -0.44917113  -130.28875001     0.00000000     0.00000000  0.64D-17  0.27D-17  6  4     5.30     0.26
  23      1.14271296    -0.44917113  -130.28875001     0.00000000    -0.00000000  0.23D-17  0.57D-18  6  5     5.54     0.26
  24      1.14271296    -0.44917113  -130.28875001     0.00000000     0.00000000  0.15D-18  0.50D-19  6  2     5.77     0.26
  25      1.14271296    -0.44917113  -130.28875001    -0.00000000    -0.00000000  0.23D-19  0.12D-19  6  6     6.01     0.26
  26      1.14271296    -0.44917113  -130.28875001     0.00000000    -0.00000000  0.36D-20  0.22D-20  6  1     6.23     0.26
  27      1.14271296    -0.44917113  -130.28875001    -0.00000000    -0.00000000  0.49D-21  0.53D-21  6  4     6.45     0.26

 Norm of t1 vector:      0.07828653      S-energy:    -0.00000000      T1 diagnostic:  0.01598017
                                                                       D1 diagnostic:  0.04209276

 Doubles amplitudes (print threshold =  0.500E-01):

         I         J         SYM. A    SYM. B    A         B      T(IJ, AB)

         6         6         2         2         1         1     -0.10892700


 Total CPU time for triples:      1.85 sec


 RESULTS
 =======

  Reference energy                   -129.839578885219
  CCSD singlet pair energy             -0.307940320663
  CCSD triplet pair energy             -0.141230807374
  CCSD correlation energy              -0.449171128037

  Triples (T) contribution             -0.020880453441
  Total correlation energy             -0.470051581478

  CCSD total energy                  -130.288750013255
  CCSD[T] energy                     -130.310693139039
  CCSD-T energy                      -130.309227696269
 !CCSD(T) total energy               -130.309630466697

 Timing summary (sec):

 STEP                 CPU(USER)    SYS     CPU(TOT)    WALL
 Transformation          0.21      0.05      0.26      0.28
 CCSD iterations         6.24      0.75      6.99      6.97
 Triples                 1.85      0.06      1.91      1.92

 Program statistics:

 Available memory in ccsd:               994999756
 Min. memory needed in ccsd:                389120
 Max. memory used in ccsd:                  473124
 Max. memory used in cckext:                599488 (27 integral passes)



 **********************************************************************************************************************************
 DATASETS  * FILE   NREC   LENGTH (MB)   RECORD NAMES
              1      20      128.20       500      610      700      900      950      970     1000      129      960     1100   
                                          VAR    BASINP    GEOM    SYMINP    ZMAT    AOBASIS   BASIS     P2S    ABASIS      S 
                                         1400     1410     1200     1210     1080     1600     1650     1300     1700     1380   
                                           T        V       H0       H01     AOSYM     SMH    MOLCAS    ERIS     OPER     JKOP   

              2       4        2.94       700     1000      520     2100   
                                         GEOM     BASIS   MCVARS     RHF  

 PROGRAMS   *        TOTAL   CCSD(T)        HF       INT
 CPU TIMES  *        11.60      8.32      1.47      1.72
 REAL TIME  *        14.15 SEC
 DISK USED  *       327.55 MB      
 **********************************************************************************************************************************

 CCSD(T)/aug-cc-pVTZ energy=   -130.309630466697

        CCSD(T)         HF-SCF  
   -130.30963047   -129.83957889
 **********************************************************************************************************************************
 Molpro calculation terminated
 Variable memory released
