
 Primary working directories    : /tmp/r2666/282219.maple
 Secondary working directories  : /tmp/r2666/282219.maple
 Wavefunction directory         : /ddn/home4/r2666/wfu/
 Main file repository           : /tmp/r2666/282219.maple/

 SHA1      : d5ffa45e93fdbca01ffc919aa182cfdae0147319
 NAME      : 2015.1.35
 ARCHNAME  : linux/x86_64
 FC        : /opt/intel/composer_xe_2015.1.133/bin/intel64/ifort
 BLASLIB   : -Wl,-_start-group /opt/intel/mkl/lib/intel64/libmkl_intel_ilp64.a /opt/intel/mkl/lib/intel64/libmkl_intel_thread.a /opt/intel/mkl/lib/intel64/libmkl_core.a -Wl,-_end-group
 id        : olemiss

 Nodes     nprocs
 cn076        1

 Using customized tuning parameters: mindgm=1; mindgv=20; mindgc=4; mindgr=1; noblas=0; minvec=7
 default implementation of scratch files=df  

 ***,hno CCSD(T)/TZ-F12 QFF
 memory, 995, m;
 gthresh,energy=1.d-12,zero=1.d-22,oneint=1.d-22,twoint=1.d-22;
 gthresh,optgrad=1.d-8,optstep=1.d-8;
 nocompress;
 geomtyp=xyz
 bohr
 geometry={
 3
        116       116
 H        0.0000000000        1.6757426304       -1.9328017016
 N        0.0000000000       -0.1703280053       -1.1454733277
 O        0.0000000000        0.0363531649        1.1276854383
 }
 
 basis=avtz
   {hf,maxit=500;accu,20;}
 {ccsd(t),nocheck,maxit=250;orbital,IGNORE_ERROR;}

 Variables initialized (889), CPU time= 0.01 sec
 Commands  initialized (702), CPU time= 0.01 sec, 572 directives.
 Default parameters read. Elapsed time= 0.06 sec

 Checking input...
 Passed
1


                                         ***  PROGRAM SYSTEM MOLPRO  ***
                                       Copyright, TTI GmbH Stuttgart, 2015
                                    Version 2015.1 linked Jul  9 2018 13:16:40


 **********************************************************************************************************************************
 LABEL *   hno CCSD(T)/TZ-F12 QFF                                                        
  64 bit serial version                                                                  DATE: 04-Mar-20          TIME: 13:46:45  
 **********************************************************************************************************************************

 SHA1:             d5ffa45e93fdbca01ffc919aa182cfdae0147319
 **********************************************************************************************************************************

 THRESHOLDS:

 ZERO    =  1.00D-22  ONEINT  =  1.00D-22  TWOINT  =  1.00D-22  PREFAC  =  1.00D-14  LOCALI  =  1.00D-09  EORDER  =  1.00D-04
 ENERGY  =  1.00D-12  ETEST   =  0.00D+00  EDENS   =  0.00D+00  THRDEDEF=  1.00D-06  GRADIENT=  1.00D-02  STEP    =  1.00D-03
 ORBITAL =  1.00D-05  CIVEC   =  1.00D-05  COEFF   =  1.00D-04  PRINTCI =  5.00D-02  PUNCHCI =  9.90D+01  OPTGRAD =  3.00D-04
 OPTENERG=  1.00D-06  OPTSTEP =  3.00D-04  THRGRAD =  1.00D-10  COMPRESS=  1.00D-11  VARMIN  =  1.00D-07  VARMAX  =  1.00D-03
 THRDOUB =  0.00D+00  THRDIV  =  1.00D-05  THRRED  =  1.00D-07  THRPSP  =  1.00D+00  THRDC   =  1.00D-10  THRCS   =  1.00D-10
 THRNRM  =  1.00D-08  THREQ   =  0.00D+00  THRDE   =  1.00D+00  THRREF  =  1.00D-05  SPARFAC =  1.00D+00  THRDLP  =  1.00D-07
 THRDIA  =  1.00D-10  THRDLS  =  1.00D-07  THRGPS  =  0.00D+00  THRKEX  =  0.00D+00  THRDIS  =  2.00D-01  THRVAR  =  1.00D-10
 THRLOC  =  1.00D-06  THRGAP  =  1.00D-06  THRLOCT = -1.00D+00  THRGAPT = -1.00D+00  THRORB  =  1.00D-06  THRMLTP =  0.00D+00
 THRCPQCI=  1.00D-10  KEXTA   =  0.00D+00  THRCOARS=  0.00D+00  SYMTOL  =  1.00D-06  GRADTOL =  1.00D-06  THROVL  =  1.00D-08
 THRORTH =  1.00D-08  GRID    =  1.00D-06  GRIDMAX =  1.00D-03  DTMAX   =  0.00D+00  THROCCDE=  1.00D-01  THROCCDE=  1.00D-01



 THRESHOLDS:

 ZERO    =  1.00D-22  ONEINT  =  1.00D-22  TWOINT  =  1.00D-22  PREFAC  =  1.00D-14  LOCALI  =  1.00D-09  EORDER  =  1.00D-04
 ENERGY  =  1.00D-12  ETEST   =  0.00D+00  EDENS   =  0.00D+00  THRDEDEF=  1.00D-06  GRADIENT=  1.00D-02  STEP    =  1.00D-03
 ORBITAL =  1.00D-05  CIVEC   =  1.00D-05  COEFF   =  1.00D-04  PRINTCI =  5.00D-02  PUNCHCI =  9.90D+01  OPTGRAD =  1.00D-08
 OPTENERG=  1.00D-06  OPTSTEP =  1.00D-08  THRGRAD =  1.00D-10  COMPRESS=  1.00D-11  VARMIN  =  1.00D-07  VARMAX  =  1.00D-03
 THRDOUB =  0.00D+00  THRDIV  =  1.00D-05  THRRED  =  1.00D-07  THRPSP  =  1.00D+00  THRDC   =  1.00D-10  THRCS   =  1.00D-10
 THRNRM  =  1.00D-08  THREQ   =  0.00D+00  THRDE   =  1.00D+00  THRREF  =  1.00D-05  SPARFAC =  1.00D+00  THRDLP  =  1.00D-07
 THRDIA  =  1.00D-10  THRDLS  =  1.00D-07  THRGPS  =  0.00D+00  THRKEX  =  0.00D+00  THRDIS  =  2.00D-01  THRVAR  =  1.00D-10
 THRLOC  =  1.00D-06  THRGAP  =  1.00D-06  THRLOCT = -1.00D+00  THRGAPT = -1.00D+00  THRORB  =  1.00D-06  THRMLTP =  0.00D+00
 THRCPQCI=  1.00D-10  KEXTA   =  0.00D+00  THRCOARS=  0.00D+00  SYMTOL  =  1.00D-06  GRADTOL =  1.00D-06  THROVL  =  1.00D-08
 THRORTH =  1.00D-08  GRID    =  1.00D-06  GRIDMAX =  1.00D-03  DTMAX   =  0.00D+00  THROCCDE=  1.00D-01  THROCCDE=  1.00D-01



 Input parameters for SORTINT:

 COMPRESS =    0.000000
 C_FINAL  =    1.000000
 DEBUG    =   -1.000000
 C_SORT1  =    0.000000
 C_SEWARD =    0.000000
 THRESH   =    0.000000
 IO       =  molpro                                                          
 SPRI     =    0.000000
 SETTING GEOMTYP        =    XYZ
 ZUNIT=BOHR
 

 Variable memory set to  995000000 words,  buffer space   230000 words

 SETTING BASIS          =    AVTZ


 Recomputing integrals since basis changed


 Using spherical harmonics

 Library entry H      S aug-cc-pVTZ          selected for orbital group  1
 Library entry H      P aug-cc-pVTZ          selected for orbital group  1
 Library entry H      D aug-cc-pVTZ          selected for orbital group  1
 Library entry N      S aug-cc-pVTZ          selected for orbital group  2
 Library entry N      P aug-cc-pVTZ          selected for orbital group  2
 Library entry N      D aug-cc-pVTZ          selected for orbital group  2
 Library entry N      F aug-cc-pVTZ          selected for orbital group  2
 Library entry O      S aug-cc-pVTZ          selected for orbital group  3
 Library entry O      P aug-cc-pVTZ          selected for orbital group  3
 Library entry O      D aug-cc-pVTZ          selected for orbital group  3
 Library entry O      F aug-cc-pVTZ          selected for orbital group  3


 PROGRAM * SEWARD (Integral evaluation for generally contracted gaussian basis sets)     Author: Roland Lindh, 1990

 Geometry written to block  1 of record 700


 Point group  Cs  



 ATOMIC COORDINATES

 NR  ATOM    CHARGE       X              Y              Z

   1  H       1.00    0.000000000    1.675742630   -1.932801702
   2  N       7.00    0.000000000   -0.170328005   -1.145473328
   3  O       8.00    0.000000000    0.036353165    1.127685438

 Bond lengths in Bohr (Angstrom)

 1-2  2.006953602  2-3  2.282535406
     ( 1.062034110)     ( 1.207865720)

 Bond angles

  1-2-3  107.90251459

 NUCLEAR CHARGE:                   16
 NUMBER OF PRIMITIVE AOS:         161
 NUMBER OF SYMMETRY AOS:          141
 NUMBER OF CONTRACTIONS:          115   (  76A'  +  39A"  )
 NUMBER OF CORE ORBITALS:           2   (   2A'  +   0A"  )
 NUMBER OF VALENCE ORBITALS:        9   (   7A'  +   2A"  )


 NUCLEAR REPULSION ENERGY   30.32619968

 Eigenvalues of metric

         1 0.233E-03 0.506E-03 0.181E-02 0.216E-02 0.254E-02 0.358E-02 0.435E-02 0.526E-02
         2 0.395E-02 0.104E-01 0.263E-01 0.374E-01 0.514E-01 0.627E-01 0.824E-01 0.120E+00


 Contracted 2-electron integrals neglected if value below      1.0D-22

       10790064. INTEGRALS WRITTEN OUT IN    2635 BLOCKS ON RECORD 1290 OF FILE 1


 NUMBER OF SORTED TWO-ELECTRON INTEGRALS:   11433631.     BUFFER LENGTH:  32768
 NUMBER OF SEGMENTS:   1  SEGMENT LENGTH:   11433631      RECORD LENGTH: 524288

 Memory used in sort:      11.99 MW

 SORT1 READ    10790064. AND WROTE    10943632. INTEGRALS IN     32 RECORDS. CPU TIME:     0.15 SEC, REAL TIME:     0.23 SEC
 SORT2 READ    10943632. AND WROTE    11433631. INTEGRALS IN      1 RECORDS. CPU TIME:     0.15 SEC, REAL TIME:     0.22 SEC

 FILE SIZES:   FILE 1:   193.0 MBYTE,  FILE 4:   134.3 MBYTE,   TOTAL:    327.2 MBYTE

 OPERATOR DM      FOR CENTER  0  COORDINATES:    0.000000    0.000000    0.000000


 **********************************************************************************************************************************
 DATASETS  * FILE   NREC   LENGTH (MB)   RECORD NAMES
              1      19      111.05       500      610      700      900      950      970     1000      129      960     1100   
                                          VAR    BASINP    GEOM    SYMINP    ZMAT    AOBASIS   BASIS     P2S    ABASIS      S 
                                         1400     1410     1200     1210     1080     1600     1650     1300     1700   
                                           T        V       H0       H01     AOSYM     SMH    MOLCAS    ERIS     OPER   

 PROGRAMS   *        TOTAL       INT
 CPU TIMES  *         1.30      1.20
 REAL TIME  *         2.15 SEC
 DISK USED  *       327.55 MB      
 **********************************************************************************************************************************


 PROGRAM * RHF-SCF (CLOSED SHELL)       Authors: W. Meyer, H.-J. Werner


 NUMBER OF ELECTRONS:       8+    8-
 CONVERGENCE THRESHOLDS:    1.00E-10 (Density)    1.00E-13 (Energy)
 MAX. NUMBER OF ITERATIONS:      500
 INTERPOLATION TYPE:            DIIS
 INTERPOLATION STEPS:              2 (START)      1 (STEP)
 LEVEL SHIFTS:                  0.00 (CLOSED)  0.00 (OPEN) 



 Orbital guess generated from atomic densities. Full valence occupancy:    9   2

 Molecular orbital dump at record        2100.2

 Initial occupancy:   7   1

 ITERATION    DDIFF          GRAD             ENERGY        2-EL.EN.            DIPOLE MOMENTS         DIIS   ORB.
    1      0.000D+00      0.000D+00      -129.78750220    153.812117    0.00000    0.58286   -1.02108    0    start
    2      0.000D+00      0.108D-01      -129.81496165    155.092320    0.00000    0.61011   -0.20454    1    diag
    3      0.120D-01      0.830D-02      -129.83804164    155.200812    0.00000    0.55265   -0.59015    2    diag
    4      0.597D-02      0.128D-02      -129.83883420    154.911174    0.00000    0.56016   -0.53034    3    diag
    5      0.107D-02      0.423D-03      -129.83896201    155.005877    0.00000    0.56587   -0.53320    4    diag
    6      0.453D-03      0.123D-03      -129.83898253    154.990177    0.00000    0.56624   -0.52909    5    diag
    7      0.174D-03      0.607D-04      -129.83898840    154.992736    0.00000    0.56752   -0.52653    6    diag
    8      0.120D-03      0.207D-04      -129.83898903    154.992072    0.00000    0.56755   -0.52553    7    diag
    9      0.448D-04      0.392D-05      -129.83898906    154.991961    0.00000    0.56751   -0.52531    8    diag
   10      0.865D-05      0.894D-06      -129.83898906    154.991941    0.00000    0.56748   -0.52528    9    orth
   11      0.176D-05      0.179D-06      -129.83898906    154.991938    0.00000    0.56747   -0.52528    9    diag
   12      0.342D-06      0.368D-07      -129.83898906    154.991938    0.00000    0.56747   -0.52528    9    diag
   13      0.742D-07      0.936D-08      -129.83898906    154.991938    0.00000    0.56747   -0.52528    9    diag
   14      0.196D-07      0.194D-08      -129.83898906    154.991938    0.00000    0.56747   -0.52528    9    diag
   15      0.388D-08      0.544D-09      -129.83898906    154.991938    0.00000    0.56747   -0.52528    9    diag
   16      0.106D-08      0.149D-09      -129.83898906    154.991938    0.00000    0.56747   -0.52528    9    diag
   17      0.188D-09      0.431D-10      -129.83898906    154.991938    0.00000    0.56747   -0.52528    9    diag
   18      0.540D-10      0.155D-10      -129.83898906    154.991938    0.00000    0.56747   -0.52528    0    orth

 Final occupancy:   7   1

 !RHF STATE 1.1 Energy               -129.838989063444
 Nuclear energy                        30.32619968
 One-electron energy                 -237.66115751
 Two-electron energy                   77.49596877
 Virial quotient                       -1.00226331
 !RHF STATE 1.1 Dipole moment           0.00000000     0.56746759    -0.52528112
 Dipole moment /Debye                   0.00000000     1.44226429    -1.33504400

 Orbital energies:

         1.1          2.1          3.1          4.1          5.1          6.1          7.1          8.1          9.1
    -20.656682   -15.715857    -1.530895    -0.992372    -0.746248    -0.666076    -0.430017     0.029199     0.092181

         1.2          2.2          3.2
     -0.596463     0.064953     0.130388

 HOMO      7.1    -0.430017 =     -11.7014eV
 LUMO      8.1     0.029199 =       0.7946eV
 LUMO-HOMO         0.459216 =      12.4959eV


 **********************************************************************************************************************************
 DATASETS  * FILE   NREC   LENGTH (MB)   RECORD NAMES
              1      19      111.05       500      610      700      900      950      970     1000      129      960     1100   
                                          VAR    BASINP    GEOM    SYMINP    ZMAT    AOBASIS   BASIS     P2S    ABASIS      S 
                                         1400     1410     1200     1210     1080     1600     1650     1300     1700   
                                           T        V       H0       H01     AOSYM     SMH    MOLCAS    ERIS     OPER   

              2       4        2.94       700     1000      520     2100   
                                         GEOM     BASIS   MCVARS     RHF  

 PROGRAMS   *        TOTAL        HF       INT
 CPU TIMES  *         2.20      0.90      1.20
 REAL TIME  *         3.35 SEC
 DISK USED  *       327.55 MB      
 **********************************************************************************************************************************


 PROGRAM * CCSD (Closed-shell coupled cluster)     Authors: C. Hampel, H.-J. Werner, 1991, M. Deegan, P.J. Knowles, 1992


 Convergence thresholds:  THRVAR = 1.00D-08  THRDEN = 1.00D-12

 CCSD(T)     terms to be evaluated (factor= 1.000)


 Number of core orbitals:           2 (   2   0 )
 Number of closed-shell orbitals:   6 (   5   1 )
 Number of external orbitals:     107 (  69  38 )

 Molecular orbitals read from record     2100.2  Type=RHF/CANONICAL (state 1.1)

 Number of N-1 electron functions:               6
 Number of N-2 electron functions:              21
 Number of singly external CSFs:               383
 Number of doubly external CSFs:            107206
 Total number of CSFs:                      107590

 Length of J-op  integral file:               0.00 MB
 Length of K-op  integral file:               0.54 MB
 Length of 3-ext integral record:             0.00 MB

 Memory could be reduced to 5.94 Mwords without degradation in triples

 Integral transformation finished. Total CPU:   0.13 sec, npass=  1  Memory used:   1.65 MW

 Reference energy:                   -129.83898906

 MP2 singlet pair energy:              -0.27967096
 MP2 triplet pair energy:              -0.16531690
 MP2 correlation energy:               -0.44498786
 MP2 total energy:                   -130.28397693

 SCS-MP2 correlation energy:           -0.43846900   (PS=  1.200000  PT=  0.333333)
 SCS-MP2 total energy:               -130.27745807

 ITER.      SQ.NORM     CORR.ENERGY   TOTAL ENERGY   ENERGY CHANGE        DEN1      VAR(S)    VAR(P)  DIIS     TIME  TIME/IT
   1      1.12127468    -0.44907760  -130.28806666    -0.00408973     0.01205484  0.32D-02  0.32D-02  1  1     0.29     0.17
   2      1.13245794    -0.44927062  -130.28825968    -0.00019302    -0.01249388  0.10D-03  0.52D-03  2  2     0.43     0.17
   3      1.13900679    -0.44967709  -130.28866616    -0.00040648    -0.00302408  0.55D-04  0.51D-04  3  3     0.57     0.17
   4      1.14190955    -0.44968717  -130.28867624    -0.00001008    -0.00098240  0.43D-05  0.93D-05  4  4     0.71     0.17
   5      1.14297384    -0.44971655  -130.28870562    -0.00002938    -0.00022562  0.12D-05  0.16D-05  5  5     0.86     0.17
   6      1.14332006    -0.44969945  -130.28868851     0.00001710    -0.00004224  0.11D-06  0.39D-06  6  6     0.99     0.17
   7      1.14339586    -0.44970041  -130.28868947    -0.00000096    -0.00000186  0.20D-07  0.91D-07  6  1     1.14     0.17
   8      1.14341802    -0.44970105  -130.28869012    -0.00000065     0.00000132  0.36D-08  0.17D-07  6  2     1.30     0.17
   9      1.14342365    -0.44970057  -130.28868964     0.00000048     0.00000051  0.27D-08  0.19D-08  6  4     1.45     0.17
  10      1.14342602    -0.44970106  -130.28869012    -0.00000049    -0.00000073  0.44D-09  0.22D-09  6  3     1.58     0.17
  11      1.14342552    -0.44970108  -130.28869015    -0.00000002    -0.00000007  0.16D-09  0.34D-10  6  5     1.74     0.17
  12      1.14342445    -0.44970124  -130.28869030    -0.00000015     0.00000034  0.18D-10  0.11D-10  6  6     1.88     0.17
  13      1.14342358    -0.44970127  -130.28869033    -0.00000004     0.00000022  0.65D-11  0.22D-11  6  1     2.01     0.17
  14      1.14342303    -0.44970130  -130.28869036    -0.00000003     0.00000014  0.10D-11  0.68D-12  6  2     2.16     0.17
  15      1.14342279    -0.44970131  -130.28869037    -0.00000001     0.00000003  0.30D-12  0.21D-12  6  4     2.30     0.17
  16      1.14342270    -0.44970131  -130.28869037    -0.00000000     0.00000001  0.56D-13  0.75D-13  6  3     2.44     0.17
  17      1.14342264    -0.44970131  -130.28869038    -0.00000000     0.00000001  0.39D-14  0.18D-13  6  5     2.60     0.17
  18      1.14342263    -0.44970131  -130.28869038     0.00000000    -0.00000000  0.13D-14  0.38D-14  6  6     2.73     0.17
  19      1.14342263    -0.44970131  -130.28869038    -0.00000000     0.00000000  0.11D-14  0.69D-15  6  1     2.88     0.17
  20      1.14342263    -0.44970131  -130.28869038     0.00000000    -0.00000000  0.22D-15  0.12D-15  6  2     3.02     0.17
  21      1.14342263    -0.44970131  -130.28869038     0.00000000    -0.00000000  0.53D-16  0.31D-16  6  3     3.18     0.17
  22      1.14342263    -0.44970131  -130.28869038     0.00000000     0.00000000  0.62D-17  0.28D-17  6  4     3.32     0.17
  23      1.14342263    -0.44970131  -130.28869038     0.00000000    -0.00000000  0.23D-17  0.58D-18  6  5     3.45     0.17
  24      1.14342263    -0.44970131  -130.28869038     0.00000000     0.00000000  0.15D-18  0.50D-19  6  2     3.60     0.17
  25      1.14342263    -0.44970131  -130.28869038    -0.00000000    -0.00000000  0.23D-19  0.13D-19  6  6     3.74     0.17
  26      1.14342263    -0.44970131  -130.28869038     0.00000000    -0.00000000  0.36D-20  0.22D-20  6  1     3.87     0.17
  27      1.14342263    -0.44970131  -130.28869038    -0.00000000    -0.00000000  0.50D-21  0.51D-21  6  4     4.02     0.17

 Norm of t1 vector:      0.07880001      S-energy:     0.00000000      T1 diagnostic:  0.01608498
                                                                       D1 diagnostic:  0.04207734

 Doubles amplitudes (print threshold =  0.500E-01):

         I         J         SYM. A    SYM. B    A         B      T(IJ, AB)

         6         6         2         2         1         1     -0.10882134


 Total CPU time for triples:      1.14 sec


 RESULTS
 =======

  Reference energy                   -129.838989063444
  CCSD singlet pair energy             -0.308391660810
  CCSD triplet pair energy             -0.141309652265
  CCSD correlation energy              -0.449701313073

  Triples (T) contribution             -0.020974154430
  Total correlation energy             -0.470675467503

  CCSD total energy                  -130.288690376517
  CCSD[T] energy                     -130.310740016965
  CCSD-T energy                      -130.309256486180
 !CCSD(T) total energy               -130.309664530947

 Timing summary (sec):

 STEP                 CPU(USER)    SYS     CPU(TOT)    WALL
 Transformation          0.14      0.04      0.18      0.18
 CCSD iterations         3.88      0.60      4.48      4.49
 Triples                 1.14      0.02      1.16      1.16

 Program statistics:

 Available memory in ccsd:               994999756
 Min. memory needed in ccsd:                389120
 Max. memory used in ccsd:                  473124
 Max. memory used in cckext:                599488 (27 integral passes)



 **********************************************************************************************************************************
 DATASETS  * FILE   NREC   LENGTH (MB)   RECORD NAMES
              1      20      128.20       500      610      700      900      950      970     1000      129      960     1100   
                                          VAR    BASINP    GEOM    SYMINP    ZMAT    AOBASIS   BASIS     P2S    ABASIS      S 
                                         1400     1410     1200     1210     1080     1600     1650     1300     1700     1380   
                                           T        V       H0       H01     AOSYM     SMH    MOLCAS    ERIS     OPER     JKOP   

              2       4        2.94       700     1000      520     2100   
                                         GEOM     BASIS   MCVARS     RHF  

 PROGRAMS   *        TOTAL   CCSD(T)        HF       INT
 CPU TIMES  *         7.39      5.19      0.90      1.20
 REAL TIME  *         9.70 SEC
 DISK USED  *       327.55 MB      
 **********************************************************************************************************************************

 CCSD(T)/aug-cc-pVTZ energy=   -130.309664530947

        CCSD(T)         HF-SCF  
   -130.30966453   -129.83898906
 **********************************************************************************************************************************
 Molpro calculation terminated
 Variable memory released
