
 Primary working directories    : /tmp/r2666/282230.maple
 Secondary working directories  : /tmp/r2666/282230.maple
 Wavefunction directory         : /ddn/home4/r2666/wfu/
 Main file repository           : /tmp/r2666/282230.maple/

 SHA1      : d5ffa45e93fdbca01ffc919aa182cfdae0147319
 NAME      : 2015.1.35
 ARCHNAME  : linux/x86_64
 FC        : /opt/intel/composer_xe_2015.1.133/bin/intel64/ifort
 BLASLIB   : -Wl,-_start-group /opt/intel/mkl/lib/intel64/libmkl_intel_ilp64.a /opt/intel/mkl/lib/intel64/libmkl_intel_thread.a /opt/intel/mkl/lib/intel64/libmkl_core.a -Wl,-_end-group
 id        : olemiss

 Nodes     nprocs
 cn095        1

 Using customized tuning parameters: mindgm=1; mindgv=20; mindgc=4; mindgr=1; noblas=0; minvec=7
 default implementation of scratch files=df  

 ***,hno CCSD(T)/TZ-F12 QFF
 memory, 995, m;
 gthresh,energy=1.d-12,zero=1.d-22,oneint=1.d-22,twoint=1.d-22;
 gthresh,optgrad=1.d-8,optstep=1.d-8;
 nocompress;
 geomtyp=xyz
 bohr
 geometry={
 3
        127       127
 H        0.0000000000        1.6807113144       -1.9435570502
 N        0.0000000000       -0.1688547656       -1.1404485415
 O        0.0000000000        0.0299112412        1.1334160007
 }
 
 basis=avtz
   {hf,maxit=500;accu,20;}
 {ccsd(t),nocheck,maxit=250;orbital,IGNORE_ERROR;}

 Variables initialized (889), CPU time= 0.01 sec
 Commands  initialized (702), CPU time= 0.01 sec, 572 directives.
 Default parameters read. Elapsed time= 0.04 sec

 Checking input...
 Passed
1


                                         ***  PROGRAM SYSTEM MOLPRO  ***
                                       Copyright, TTI GmbH Stuttgart, 2015
                                    Version 2015.1 linked Jul  9 2018 13:16:40


 **********************************************************************************************************************************
 LABEL *   hno CCSD(T)/TZ-F12 QFF                                                        
  64 bit serial version                                                                  DATE: 04-Mar-20          TIME: 13:46:49  
 **********************************************************************************************************************************

 SHA1:             d5ffa45e93fdbca01ffc919aa182cfdae0147319
 **********************************************************************************************************************************

 THRESHOLDS:

 ZERO    =  1.00D-22  ONEINT  =  1.00D-22  TWOINT  =  1.00D-22  PREFAC  =  1.00D-14  LOCALI  =  1.00D-09  EORDER  =  1.00D-04
 ENERGY  =  1.00D-12  ETEST   =  0.00D+00  EDENS   =  0.00D+00  THRDEDEF=  1.00D-06  GRADIENT=  1.00D-02  STEP    =  1.00D-03
 ORBITAL =  1.00D-05  CIVEC   =  1.00D-05  COEFF   =  1.00D-04  PRINTCI =  5.00D-02  PUNCHCI =  9.90D+01  OPTGRAD =  3.00D-04
 OPTENERG=  1.00D-06  OPTSTEP =  3.00D-04  THRGRAD =  1.00D-10  COMPRESS=  1.00D-11  VARMIN  =  1.00D-07  VARMAX  =  1.00D-03
 THRDOUB =  0.00D+00  THRDIV  =  1.00D-05  THRRED  =  1.00D-07  THRPSP  =  1.00D+00  THRDC   =  1.00D-10  THRCS   =  1.00D-10
 THRNRM  =  1.00D-08  THREQ   =  0.00D+00  THRDE   =  1.00D+00  THRREF  =  1.00D-05  SPARFAC =  1.00D+00  THRDLP  =  1.00D-07
 THRDIA  =  1.00D-10  THRDLS  =  1.00D-07  THRGPS  =  0.00D+00  THRKEX  =  0.00D+00  THRDIS  =  2.00D-01  THRVAR  =  1.00D-10
 THRLOC  =  1.00D-06  THRGAP  =  1.00D-06  THRLOCT = -1.00D+00  THRGAPT = -1.00D+00  THRORB  =  1.00D-06  THRMLTP =  0.00D+00
 THRCPQCI=  1.00D-10  KEXTA   =  0.00D+00  THRCOARS=  0.00D+00  SYMTOL  =  1.00D-06  GRADTOL =  1.00D-06  THROVL  =  1.00D-08
 THRORTH =  1.00D-08  GRID    =  1.00D-06  GRIDMAX =  1.00D-03  DTMAX   =  0.00D+00  THROCCDE=  1.00D-01  THROCCDE=  1.00D-01



 THRESHOLDS:

 ZERO    =  1.00D-22  ONEINT  =  1.00D-22  TWOINT  =  1.00D-22  PREFAC  =  1.00D-14  LOCALI  =  1.00D-09  EORDER  =  1.00D-04
 ENERGY  =  1.00D-12  ETEST   =  0.00D+00  EDENS   =  0.00D+00  THRDEDEF=  1.00D-06  GRADIENT=  1.00D-02  STEP    =  1.00D-03
 ORBITAL =  1.00D-05  CIVEC   =  1.00D-05  COEFF   =  1.00D-04  PRINTCI =  5.00D-02  PUNCHCI =  9.90D+01  OPTGRAD =  1.00D-08
 OPTENERG=  1.00D-06  OPTSTEP =  1.00D-08  THRGRAD =  1.00D-10  COMPRESS=  1.00D-11  VARMIN  =  1.00D-07  VARMAX  =  1.00D-03
 THRDOUB =  0.00D+00  THRDIV  =  1.00D-05  THRRED  =  1.00D-07  THRPSP  =  1.00D+00  THRDC   =  1.00D-10  THRCS   =  1.00D-10
 THRNRM  =  1.00D-08  THREQ   =  0.00D+00  THRDE   =  1.00D+00  THRREF  =  1.00D-05  SPARFAC =  1.00D+00  THRDLP  =  1.00D-07
 THRDIA  =  1.00D-10  THRDLS  =  1.00D-07  THRGPS  =  0.00D+00  THRKEX  =  0.00D+00  THRDIS  =  2.00D-01  THRVAR  =  1.00D-10
 THRLOC  =  1.00D-06  THRGAP  =  1.00D-06  THRLOCT = -1.00D+00  THRGAPT = -1.00D+00  THRORB  =  1.00D-06  THRMLTP =  0.00D+00
 THRCPQCI=  1.00D-10  KEXTA   =  0.00D+00  THRCOARS=  0.00D+00  SYMTOL  =  1.00D-06  GRADTOL =  1.00D-06  THROVL  =  1.00D-08
 THRORTH =  1.00D-08  GRID    =  1.00D-06  GRIDMAX =  1.00D-03  DTMAX   =  0.00D+00  THROCCDE=  1.00D-01  THROCCDE=  1.00D-01



 Input parameters for SORTINT:

 COMPRESS =    0.000000
 C_FINAL  =    1.000000
 DEBUG    =   -1.000000
 C_SORT1  =    0.000000
 C_SEWARD =    0.000000
 THRESH   =    0.000000
 IO       =  molpro                                                          
 SPRI     =    0.000000
 SETTING GEOMTYP        =    XYZ
 ZUNIT=BOHR
 

 Variable memory set to  995000000 words,  buffer space   230000 words

 SETTING BASIS          =    AVTZ


 Recomputing integrals since basis changed


 Using spherical harmonics

 Library entry H      S aug-cc-pVTZ          selected for orbital group  1
 Library entry H      P aug-cc-pVTZ          selected for orbital group  1
 Library entry H      D aug-cc-pVTZ          selected for orbital group  1
 Library entry N      S aug-cc-pVTZ          selected for orbital group  2
 Library entry N      P aug-cc-pVTZ          selected for orbital group  2
 Library entry N      D aug-cc-pVTZ          selected for orbital group  2
 Library entry N      F aug-cc-pVTZ          selected for orbital group  2
 Library entry O      S aug-cc-pVTZ          selected for orbital group  3
 Library entry O      P aug-cc-pVTZ          selected for orbital group  3
 Library entry O      D aug-cc-pVTZ          selected for orbital group  3
 Library entry O      F aug-cc-pVTZ          selected for orbital group  3


 PROGRAM * SEWARD (Integral evaluation for generally contracted gaussian basis sets)     Author: Roland Lindh, 1990

 Geometry written to block  1 of record 700


 Point group  Cs  



 ATOMIC COORDINATES

 NR  ATOM    CHARGE       X              Y              Z

   1  H       1.00    0.000000000    1.680711314   -1.943557050
   2  N       7.00    0.000000000   -0.168854766   -1.140448542
   3  O       8.00    0.000000000    0.029911241    1.133416001

 Bond lengths in Bohr (Angstrom)

 1-2  2.016402232  2-3  2.282535406
     ( 1.067034109)     ( 1.207865720)

 Bond angles

  1-2-3  108.47547239

 NUCLEAR CHARGE:                   16
 NUMBER OF PRIMITIVE AOS:         161
 NUMBER OF SYMMETRY AOS:          141
 NUMBER OF CONTRACTIONS:          115   (  76A'  +  39A"  )
 NUMBER OF CORE ORBITALS:           2   (   2A'  +   0A"  )
 NUMBER OF VALENCE ORBITALS:        9   (   7A'  +   2A"  )


 NUCLEAR REPULSION ENERGY   30.29671037

 Eigenvalues of metric

         1 0.234E-03 0.507E-03 0.183E-02 0.217E-02 0.254E-02 0.358E-02 0.438E-02 0.530E-02
         2 0.395E-02 0.105E-01 0.264E-01 0.375E-01 0.512E-01 0.630E-01 0.823E-01 0.121E+00


 Contracted 2-electron integrals neglected if value below      1.0D-22

       10790064. INTEGRALS WRITTEN OUT IN    2635 BLOCKS ON RECORD 1290 OF FILE 1


 NUMBER OF SORTED TWO-ELECTRON INTEGRALS:   11433631.     BUFFER LENGTH:  32768
 NUMBER OF SEGMENTS:   1  SEGMENT LENGTH:   11433631      RECORD LENGTH: 524288

 Memory used in sort:      11.99 MW

 SORT1 READ    10790064. AND WROTE    10943632. INTEGRALS IN     32 RECORDS. CPU TIME:     0.20 SEC, REAL TIME:     0.26 SEC
 SORT2 READ    10943632. AND WROTE    11433631. INTEGRALS IN      1 RECORDS. CPU TIME:     0.18 SEC, REAL TIME:     0.25 SEC

 FILE SIZES:   FILE 1:   193.0 MBYTE,  FILE 4:   134.3 MBYTE,   TOTAL:    327.2 MBYTE

 OPERATOR DM      FOR CENTER  0  COORDINATES:    0.000000    0.000000    0.000000


 **********************************************************************************************************************************
 DATASETS  * FILE   NREC   LENGTH (MB)   RECORD NAMES
              1      19      111.05       500      610      700      900      950      970     1000      129      960     1100   
                                          VAR    BASINP    GEOM    SYMINP    ZMAT    AOBASIS   BASIS     P2S    ABASIS      S 
                                         1400     1410     1200     1210     1080     1600     1650     1300     1700   
                                           T        V       H0       H01     AOSYM     SMH    MOLCAS    ERIS     OPER   

 PROGRAMS   *        TOTAL       INT
 CPU TIMES  *         1.46      1.37
 REAL TIME  *         2.16 SEC
 DISK USED  *       327.55 MB      
 **********************************************************************************************************************************


 PROGRAM * RHF-SCF (CLOSED SHELL)       Authors: W. Meyer, H.-J. Werner


 NUMBER OF ELECTRONS:       8+    8-
 CONVERGENCE THRESHOLDS:    1.00E-10 (Density)    1.00E-13 (Energy)
 MAX. NUMBER OF ITERATIONS:      500
 INTERPOLATION TYPE:            DIIS
 INTERPOLATION STEPS:              2 (START)      1 (STEP)
 LEVEL SHIFTS:                  0.00 (CLOSED)  0.00 (OPEN) 



 Orbital guess generated from atomic densities. Full valence occupancy:    9   2

 Molecular orbital dump at record        2100.2

 Initial occupancy:   7   1

 ITERATION    DDIFF          GRAD             ENERGY        2-EL.EN.            DIPOLE MOMENTS         DIIS   ORB.
    1      0.000D+00      0.000D+00      -129.78708786    153.751902    0.00000    0.58446   -1.02265    0    start
    2      0.000D+00      0.108D-01      -129.81452563    155.041445    0.00000    0.60915   -0.20483    1    diag
    3      0.120D-01      0.833D-02      -129.83777476    155.147667    0.00000    0.55304   -0.59177    2    diag
    4      0.598D-02      0.128D-02      -129.83856985    154.856980    0.00000    0.56023   -0.53180    3    diag
    5      0.107D-02      0.424D-03      -129.83869847    154.952288    0.00000    0.56606   -0.53475    4    diag
    6      0.454D-03      0.123D-03      -129.83871916    154.936539    0.00000    0.56645   -0.53063    5    diag
    7      0.175D-03      0.608D-04      -129.83872507    154.939121    0.00000    0.56775   -0.52808    6    diag
    8      0.120D-03      0.207D-04      -129.83872570    154.938458    0.00000    0.56779   -0.52708    7    diag
    9      0.449D-04      0.396D-05      -129.83872573    154.938345    0.00000    0.56775   -0.52686    8    diag
   10      0.872D-05      0.906D-06      -129.83872573    154.938324    0.00000    0.56771   -0.52683    9    orth
   11      0.179D-05      0.181D-06      -129.83872573    154.938320    0.00000    0.56770   -0.52683    9    diag
   12      0.348D-06      0.372D-07      -129.83872573    154.938320    0.00000    0.56770   -0.52683    9    diag
   13      0.752D-07      0.947D-08      -129.83872573    154.938320    0.00000    0.56770   -0.52683    9    diag
   14      0.199D-07      0.198D-08      -129.83872573    154.938320    0.00000    0.56770   -0.52683    9    diag
   15      0.396D-08      0.553D-09      -129.83872573    154.938320    0.00000    0.56770   -0.52683    9    diag
   16      0.108D-08      0.151D-09      -129.83872573    154.938320    0.00000    0.56770   -0.52683    9    diag
   17      0.191D-09      0.439D-10      -129.83872573    154.938320    0.00000    0.56770   -0.52683    9    diag
   18      0.548D-10      0.159D-10      -129.83872573    154.938320    0.00000    0.56770   -0.52683    9    diag
   19      0.288D-10      0.351D-11      -129.83872573    154.938320    0.00000    0.56770   -0.52683    9    fixocc
   20      0.680D-11      0.601D-12      -129.83872573    154.938320    0.00000    0.56770   -0.52683    9    orth
   21      0.154D-11      0.208D-12      -129.83872573    154.938320    0.00000    0.56770   -0.52683    9    diag
   22      0.137D-11      0.102D-12      -129.83872573    154.938320    0.00000    0.56770   -0.52683    0    orth

 Final occupancy:   7   1

 !RHF STATE 1.1 Energy               -129.838725728857
 Nuclear energy                        30.29671037
 One-electron energy                 -237.60459588
 Two-electron energy                   77.46915979
 Virial quotient                       -1.00233757
 !RHF STATE 1.1 Dipole moment           0.00000000     0.56770054    -0.52682910
 Dipole moment /Debye                   0.00000000     1.44285633    -1.33897831

 Orbital energies:

         1.1          2.1          3.1          4.1          5.1          6.1          7.1          8.1          9.1
    -20.656941   -15.716432    -1.530574    -0.991506    -0.745669    -0.666198    -0.429343     0.029147     0.092147

         1.2          2.2          3.2
     -0.596476     0.064868     0.130463

 HOMO      7.1    -0.429343 =     -11.6830eV
 LUMO      8.1     0.029147 =       0.7931eV
 LUMO-HOMO         0.458490 =      12.4761eV


 **********************************************************************************************************************************
 DATASETS  * FILE   NREC   LENGTH (MB)   RECORD NAMES
              1      19      111.05       500      610      700      900      950      970     1000      129      960     1100   
                                          VAR    BASINP    GEOM    SYMINP    ZMAT    AOBASIS   BASIS     P2S    ABASIS      S 
                                         1400     1410     1200     1210     1080     1600     1650     1300     1700   
                                           T        V       H0       H01     AOSYM     SMH    MOLCAS    ERIS     OPER   

              2       4        2.94       700     1000      520     2100   
                                         GEOM     BASIS   MCVARS     RHF  

 PROGRAMS   *        TOTAL        HF       INT
 CPU TIMES  *         2.77      1.31      1.37
 REAL TIME  *         3.88 SEC
 DISK USED  *       327.55 MB      
 **********************************************************************************************************************************


 PROGRAM * CCSD (Closed-shell coupled cluster)     Authors: C. Hampel, H.-J. Werner, 1991, M. Deegan, P.J. Knowles, 1992


 Convergence thresholds:  THRVAR = 1.00D-08  THRDEN = 1.00D-12

 CCSD(T)     terms to be evaluated (factor= 1.000)


 Number of core orbitals:           2 (   2   0 )
 Number of closed-shell orbitals:   6 (   5   1 )
 Number of external orbitals:     107 (  69  38 )

 Molecular orbitals read from record     2100.2  Type=RHF/CANONICAL (state 1.1)

 Number of N-1 electron functions:               6
 Number of N-2 electron functions:              21
 Number of singly external CSFs:               383
 Number of doubly external CSFs:            107206
 Total number of CSFs:                      107590

 Length of J-op  integral file:               0.00 MB
 Length of K-op  integral file:               0.54 MB
 Length of 3-ext integral record:             0.00 MB

 Memory could be reduced to 5.94 Mwords without degradation in triples

 Integral transformation finished. Total CPU:   0.18 sec, npass=  1  Memory used:   1.65 MW

 Reference energy:                   -129.83872573

 MP2 singlet pair energy:              -0.27979329
 MP2 triplet pair energy:              -0.16539173
 MP2 correlation energy:               -0.44518502
 MP2 total energy:                   -130.28391075

 SCS-MP2 correlation energy:           -0.43866236   (PS=  1.200000  PT=  0.333333)
 SCS-MP2 total energy:               -130.27738809

 ITER.      SQ.NORM     CORR.ENERGY   TOTAL ENERGY   ENERGY CHANGE        DEN1      VAR(S)    VAR(P)  DIIS     TIME  TIME/IT
   1      1.12146854    -0.44926186  -130.28798759    -0.00407684     0.01212585  0.32D-02  0.32D-02  1  1     0.36     0.19
   2      1.13269519    -0.44944929  -130.28817502    -0.00018743    -0.01252803  0.10D-03  0.52D-03  2  2     0.54     0.19
   3      1.13928787    -0.44986093  -130.28858666    -0.00041165    -0.00303696  0.56D-04  0.52D-04  3  3     0.71     0.19
   4      1.14220849    -0.44986980  -130.28859553    -0.00000887    -0.00098765  0.45D-05  0.94D-05  4  4     0.88     0.19
   5      1.14329021    -0.44989963  -130.28862536    -0.00002983    -0.00022927  0.12D-05  0.16D-05  5  5     1.05     0.19
   6      1.14364224    -0.44988242  -130.28860814     0.00001722    -0.00004276  0.11D-06  0.39D-06  6  6     1.21     0.19
   7      1.14372018    -0.44988324  -130.28860897    -0.00000083    -0.00000201  0.22D-07  0.92D-07  6  1     1.39     0.19
   8      1.14374306    -0.44988390  -130.28860963    -0.00000066     0.00000118  0.37D-08  0.17D-07  6  2     1.55     0.19
   9      1.14374895    -0.44988339  -130.28860912     0.00000051     0.00000057  0.28D-08  0.19D-08  6  4     1.70     0.19
  10      1.14375139    -0.44988389  -130.28860962    -0.00000050    -0.00000076  0.46D-09  0.23D-09  6  3     1.85     0.19
  11      1.14375088    -0.44988391  -130.28860964    -0.00000003    -0.00000006  0.16D-09  0.35D-10  6  5     2.01     0.19
  12      1.14374978    -0.44988407  -130.28860980    -0.00000015     0.00000034  0.19D-10  0.11D-10  6  6     2.15     0.19
  13      1.14374889    -0.44988411  -130.28860983    -0.00000004     0.00000022  0.69D-11  0.22D-11  6  1     2.33     0.19
  14      1.14374832    -0.44988413  -130.28860986    -0.00000003     0.00000014  0.11D-11  0.70D-12  6  2     2.50     0.19
  15      1.14374808    -0.44988414  -130.28860987    -0.00000001     0.00000003  0.32D-12  0.22D-12  6  4     2.68     0.19
  16      1.14374798    -0.44988414  -130.28860987    -0.00000000     0.00000001  0.60D-13  0.77D-13  6  3     2.87     0.19
  17      1.14374792    -0.44988415  -130.28860988    -0.00000000     0.00000001  0.40D-14  0.19D-13  6  5     3.05     0.19
  18      1.14374791    -0.44988415  -130.28860988     0.00000000    -0.00000000  0.13D-14  0.40D-14  6  6     3.23     0.19
  19      1.14374791    -0.44988415  -130.28860988    -0.00000000     0.00000000  0.11D-14  0.75D-15  6  1     3.39     0.20
  20      1.14374791    -0.44988415  -130.28860988     0.00000000    -0.00000000  0.23D-15  0.14D-15  6  2     3.57     0.20
  21      1.14374791    -0.44988415  -130.28860988     0.00000000    -0.00000000  0.54D-16  0.33D-16  6  3     3.76     0.20
  22      1.14374791    -0.44988415  -130.28860988     0.00000000     0.00000000  0.65D-17  0.30D-17  6  4     3.93     0.20
  23      1.14374791    -0.44988415  -130.28860988     0.00000000    -0.00000000  0.24D-17  0.62D-18  6  5     4.10     0.20
  24      1.14374791    -0.44988415  -130.28860988     0.00000000     0.00000000  0.17D-18  0.53D-19  6  2     4.28     0.20
  25      1.14374791    -0.44988415  -130.28860988    -0.00000000    -0.00000000  0.24D-19  0.13D-19  6  6     4.46     0.20
  26      1.14374791    -0.44988415  -130.28860988     0.00000000    -0.00000000  0.40D-20  0.23D-20  6  1     4.64     0.20
  27      1.14374791    -0.44988415  -130.28860988    -0.00000000    -0.00000000  0.54D-21  0.53D-21  6  4     4.82     0.20

 Norm of t1 vector:      0.07920795      S-energy:    -0.00000000      T1 diagnostic:  0.01616826
                                                                       D1 diagnostic:  0.04214358

 Doubles amplitudes (print threshold =  0.500E-01):

         I         J         SYM. A    SYM. B    A         B      T(IJ, AB)

         6         6         2         2         1         1     -0.10878890


 Total CPU time for triples:      1.84 sec


 RESULTS
 =======

  Reference energy                   -129.838725728857
  CCSD singlet pair energy             -0.308546697662
  CCSD triplet pair energy             -0.141337450155
  CCSD correlation energy              -0.449884147818

  Triples (T) contribution             -0.021015546990
  Total correlation energy             -0.470899694807

  CCSD total energy                  -130.288609876675
  CCSD[T] energy                     -130.310709824762
  CCSD-T energy                      -130.309214446155
 !CCSD(T) total energy               -130.309625423664

 Timing summary (sec):

 STEP                 CPU(USER)    SYS     CPU(TOT)    WALL
 Transformation          0.19      0.03      0.22      0.23
 CCSD iterations         4.63      0.69      5.32      5.33
 Triples                 1.84      0.07      1.91      1.92

 Program statistics:

 Available memory in ccsd:               994999756
 Min. memory needed in ccsd:                389120
 Max. memory used in ccsd:                  473124
 Max. memory used in cckext:                599488 (27 integral passes)



 **********************************************************************************************************************************
 DATASETS  * FILE   NREC   LENGTH (MB)   RECORD NAMES
              1      20      128.20       500      610      700      900      950      970     1000      129      960     1100   
                                          VAR    BASINP    GEOM    SYMINP    ZMAT    AOBASIS   BASIS     P2S    ABASIS      S 
                                         1400     1410     1200     1210     1080     1600     1650     1300     1700     1380   
                                           T        V       H0       H01     AOSYM     SMH    MOLCAS    ERIS     OPER     JKOP   

              2       4        2.94       700     1000      520     2100   
                                         GEOM     BASIS   MCVARS     RHF  

 PROGRAMS   *        TOTAL   CCSD(T)        HF       INT
 CPU TIMES  *         9.46      6.69      1.31      1.37
 REAL TIME  *        11.41 SEC
 DISK USED  *       327.55 MB      
 **********************************************************************************************************************************

 CCSD(T)/aug-cc-pVTZ energy=   -130.309625423664

        CCSD(T)         HF-SCF  
   -130.30962542   -129.83872573
 **********************************************************************************************************************************
 Molpro calculation terminated
 Variable memory released
