
 Primary working directories    : /tmp/r2666/282210.maple
 Secondary working directories  : /tmp/r2666/282210.maple
 Wavefunction directory         : /ddn/home4/r2666/wfu/
 Main file repository           : /tmp/r2666/282210.maple/

 SHA1      : d5ffa45e93fdbca01ffc919aa182cfdae0147319
 NAME      : 2015.1.35
 ARCHNAME  : linux/x86_64
 FC        : /opt/intel/composer_xe_2015.1.133/bin/intel64/ifort
 BLASLIB   : -Wl,-_start-group /opt/intel/mkl/lib/intel64/libmkl_intel_ilp64.a /opt/intel/mkl/lib/intel64/libmkl_intel_thread.a /opt/intel/mkl/lib/intel64/libmkl_core.a -Wl,-_end-group
 id        : olemiss

 Nodes     nprocs
 cn079        1

 Using customized tuning parameters: mindgm=1; mindgv=20; mindgc=4; mindgr=1; noblas=0; minvec=7
 default implementation of scratch files=df  

 ***,hno CCSD(T)/TZ-F12 QFF
 memory, 995, m;
 gthresh,energy=1.d-12,zero=1.d-22,oneint=1.d-22,twoint=1.d-22;
 gthresh,optgrad=1.d-8,optstep=1.d-8;
 nocompress;
 geomtyp=xyz
 bohr
 geometry={
 3
        107       107
 H        0.0000000000        1.6727973741       -1.9335243628
 N        0.0000000000       -0.1666609025       -1.1547950377
 O        0.0000000000        0.0356313184        1.1377298095
 }
 
 basis=avtz
   {hf,maxit=500;accu,20;}
 {ccsd(t),nocheck,maxit=250;orbital,IGNORE_ERROR;}

 Variables initialized (889), CPU time= 0.01 sec
 Commands  initialized (702), CPU time= 0.01 sec, 572 directives.
 Default parameters read. Elapsed time= 0.05 sec

 Checking input...
 Passed
1


                                         ***  PROGRAM SYSTEM MOLPRO  ***
                                       Copyright, TTI GmbH Stuttgart, 2015
                                    Version 2015.1 linked Jul  9 2018 13:16:40


 **********************************************************************************************************************************
 LABEL *   hno CCSD(T)/TZ-F12 QFF                                                        
  64 bit serial version                                                                  DATE: 04-Mar-20          TIME: 13:46:43  
 **********************************************************************************************************************************

 SHA1:             d5ffa45e93fdbca01ffc919aa182cfdae0147319
 **********************************************************************************************************************************

 THRESHOLDS:

 ZERO    =  1.00D-22  ONEINT  =  1.00D-22  TWOINT  =  1.00D-22  PREFAC  =  1.00D-14  LOCALI  =  1.00D-09  EORDER  =  1.00D-04
 ENERGY  =  1.00D-12  ETEST   =  0.00D+00  EDENS   =  0.00D+00  THRDEDEF=  1.00D-06  GRADIENT=  1.00D-02  STEP    =  1.00D-03
 ORBITAL =  1.00D-05  CIVEC   =  1.00D-05  COEFF   =  1.00D-04  PRINTCI =  5.00D-02  PUNCHCI =  9.90D+01  OPTGRAD =  3.00D-04
 OPTENERG=  1.00D-06  OPTSTEP =  3.00D-04  THRGRAD =  1.00D-10  COMPRESS=  1.00D-11  VARMIN  =  1.00D-07  VARMAX  =  1.00D-03
 THRDOUB =  0.00D+00  THRDIV  =  1.00D-05  THRRED  =  1.00D-07  THRPSP  =  1.00D+00  THRDC   =  1.00D-10  THRCS   =  1.00D-10
 THRNRM  =  1.00D-08  THREQ   =  0.00D+00  THRDE   =  1.00D+00  THRREF  =  1.00D-05  SPARFAC =  1.00D+00  THRDLP  =  1.00D-07
 THRDIA  =  1.00D-10  THRDLS  =  1.00D-07  THRGPS  =  0.00D+00  THRKEX  =  0.00D+00  THRDIS  =  2.00D-01  THRVAR  =  1.00D-10
 THRLOC  =  1.00D-06  THRGAP  =  1.00D-06  THRLOCT = -1.00D+00  THRGAPT = -1.00D+00  THRORB  =  1.00D-06  THRMLTP =  0.00D+00
 THRCPQCI=  1.00D-10  KEXTA   =  0.00D+00  THRCOARS=  0.00D+00  SYMTOL  =  1.00D-06  GRADTOL =  1.00D-06  THROVL  =  1.00D-08
 THRORTH =  1.00D-08  GRID    =  1.00D-06  GRIDMAX =  1.00D-03  DTMAX   =  0.00D+00  THROCCDE=  1.00D-01  THROCCDE=  1.00D-01



 THRESHOLDS:

 ZERO    =  1.00D-22  ONEINT  =  1.00D-22  TWOINT  =  1.00D-22  PREFAC  =  1.00D-14  LOCALI  =  1.00D-09  EORDER  =  1.00D-04
 ENERGY  =  1.00D-12  ETEST   =  0.00D+00  EDENS   =  0.00D+00  THRDEDEF=  1.00D-06  GRADIENT=  1.00D-02  STEP    =  1.00D-03
 ORBITAL =  1.00D-05  CIVEC   =  1.00D-05  COEFF   =  1.00D-04  PRINTCI =  5.00D-02  PUNCHCI =  9.90D+01  OPTGRAD =  1.00D-08
 OPTENERG=  1.00D-06  OPTSTEP =  1.00D-08  THRGRAD =  1.00D-10  COMPRESS=  1.00D-11  VARMIN  =  1.00D-07  VARMAX  =  1.00D-03
 THRDOUB =  0.00D+00  THRDIV  =  1.00D-05  THRRED  =  1.00D-07  THRPSP  =  1.00D+00  THRDC   =  1.00D-10  THRCS   =  1.00D-10
 THRNRM  =  1.00D-08  THREQ   =  0.00D+00  THRDE   =  1.00D+00  THRREF  =  1.00D-05  SPARFAC =  1.00D+00  THRDLP  =  1.00D-07
 THRDIA  =  1.00D-10  THRDLS  =  1.00D-07  THRGPS  =  0.00D+00  THRKEX  =  0.00D+00  THRDIS  =  2.00D-01  THRVAR  =  1.00D-10
 THRLOC  =  1.00D-06  THRGAP  =  1.00D-06  THRLOCT = -1.00D+00  THRGAPT = -1.00D+00  THRORB  =  1.00D-06  THRMLTP =  0.00D+00
 THRCPQCI=  1.00D-10  KEXTA   =  0.00D+00  THRCOARS=  0.00D+00  SYMTOL  =  1.00D-06  GRADTOL =  1.00D-06  THROVL  =  1.00D-08
 THRORTH =  1.00D-08  GRID    =  1.00D-06  GRIDMAX =  1.00D-03  DTMAX   =  0.00D+00  THROCCDE=  1.00D-01  THROCCDE=  1.00D-01



 Input parameters for SORTINT:

 COMPRESS =    0.000000
 C_FINAL  =    1.000000
 DEBUG    =   -1.000000
 C_SORT1  =    0.000000
 C_SEWARD =    0.000000
 THRESH   =    0.000000
 IO       =  molpro                                                          
 SPRI     =    0.000000
 SETTING GEOMTYP        =    XYZ
 ZUNIT=BOHR
 

 Variable memory set to  995000000 words,  buffer space   230000 words

 SETTING BASIS          =    AVTZ


 Recomputing integrals since basis changed


 Using spherical harmonics

 Library entry H      S aug-cc-pVTZ          selected for orbital group  1
 Library entry H      P aug-cc-pVTZ          selected for orbital group  1
 Library entry H      D aug-cc-pVTZ          selected for orbital group  1
 Library entry N      S aug-cc-pVTZ          selected for orbital group  2
 Library entry N      P aug-cc-pVTZ          selected for orbital group  2
 Library entry N      D aug-cc-pVTZ          selected for orbital group  2
 Library entry N      F aug-cc-pVTZ          selected for orbital group  2
 Library entry O      S aug-cc-pVTZ          selected for orbital group  3
 Library entry O      P aug-cc-pVTZ          selected for orbital group  3
 Library entry O      D aug-cc-pVTZ          selected for orbital group  3
 Library entry O      F aug-cc-pVTZ          selected for orbital group  3


 PROGRAM * SEWARD (Integral evaluation for generally contracted gaussian basis sets)     Author: Roland Lindh, 1990

 Geometry written to block  1 of record 700


 Point group  Cs  



 ATOMIC COORDINATES

 NR  ATOM    CHARGE       X              Y              Z

   1  H       1.00    0.000000000    1.672797374   -1.933524363
   2  N       7.00    0.000000000   -0.166660903   -1.154795038
   3  O       8.00    0.000000000    0.035631318    1.137729809

 Bond lengths in Bohr (Angstrom)

 1-2  1.997504972  2-3  2.301432666
     ( 1.057034110)     ( 1.217865719)

 Bond angles

  1-2-3  107.90251459

 NUCLEAR CHARGE:                   16
 NUMBER OF PRIMITIVE AOS:         161
 NUMBER OF SYMMETRY AOS:          141
 NUMBER OF CONTRACTIONS:          115   (  76A'  +  39A"  )
 NUMBER OF CORE ORBITALS:           2   (   2A'  +   0A"  )
 NUMBER OF VALENCE ORBITALS:        9   (   7A'  +   2A"  )


 NUCLEAR REPULSION ENERGY   30.13565298

 Eigenvalues of metric

         1 0.236E-03 0.507E-03 0.183E-02 0.217E-02 0.262E-02 0.374E-02 0.436E-02 0.526E-02
         2 0.407E-02 0.103E-01 0.267E-01 0.375E-01 0.516E-01 0.627E-01 0.838E-01 0.121E+00


 Contracted 2-electron integrals neglected if value below      1.0D-22

       10790064. INTEGRALS WRITTEN OUT IN    2635 BLOCKS ON RECORD 1290 OF FILE 1


 NUMBER OF SORTED TWO-ELECTRON INTEGRALS:   11433631.     BUFFER LENGTH:  32768
 NUMBER OF SEGMENTS:   1  SEGMENT LENGTH:   11433631      RECORD LENGTH: 524288

 Memory used in sort:      11.99 MW

 SORT1 READ    10790064. AND WROTE    10943632. INTEGRALS IN     32 RECORDS. CPU TIME:     0.16 SEC, REAL TIME:     0.22 SEC
 SORT2 READ    10943632. AND WROTE    11433631. INTEGRALS IN      1 RECORDS. CPU TIME:     0.15 SEC, REAL TIME:     0.21 SEC

 FILE SIZES:   FILE 1:   193.0 MBYTE,  FILE 4:   134.3 MBYTE,   TOTAL:    327.2 MBYTE

 OPERATOR DM      FOR CENTER  0  COORDINATES:    0.000000    0.000000    0.000000


 **********************************************************************************************************************************
 DATASETS  * FILE   NREC   LENGTH (MB)   RECORD NAMES
              1      19      111.05       500      610      700      900      950      970     1000      129      960     1100   
                                          VAR    BASINP    GEOM    SYMINP    ZMAT    AOBASIS   BASIS     P2S    ABASIS      S 
                                         1400     1410     1200     1210     1080     1600     1650     1300     1700   
                                           T        V       H0       H01     AOSYM     SMH    MOLCAS    ERIS     OPER   

 PROGRAMS   *        TOTAL       INT
 CPU TIMES  *         1.24      1.16
 REAL TIME  *         1.98 SEC
 DISK USED  *       327.55 MB      
 **********************************************************************************************************************************


 PROGRAM * RHF-SCF (CLOSED SHELL)       Authors: W. Meyer, H.-J. Werner


 NUMBER OF ELECTRONS:       8+    8-
 CONVERGENCE THRESHOLDS:    1.00E-10 (Density)    1.00E-13 (Energy)
 MAX. NUMBER OF ITERATIONS:      500
 INTERPOLATION TYPE:            DIIS
 INTERPOLATION STEPS:              2 (START)      1 (STEP)
 LEVEL SHIFTS:                  0.00 (CLOSED)  0.00 (OPEN) 



 Orbital guess generated from atomic densities. Full valence occupancy:    9   2

 Molecular orbital dump at record        2100.2

 Initial occupancy:   7   1

 ITERATION    DDIFF          GRAD             ENERGY        2-EL.EN.            DIPOLE MOMENTS         DIIS   ORB.
    1      0.000D+00      0.000D+00      -129.78497717    153.476291    0.00000    0.59067   -1.05338    0    start
    2      0.000D+00      0.109D-01      -129.81208113    154.728029    0.00000    0.61692   -0.20139    1    diag
    3      0.122D-01      0.855D-02      -129.83667239    154.861440    0.00000    0.55907   -0.60570    2    diag
    4      0.612D-02      0.129D-02      -129.83748509    154.564788    0.00000    0.56636   -0.54429    3    diag
    5      0.109D-02      0.428D-03      -129.83761597    154.659995    0.00000    0.57200   -0.54694    4    diag
    6      0.459D-03      0.124D-03      -129.83763696    154.644209    0.00000    0.57232   -0.54265    5    diag
    7      0.176D-03      0.620D-04      -129.83764314    154.646647    0.00000    0.57356   -0.53995    6    diag
    8      0.122D-03      0.217D-04      -129.83764386    154.645951    0.00000    0.57357   -0.53887    7    diag
    9      0.481D-04      0.416D-05      -129.83764390    154.645833    0.00000    0.57353   -0.53864    8    diag
   10      0.945D-05      0.928D-06      -129.83764390    154.645813    0.00000    0.57350   -0.53861    9    orth
   11      0.183D-05      0.183D-06      -129.83764390    154.645810    0.00000    0.57349   -0.53861    9    diag
   12      0.345D-06      0.384D-07      -129.83764390    154.645810    0.00000    0.57349   -0.53861    9    diag
   13      0.745D-07      0.997D-08      -129.83764390    154.645810    0.00000    0.57349   -0.53861    9    diag
   14      0.202D-07      0.205D-08      -129.83764390    154.645810    0.00000    0.57349   -0.53861    9    diag
   15      0.387D-08      0.561D-09      -129.83764390    154.645810    0.00000    0.57349   -0.53861    9    diag
   16      0.106D-08      0.147D-09      -129.83764390    154.645810    0.00000    0.57349   -0.53861    9    diag
   17      0.174D-09      0.399D-10      -129.83764390    154.645810    0.00000    0.57349   -0.53861    9    diag
   18      0.468D-10      0.138D-10      -129.83764390    154.645810    0.00000    0.57349   -0.53861    0    orth

 Final occupancy:   7   1

 !RHF STATE 1.1 Energy               -129.837643897694
 Nuclear energy                        30.13565298
 One-electron energy                 -237.29620182
 Two-electron energy                   77.32290495
 Virial quotient                       -1.00250118
 !RHF STATE 1.1 Dipole moment           0.00000000     0.57349058    -0.53860842
 Dipole moment /Debye                   0.00000000     1.45757220    -1.36891640

 Orbital energies:

         1.1          2.1          3.1          4.1          5.1          6.1          7.1          8.1          9.1
    -20.657533   -15.716899    -1.522822    -0.995940    -0.743756    -0.663215    -0.433354     0.029061     0.092143

         1.2          2.2          3.2
     -0.591677     0.062155     0.130055

 HOMO      7.1    -0.433354 =     -11.7922eV
 LUMO      8.1     0.029061 =       0.7908eV
 LUMO-HOMO         0.462415 =      12.5829eV


 **********************************************************************************************************************************
 DATASETS  * FILE   NREC   LENGTH (MB)   RECORD NAMES
              1      19      111.05       500      610      700      900      950      970     1000      129      960     1100   
                                          VAR    BASINP    GEOM    SYMINP    ZMAT    AOBASIS   BASIS     P2S    ABASIS      S 
                                         1400     1410     1200     1210     1080     1600     1650     1300     1700   
                                           T        V       H0       H01     AOSYM     SMH    MOLCAS    ERIS     OPER   

              2       4        2.94       700     1000      520     2100   
                                         GEOM     BASIS   MCVARS     RHF  

 PROGRAMS   *        TOTAL        HF       INT
 CPU TIMES  *         2.16      0.92      1.16
 REAL TIME  *         3.15 SEC
 DISK USED  *       327.55 MB      
 **********************************************************************************************************************************


 PROGRAM * CCSD (Closed-shell coupled cluster)     Authors: C. Hampel, H.-J. Werner, 1991, M. Deegan, P.J. Knowles, 1992


 Convergence thresholds:  THRVAR = 1.00D-08  THRDEN = 1.00D-12

 CCSD(T)     terms to be evaluated (factor= 1.000)


 Number of core orbitals:           2 (   2   0 )
 Number of closed-shell orbitals:   6 (   5   1 )
 Number of external orbitals:     107 (  69  38 )

 Molecular orbitals read from record     2100.2  Type=RHF/CANONICAL (state 1.1)

 Number of N-1 electron functions:               6
 Number of N-2 electron functions:              21
 Number of singly external CSFs:               383
 Number of doubly external CSFs:            107206
 Total number of CSFs:                      107590

 Length of J-op  integral file:               0.00 MB
 Length of K-op  integral file:               0.54 MB
 Length of 3-ext integral record:             0.00 MB

 Memory could be reduced to 5.94 Mwords without degradation in triples

 Integral transformation finished. Total CPU:   0.14 sec, npass=  1  Memory used:   1.65 MW

 Reference energy:                   -129.83764390

 MP2 singlet pair energy:              -0.28061097
 MP2 triplet pair energy:              -0.16595728
 MP2 correlation energy:               -0.44656825
 MP2 total energy:                   -130.28421215

 SCS-MP2 correlation energy:           -0.43999547   (PS=  1.200000  PT=  0.333333)
 SCS-MP2 total energy:               -130.27763937

 ITER.      SQ.NORM     CORR.ENERGY   TOTAL ENERGY   ENERGY CHANGE        DEN1      VAR(S)    VAR(P)  DIIS     TIME  TIME/IT
   1      1.12220056    -0.45027811  -130.28792201    -0.00370986     0.01281820  0.33D-02  0.33D-02  1  1     0.28     0.16
   2      1.13360324    -0.45039364  -130.28803754    -0.00011553    -0.01271514  0.11D-03  0.53D-03  2  2     0.44     0.16
   3      1.14034010    -0.45081409  -130.28845799    -0.00042044    -0.00308118  0.57D-04  0.54D-04  3  3     0.59     0.16
   4      1.14336078    -0.45082556  -130.28846946    -0.00001147    -0.00101297  0.46D-05  0.97D-05  4  4     0.75     0.16
   5      1.14448280    -0.45085665  -130.28850055    -0.00003109    -0.00023710  0.12D-05  0.17D-05  5  5     0.89     0.16
   6      1.14484316    -0.45083826  -130.28848216     0.00001840    -0.00004433  0.11D-06  0.40D-06  6  6     1.03     0.16
   7      1.14491845    -0.45083952  -130.28848342    -0.00000126    -0.00000146  0.19D-07  0.95D-07  6  1     1.17     0.16
   8      1.14494039    -0.45084008  -130.28848398    -0.00000056     0.00000146  0.35D-08  0.18D-07  6  2     1.31     0.16
   9      1.14494598    -0.45083959  -130.28848349     0.00000049     0.00000052  0.29D-08  0.21D-08  6  4     1.46     0.16
  10      1.14494849    -0.45084009  -130.28848399    -0.00000050    -0.00000077  0.48D-09  0.25D-09  6  3     1.60     0.16
  11      1.14494803    -0.45084011  -130.28848400    -0.00000002    -0.00000009  0.17D-09  0.37D-10  6  5     1.74     0.16
  12      1.14494693    -0.45084027  -130.28848417    -0.00000016     0.00000035  0.19D-10  0.12D-10  6  6     1.89     0.16
  13      1.14494602    -0.45084031  -130.28848421    -0.00000004     0.00000023  0.68D-11  0.24D-11  6  1     2.04     0.16
  14      1.14494542    -0.45084034  -130.28848424    -0.00000003     0.00000015  0.10D-11  0.77D-12  6  2     2.17     0.16
  15      1.14494517    -0.45084035  -130.28848425    -0.00000001     0.00000004  0.30D-12  0.24D-12  6  4     2.32     0.16
  16      1.14494506    -0.45084035  -130.28848425    -0.00000000     0.00000001  0.56D-13  0.83D-13  6  3     2.46     0.16
  17      1.14494500    -0.45084035  -130.28848425    -0.00000000     0.00000001  0.41D-14  0.20D-13  6  5     2.61     0.16
  18      1.14494500    -0.45084035  -130.28848425     0.00000000    -0.00000000  0.14D-14  0.43D-14  6  6     2.74     0.16
  19      1.14494500    -0.45084035  -130.28848425     0.00000000    -0.00000000  0.16D-15  0.28D-15  6  5     2.89     0.16
  20      1.14494500    -0.45084035  -130.28848425    -0.00000000     0.00000000  0.65D-16  0.49D-16  6  1     3.04     0.16
  21      1.14494499    -0.45084035  -130.28848425    -0.00000000     0.00000000  0.14D-16  0.10D-16  6  2     3.17     0.16
  22      1.14494499    -0.45084035  -130.28848425    -0.00000000     0.00000000  0.49D-17  0.11D-17  6  4     3.31     0.16
  23      1.14494499    -0.45084035  -130.28848425     0.00000000     0.00000000  0.14D-17  0.39D-18  6  3     3.46     0.16
  24      1.14494499    -0.45084035  -130.28848425    -0.00000000     0.00000000  0.39D-18  0.78D-19  6  6     3.60     0.16
  25      1.14494499    -0.45084035  -130.28848425     0.00000000    -0.00000000  0.58D-19  0.38D-19  6  5     3.75     0.16
  26      1.14494499    -0.45084035  -130.28848425     0.00000000    -0.00000000  0.92D-20  0.15D-19  6  1     3.89     0.16
  27      1.14494499    -0.45084035  -130.28848425    -0.00000000    -0.00000000  0.48D-21  0.22D-20  6  4     4.04     0.16
  28      1.14494499    -0.45084035  -130.28848425     0.00000000     0.00000000  0.94D-22  0.25D-21  6  2     4.18     0.16

 Norm of t1 vector:      0.08024109      S-energy:     0.00000000      T1 diagnostic:  0.01637914
                                                                       D1 diagnostic:  0.04343113

 Doubles amplitudes (print threshold =  0.500E-01):

         I         J         SYM. A    SYM. B    A         B      T(IJ, AB)

         6         6         2         2         1         1     -0.11323555


 Total CPU time for triples:      1.17 sec


 RESULTS
 =======

  Reference energy                   -129.837643897694
  CCSD singlet pair energy             -0.309375438491
  CCSD triplet pair energy             -0.141464915060
  CCSD correlation energy              -0.450840353549

  Triples (T) contribution             -0.021254126267
  Total correlation energy             -0.472094479816

  CCSD total energy                  -130.288484251243
  CCSD[T] energy                     -130.310853187172
  CCSD-T energy                      -130.309322051455
 !CCSD(T) total energy               -130.309738377510

 Timing summary (sec):

 STEP                 CPU(USER)    SYS     CPU(TOT)    WALL
 Transformation          0.15      0.03      0.18      0.19
 CCSD iterations         4.03      0.55      4.58      4.59
 Triples                 1.17      0.03      1.20      1.19

 Program statistics:

 Available memory in ccsd:               994999756
 Min. memory needed in ccsd:                389120
 Max. memory used in ccsd:                  473124
 Max. memory used in cckext:                599488 (28 integral passes)



 **********************************************************************************************************************************
 DATASETS  * FILE   NREC   LENGTH (MB)   RECORD NAMES
              1      20      128.20       500      610      700      900      950      970     1000      129      960     1100   
                                          VAR    BASINP    GEOM    SYMINP    ZMAT    AOBASIS   BASIS     P2S    ABASIS      S 
                                         1400     1410     1200     1210     1080     1600     1650     1300     1700     1380   
                                           T        V       H0       H01     AOSYM     SMH    MOLCAS    ERIS     OPER     JKOP   

              2       4        2.94       700     1000      520     2100   
                                         GEOM     BASIS   MCVARS     RHF  

 PROGRAMS   *        TOTAL   CCSD(T)        HF       INT
 CPU TIMES  *         7.54      5.38      0.92      1.16
 REAL TIME  *         9.23 SEC
 DISK USED  *       327.55 MB      
 **********************************************************************************************************************************

 CCSD(T)/aug-cc-pVTZ energy=   -130.309738377510

        CCSD(T)         HF-SCF  
   -130.30973838   -129.83764390
 **********************************************************************************************************************************
 Molpro calculation terminated
 Variable memory released
