
 Primary working directories    : /tmp/r2666/282118.maple
 Secondary working directories  : /tmp/r2666/282118.maple
 Wavefunction directory         : /ddn/home4/r2666/wfu/
 Main file repository           : /tmp/r2666/282118.maple/

 SHA1      : d5ffa45e93fdbca01ffc919aa182cfdae0147319
 NAME      : 2015.1.35
 ARCHNAME  : linux/x86_64
 FC        : /opt/intel/composer_xe_2015.1.133/bin/intel64/ifort
 BLASLIB   : -Wl,-_start-group /opt/intel/mkl/lib/intel64/libmkl_intel_ilp64.a /opt/intel/mkl/lib/intel64/libmkl_intel_thread.a /opt/intel/mkl/lib/intel64/libmkl_core.a -Wl,-_end-group
 id        : olemiss

 Nodes     nprocs
 cn083        1

 Using customized tuning parameters: mindgm=1; mindgv=20; mindgc=4; mindgr=1; noblas=0; minvec=7
 default implementation of scratch files=df  

 ***,hno CCSD(T)/TZ-F12 QFF
 memory, 995, m;
 gthresh,energy=1.d-12,zero=1.d-22,oneint=1.d-22,twoint=1.d-22;
 gthresh,optgrad=1.d-8,optstep=1.d-8;
 nocompress;
 geomtyp=xyz
 bohr
 geometry={
 3
         15        15
 H        0.0000000000        1.6579537127       -1.9255387275
 N        0.0000000000       -0.1520201268       -1.1499214305
 O        0.0000000000        0.0358342040        1.1248705670
 }
 
 basis=avtz
   {hf,maxit=500;accu,20;}
 {ccsd(t),nocheck,maxit=250;orbital,IGNORE_ERROR;}

 Variables initialized (889), CPU time= 0.00 sec
 Commands  initialized (702), CPU time= 0.01 sec, 572 directives.
 Default parameters read. Elapsed time= 0.06 sec

 Checking input...
 Passed
1


                                         ***  PROGRAM SYSTEM MOLPRO  ***
                                       Copyright, TTI GmbH Stuttgart, 2015
                                    Version 2015.1 linked Jul  9 2018 13:16:40


 **********************************************************************************************************************************
 LABEL *   hno CCSD(T)/TZ-F12 QFF                                                        
  64 bit serial version                                                                  DATE: 04-Mar-20          TIME: 13:45:51  
 **********************************************************************************************************************************

 SHA1:             d5ffa45e93fdbca01ffc919aa182cfdae0147319
 **********************************************************************************************************************************

 THRESHOLDS:

 ZERO    =  1.00D-22  ONEINT  =  1.00D-22  TWOINT  =  1.00D-22  PREFAC  =  1.00D-14  LOCALI  =  1.00D-09  EORDER  =  1.00D-04
 ENERGY  =  1.00D-12  ETEST   =  0.00D+00  EDENS   =  0.00D+00  THRDEDEF=  1.00D-06  GRADIENT=  1.00D-02  STEP    =  1.00D-03
 ORBITAL =  1.00D-05  CIVEC   =  1.00D-05  COEFF   =  1.00D-04  PRINTCI =  5.00D-02  PUNCHCI =  9.90D+01  OPTGRAD =  3.00D-04
 OPTENERG=  1.00D-06  OPTSTEP =  3.00D-04  THRGRAD =  1.00D-10  COMPRESS=  1.00D-11  VARMIN  =  1.00D-07  VARMAX  =  1.00D-03
 THRDOUB =  0.00D+00  THRDIV  =  1.00D-05  THRRED  =  1.00D-07  THRPSP  =  1.00D+00  THRDC   =  1.00D-10  THRCS   =  1.00D-10
 THRNRM  =  1.00D-08  THREQ   =  0.00D+00  THRDE   =  1.00D+00  THRREF  =  1.00D-05  SPARFAC =  1.00D+00  THRDLP  =  1.00D-07
 THRDIA  =  1.00D-10  THRDLS  =  1.00D-07  THRGPS  =  0.00D+00  THRKEX  =  0.00D+00  THRDIS  =  2.00D-01  THRVAR  =  1.00D-10
 THRLOC  =  1.00D-06  THRGAP  =  1.00D-06  THRLOCT = -1.00D+00  THRGAPT = -1.00D+00  THRORB  =  1.00D-06  THRMLTP =  0.00D+00
 THRCPQCI=  1.00D-10  KEXTA   =  0.00D+00  THRCOARS=  0.00D+00  SYMTOL  =  1.00D-06  GRADTOL =  1.00D-06  THROVL  =  1.00D-08
 THRORTH =  1.00D-08  GRID    =  1.00D-06  GRIDMAX =  1.00D-03  DTMAX   =  0.00D+00  THROCCDE=  1.00D-01  THROCCDE=  1.00D-01



 THRESHOLDS:

 ZERO    =  1.00D-22  ONEINT  =  1.00D-22  TWOINT  =  1.00D-22  PREFAC  =  1.00D-14  LOCALI  =  1.00D-09  EORDER  =  1.00D-04
 ENERGY  =  1.00D-12  ETEST   =  0.00D+00  EDENS   =  0.00D+00  THRDEDEF=  1.00D-06  GRADIENT=  1.00D-02  STEP    =  1.00D-03
 ORBITAL =  1.00D-05  CIVEC   =  1.00D-05  COEFF   =  1.00D-04  PRINTCI =  5.00D-02  PUNCHCI =  9.90D+01  OPTGRAD =  1.00D-08
 OPTENERG=  1.00D-06  OPTSTEP =  1.00D-08  THRGRAD =  1.00D-10  COMPRESS=  1.00D-11  VARMIN  =  1.00D-07  VARMAX  =  1.00D-03
 THRDOUB =  0.00D+00  THRDIV  =  1.00D-05  THRRED  =  1.00D-07  THRPSP  =  1.00D+00  THRDC   =  1.00D-10  THRCS   =  1.00D-10
 THRNRM  =  1.00D-08  THREQ   =  0.00D+00  THRDE   =  1.00D+00  THRREF  =  1.00D-05  SPARFAC =  1.00D+00  THRDLP  =  1.00D-07
 THRDIA  =  1.00D-10  THRDLS  =  1.00D-07  THRGPS  =  0.00D+00  THRKEX  =  0.00D+00  THRDIS  =  2.00D-01  THRVAR  =  1.00D-10
 THRLOC  =  1.00D-06  THRGAP  =  1.00D-06  THRLOCT = -1.00D+00  THRGAPT = -1.00D+00  THRORB  =  1.00D-06  THRMLTP =  0.00D+00
 THRCPQCI=  1.00D-10  KEXTA   =  0.00D+00  THRCOARS=  0.00D+00  SYMTOL  =  1.00D-06  GRADTOL =  1.00D-06  THROVL  =  1.00D-08
 THRORTH =  1.00D-08  GRID    =  1.00D-06  GRIDMAX =  1.00D-03  DTMAX   =  0.00D+00  THROCCDE=  1.00D-01  THROCCDE=  1.00D-01



 Input parameters for SORTINT:

 COMPRESS =    0.000000
 C_FINAL  =    1.000000
 DEBUG    =   -1.000000
 C_SORT1  =    0.000000
 C_SEWARD =    0.000000
 THRESH   =    0.000000
 IO       =  molpro                                                          
 SPRI     =    0.000000
 SETTING GEOMTYP        =    XYZ
 ZUNIT=BOHR
 

 Variable memory set to  995000000 words,  buffer space   230000 words

 SETTING BASIS          =    AVTZ


 Recomputing integrals since basis changed


 Using spherical harmonics

 Library entry H      S aug-cc-pVTZ          selected for orbital group  1
 Library entry H      P aug-cc-pVTZ          selected for orbital group  1
 Library entry H      D aug-cc-pVTZ          selected for orbital group  1
 Library entry N      S aug-cc-pVTZ          selected for orbital group  2
 Library entry N      P aug-cc-pVTZ          selected for orbital group  2
 Library entry N      D aug-cc-pVTZ          selected for orbital group  2
 Library entry N      F aug-cc-pVTZ          selected for orbital group  2
 Library entry O      S aug-cc-pVTZ          selected for orbital group  3
 Library entry O      P aug-cc-pVTZ          selected for orbital group  3
 Library entry O      D aug-cc-pVTZ          selected for orbital group  3
 Library entry O      F aug-cc-pVTZ          selected for orbital group  3


 PROGRAM * SEWARD (Integral evaluation for generally contracted gaussian basis sets)     Author: Roland Lindh, 1990

 Geometry written to block  1 of record 700


 Point group  Cs  



 ATOMIC COORDINATES

 NR  ATOM    CHARGE       X              Y              Z

   1  H       1.00    0.000000000    1.657953713   -1.925538727
   2  N       7.00    0.000000000   -0.152020127   -1.149921431
   3  O       8.00    0.000000000    0.035834204    1.124870567

 Bond lengths in Bohr (Angstrom)

 1-2  1.969159082  2-3  2.282535406
     ( 1.042034111)     ( 1.207865720)

 Bond angles

  1-2-3  108.47547239

 NUCLEAR CHARGE:                   16
 NUMBER OF PRIMITIVE AOS:         161
 NUMBER OF SYMMETRY AOS:          141
 NUMBER OF CONTRACTIONS:          115   (  76A'  +  39A"  )
 NUMBER OF CORE ORBITALS:           2   (   2A'  +   0A"  )
 NUMBER OF VALENCE ORBITALS:        9   (   7A'  +   2A"  )


 NUCLEAR REPULSION ENERGY   30.40449615

 Eigenvalues of metric

         1 0.230E-03 0.493E-03 0.180E-02 0.209E-02 0.252E-02 0.357E-02 0.427E-02 0.504E-02
         2 0.394E-02 0.987E-02 0.261E-01 0.367E-01 0.510E-01 0.616E-01 0.809E-01 0.119E+00


 Contracted 2-electron integrals neglected if value below      1.0D-22

       10790064. INTEGRALS WRITTEN OUT IN    2635 BLOCKS ON RECORD 1290 OF FILE 1


 NUMBER OF SORTED TWO-ELECTRON INTEGRALS:   11433631.     BUFFER LENGTH:  32768
 NUMBER OF SEGMENTS:   1  SEGMENT LENGTH:   11433631      RECORD LENGTH: 524288

 Memory used in sort:      11.99 MW

 SORT1 READ    10790064. AND WROTE    10943632. INTEGRALS IN     32 RECORDS. CPU TIME:     0.17 SEC, REAL TIME:     0.24 SEC
 SORT2 READ    10943632. AND WROTE    11433631. INTEGRALS IN      1 RECORDS. CPU TIME:     0.18 SEC, REAL TIME:     0.24 SEC

 FILE SIZES:   FILE 1:   193.0 MBYTE,  FILE 4:   134.3 MBYTE,   TOTAL:    327.2 MBYTE

 OPERATOR DM      FOR CENTER  0  COORDINATES:    0.000000    0.000000    0.000000


 **********************************************************************************************************************************
 DATASETS  * FILE   NREC   LENGTH (MB)   RECORD NAMES
              1      19      111.05       500      610      700      900      950      970     1000      129      960     1100   
                                          VAR    BASINP    GEOM    SYMINP    ZMAT    AOBASIS   BASIS     P2S    ABASIS      S 
                                         1400     1410     1200     1210     1080     1600     1650     1300     1700   
                                           T        V       H0       H01     AOSYM     SMH    MOLCAS    ERIS     OPER   

 PROGRAMS   *        TOTAL       INT
 CPU TIMES  *         1.35      1.24
 REAL TIME  *         2.12 SEC
 DISK USED  *       327.55 MB      
 **********************************************************************************************************************************


 PROGRAM * RHF-SCF (CLOSED SHELL)       Authors: W. Meyer, H.-J. Werner


 NUMBER OF ELECTRONS:       8+    8-
 CONVERGENCE THRESHOLDS:    1.00E-10 (Density)    1.00E-13 (Energy)
 MAX. NUMBER OF ITERATIONS:      500
 INTERPOLATION TYPE:            DIIS
 INTERPOLATION STEPS:              2 (START)      1 (STEP)
 LEVEL SHIFTS:                  0.00 (CLOSED)  0.00 (OPEN) 



 Orbital guess generated from atomic densities. Full valence occupancy:    9   2

 Molecular orbital dump at record        2100.2

 Initial occupancy:   7   1

 ITERATION    DDIFF          GRAD             ENERGY        2-EL.EN.            DIPOLE MOMENTS         DIIS   ORB.
    1      0.000D+00      0.000D+00      -129.78918287    153.965182    0.00000    0.60074   -1.01993    0    start
    2      0.000D+00      0.107D-01      -129.81665325    155.224004    0.00000    0.61138   -0.21527    1    diag
    3      0.118D-01      0.813D-02      -129.83877581    155.337582    0.00000    0.56168   -0.59465    2    diag
    4      0.587D-02      0.128D-02      -129.83956598    155.050560    0.00000    0.56906   -0.53466    3    diag
    5      0.107D-02      0.419D-03      -129.83968976    155.143791    0.00000    0.57453   -0.53744    4    diag
    6      0.447D-03      0.120D-03      -129.83970934    155.128366    0.00000    0.57491   -0.53339    5    diag
    7      0.170D-03      0.596D-04      -129.83971499    155.130827    0.00000    0.57613   -0.53083    6    diag
    8      0.117D-03      0.202D-04      -129.83971559    155.130182    0.00000    0.57615   -0.52984    7    diag
    9      0.439D-04      0.382D-05      -129.83971562    155.130078    0.00000    0.57611   -0.52963    8    diag
   10      0.842D-05      0.872D-06      -129.83971562    155.130060    0.00000    0.57608   -0.52960    9    orth
   11      0.171D-05      0.173D-06      -129.83971562    155.130057    0.00000    0.57608   -0.52960    9    diag
   12      0.328D-06      0.354D-07      -129.83971562    155.130057    0.00000    0.57607   -0.52960    9    diag
   13      0.701D-07      0.889D-08      -129.83971562    155.130057    0.00000    0.57607   -0.52960    9    diag
   14      0.182D-07      0.183D-08      -129.83971562    155.130057    0.00000    0.57607   -0.52960    9    diag
   15      0.358D-08      0.509D-09      -129.83971562    155.130057    0.00000    0.57607   -0.52960    9    diag
   16      0.979D-09      0.138D-09      -129.83971562    155.130057    0.00000    0.57607   -0.52960    9    diag
   17      0.171D-09      0.379D-10      -129.83971562    155.130057    0.00000    0.57607   -0.52960    9    diag
   18      0.460D-10      0.133D-10      -129.83971562    155.130057    0.00000    0.57607   -0.52960    9    diag
   19      0.239D-10      0.290D-11      -129.83971562    155.130057    0.00000    0.57607   -0.52960    0    orth

 Final occupancy:   7   1

 !RHF STATE 1.1 Energy               -129.839715620341
 Nuclear energy                        30.40449615
 One-electron energy                 -237.80924037
 Two-electron energy                   77.56502860
 Virial quotient                       -1.00203965
 !RHF STATE 1.1 Dipole moment           0.00000000     0.57607286    -0.52959879
 Dipole moment /Debye                   0.00000000     1.46413526    -1.34601770

 Orbital energies:

         1.1          2.1          3.1          4.1          5.1          6.1          7.1          8.1          9.1
    -20.656438   -15.713042    -1.530833    -0.997765    -0.748418    -0.666185    -0.430817     0.029166     0.092156

         1.2          2.2          3.2
     -0.596093     0.064843     0.130000

 HOMO      7.1    -0.430817 =     -11.7231eV
 LUMO      8.1     0.029166 =       0.7937eV
 LUMO-HOMO         0.459983 =      12.5168eV


 **********************************************************************************************************************************
 DATASETS  * FILE   NREC   LENGTH (MB)   RECORD NAMES
              1      19      111.05       500      610      700      900      950      970     1000      129      960     1100   
                                          VAR    BASINP    GEOM    SYMINP    ZMAT    AOBASIS   BASIS     P2S    ABASIS      S 
                                         1400     1410     1200     1210     1080     1600     1650     1300     1700   
                                           T        V       H0       H01     AOSYM     SMH    MOLCAS    ERIS     OPER   

              2       4        2.94       700     1000      520     2100   
                                         GEOM     BASIS   MCVARS     RHF  

 PROGRAMS   *        TOTAL        HF       INT
 CPU TIMES  *         2.38      1.03      1.24
 REAL TIME  *         3.40 SEC
 DISK USED  *       327.55 MB      
 **********************************************************************************************************************************


 PROGRAM * CCSD (Closed-shell coupled cluster)     Authors: C. Hampel, H.-J. Werner, 1991, M. Deegan, P.J. Knowles, 1992


 Convergence thresholds:  THRVAR = 1.00D-08  THRDEN = 1.00D-12

 CCSD(T)     terms to be evaluated (factor= 1.000)


 Number of core orbitals:           2 (   2   0 )
 Number of closed-shell orbitals:   6 (   5   1 )
 Number of external orbitals:     107 (  69  38 )

 Molecular orbitals read from record     2100.2  Type=RHF/CANONICAL (state 1.1)

 Number of N-1 electron functions:               6
 Number of N-2 electron functions:              21
 Number of singly external CSFs:               383
 Number of doubly external CSFs:            107206
 Total number of CSFs:                      107590

 Length of J-op  integral file:               0.00 MB
 Length of K-op  integral file:               0.54 MB
 Length of 3-ext integral record:             0.00 MB

 Memory could be reduced to 5.94 Mwords without degradation in triples

 Integral transformation finished. Total CPU:   0.16 sec, npass=  1  Memory used:   1.65 MW

 Reference energy:                   -129.83971562

 MP2 singlet pair energy:              -0.27919611
 MP2 triplet pair energy:              -0.16504023
 MP2 correlation energy:               -0.44423634
 MP2 total energy:                   -130.28395196

 SCS-MP2 correlation energy:           -0.43772703   (PS=  1.200000  PT=  0.333333)
 SCS-MP2 total energy:               -130.27744265

 ITER.      SQ.NORM     CORR.ENERGY   TOTAL ENERGY   ENERGY CHANGE        DEN1      VAR(S)    VAR(P)  DIIS     TIME  TIME/IT
   1      1.12060804    -0.44837425  -130.28808987    -0.00413791     0.01184477  0.31D-02  0.31D-02  1  1     0.30     0.16
   2      1.13167182    -0.44857674  -130.28829236    -0.00020249    -0.01239261  0.10D-03  0.51D-03  2  2     0.45     0.17
   3      1.13811147    -0.44897119  -130.28868681    -0.00039445    -0.00298149  0.53D-04  0.51D-04  3  3     0.60     0.17
   4      1.14098580    -0.44898391  -130.28869953    -0.00001272    -0.00097106  0.41D-05  0.92D-05  4  4     0.75     0.17
   5      1.14202572    -0.44901214  -130.28872776    -0.00002822    -0.00021976  0.11D-05  0.17D-05  5  5     0.91     0.17
   6      1.14236594    -0.44899531  -130.28871093     0.00001683    -0.00004157  0.92D-07  0.41D-06  6  6     1.07     0.17
   7      1.14243975    -0.44899668  -130.28871230    -0.00000137    -0.00000167  0.17D-07  0.94D-07  6  1     1.23     0.17
   8      1.14246079    -0.44899740  -130.28871302    -0.00000072     0.00000167  0.37D-08  0.17D-07  6  2     1.38     0.17
   9      1.14246920    -0.44899684  -130.28871246     0.00000055    -0.00000089  0.25D-08  0.17D-08  6  3     1.55     0.17
  10      1.14246929    -0.44899735  -130.28871297    -0.00000051    -0.00000000  0.50D-09  0.24D-09  6  4     1.70     0.17
  11      1.14246766    -0.44899748  -130.28871310    -0.00000012     0.00000053  0.14D-09  0.31D-10  6  5     1.86     0.17
  12      1.14246637    -0.44899765  -130.28871327    -0.00000018     0.00000041  0.15D-10  0.88D-11  6  6     2.00     0.17
  13      1.14246567    -0.44899768  -130.28871330    -0.00000002     0.00000017  0.53D-11  0.17D-11  6  1     2.17     0.17
  14      1.14246524    -0.44899770  -130.28871332    -0.00000002     0.00000009  0.83D-12  0.54D-12  6  2     2.34     0.17
  15      1.14246507    -0.44899770  -130.28871332    -0.00000000     0.00000002  0.24D-12  0.17D-12  6  3     2.48     0.17
  16      1.14246499    -0.44899770  -130.28871332    -0.00000000     0.00000001  0.38D-13  0.61D-13  6  4     2.63     0.17
  17      1.14246494    -0.44899771  -130.28871333    -0.00000000     0.00000001  0.27D-14  0.14D-13  6  5     2.80     0.17
  18      1.14246493    -0.44899771  -130.28871333     0.00000000     0.00000000  0.12D-14  0.30D-14  6  6     2.94     0.17
  19      1.14246493    -0.44899771  -130.28871333     0.00000000    -0.00000000  0.82D-15  0.50D-15  6  1     3.12     0.17
  20      1.14246493    -0.44899771  -130.28871333     0.00000000    -0.00000000  0.14D-15  0.84D-16  6  2     3.27     0.17
  21      1.14246493    -0.44899771  -130.28871333     0.00000000     0.00000000  0.63D-16  0.19D-16  6  3     3.41     0.17
  22      1.14246493    -0.44899771  -130.28871333     0.00000000    -0.00000000  0.32D-17  0.38D-17  6  5     3.57     0.17
  23      1.14246493    -0.44899771  -130.28871333     0.00000000     0.00000000  0.10D-17  0.32D-18  6  4     3.72     0.17
  24      1.14246493    -0.44899771  -130.28871333    -0.00000000    -0.00000000  0.27D-18  0.79D-19  6  6     3.87     0.18
  25      1.14246493    -0.44899771  -130.28871333     0.00000000    -0.00000000  0.33D-19  0.17D-19  6  1     4.03     0.18

 Norm of t1 vector:      0.07806807      S-energy:     0.00000000      T1 diagnostic:  0.01593558
                                                                       D1 diagnostic:  0.04207965

 Doubles amplitudes (print threshold =  0.500E-01):

         I         J         SYM. A    SYM. B    A         B      T(IJ, AB)

         6         6         2         2         1         1     -0.10896627


 Total CPU time for triples:      1.48 sec


 RESULTS
 =======

  Reference energy                   -129.839715620341
  CCSD singlet pair energy             -0.307792898405
  CCSD triplet pair energy             -0.141204808125
  CCSD correlation energy              -0.448997706523

  Triples (T) contribution             -0.020847850789
  Total correlation energy             -0.469845557312

  CCSD total energy                  -130.288713326864
  CCSD[T] energy                     -130.310618653276
  CCSD-T energy                      -130.309160372237
 !CCSD(T) total energy               -130.309561177653

 Timing summary (sec):

 STEP                 CPU(USER)    SYS     CPU(TOT)    WALL
 Transformation          0.16      0.03      0.19      0.18
 CCSD iterations         3.88      0.52      4.40      4.39
 Triples                 1.48      0.03      1.51      1.52

 Program statistics:

 Available memory in ccsd:               994999756
 Min. memory needed in ccsd:                389120
 Max. memory used in ccsd:                  473124
 Max. memory used in cckext:                599488 (25 integral passes)



 **********************************************************************************************************************************
 DATASETS  * FILE   NREC   LENGTH (MB)   RECORD NAMES
              1      20      128.20       500      610      700      900      950      970     1000      129      960     1100   
                                          VAR    BASINP    GEOM    SYMINP    ZMAT    AOBASIS   BASIS     P2S    ABASIS      S 
                                         1400     1410     1200     1210     1080     1600     1650     1300     1700     1380   
                                           T        V       H0       H01     AOSYM     SMH    MOLCAS    ERIS     OPER     JKOP   

              2       4        2.94       700     1000      520     2100   
                                         GEOM     BASIS   MCVARS     RHF  

 PROGRAMS   *        TOTAL   CCSD(T)        HF       INT
 CPU TIMES  *         7.92      5.54      1.03      1.24
 REAL TIME  *         9.77 SEC
 DISK USED  *       327.55 MB      
 **********************************************************************************************************************************

 CCSD(T)/aug-cc-pVTZ energy=   -130.309561177653

        CCSD(T)         HF-SCF  
   -130.30956118   -129.83971562
 **********************************************************************************************************************************
 Molpro calculation terminated
 Variable memory released
