
 Primary working directories    : /tmp/r2666/282154.maple
 Secondary working directories  : /tmp/r2666/282154.maple
 Wavefunction directory         : /ddn/home4/r2666/wfu/
 Main file repository           : /tmp/r2666/282154.maple/

 SHA1      : d5ffa45e93fdbca01ffc919aa182cfdae0147319
 NAME      : 2015.1.35
 ARCHNAME  : linux/x86_64
 FC        : /opt/intel/composer_xe_2015.1.133/bin/intel64/ifort
 BLASLIB   : -Wl,-_start-group /opt/intel/mkl/lib/intel64/libmkl_intel_ilp64.a /opt/intel/mkl/lib/intel64/libmkl_intel_thread.a /opt/intel/mkl/lib/intel64/libmkl_core.a -Wl,-_end-group
 id        : olemiss

 Nodes     nprocs
 cn065        1

 Using customized tuning parameters: mindgm=1; mindgv=20; mindgc=4; mindgr=1; noblas=0; minvec=7
 default implementation of scratch files=df  

 ***,hno CCSD(T)/TZ-F12 QFF
 memory, 995, m;
 gthresh,energy=1.d-12,zero=1.d-22,oneint=1.d-22,twoint=1.d-22;
 gthresh,optgrad=1.d-8,optstep=1.d-8;
 nocompress;
 geomtyp=xyz
 bohr
 geometry={
 3
         51        51
 H        0.0000000000        1.6650243097       -1.9213150022
 N        0.0000000000       -0.1638476599       -1.1418309818
 O        0.0000000000        0.0405911403        1.1125563930
 }
 
 basis=avtz
   {hf,maxit=500;accu,20;}
 {ccsd(t),nocheck,maxit=250;orbital,IGNORE_ERROR;}

 Variables initialized (889), CPU time= 0.00 sec
 Commands  initialized (702), CPU time= 0.01 sec, 572 directives.
 Default parameters read. Elapsed time= 0.06 sec

 Checking input...
 Passed
1


                                         ***  PROGRAM SYSTEM MOLPRO  ***
                                       Copyright, TTI GmbH Stuttgart, 2015
                                    Version 2015.1 linked Jul  9 2018 13:16:40


 **********************************************************************************************************************************
 LABEL *   hno CCSD(T)/TZ-F12 QFF                                                        
  64 bit serial version                                                                  DATE: 04-Mar-20          TIME: 13:46:18  
 **********************************************************************************************************************************

 SHA1:             d5ffa45e93fdbca01ffc919aa182cfdae0147319
 **********************************************************************************************************************************

 THRESHOLDS:

 ZERO    =  1.00D-22  ONEINT  =  1.00D-22  TWOINT  =  1.00D-22  PREFAC  =  1.00D-14  LOCALI  =  1.00D-09  EORDER  =  1.00D-04
 ENERGY  =  1.00D-12  ETEST   =  0.00D+00  EDENS   =  0.00D+00  THRDEDEF=  1.00D-06  GRADIENT=  1.00D-02  STEP    =  1.00D-03
 ORBITAL =  1.00D-05  CIVEC   =  1.00D-05  COEFF   =  1.00D-04  PRINTCI =  5.00D-02  PUNCHCI =  9.90D+01  OPTGRAD =  3.00D-04
 OPTENERG=  1.00D-06  OPTSTEP =  3.00D-04  THRGRAD =  1.00D-10  COMPRESS=  1.00D-11  VARMIN  =  1.00D-07  VARMAX  =  1.00D-03
 THRDOUB =  0.00D+00  THRDIV  =  1.00D-05  THRRED  =  1.00D-07  THRPSP  =  1.00D+00  THRDC   =  1.00D-10  THRCS   =  1.00D-10
 THRNRM  =  1.00D-08  THREQ   =  0.00D+00  THRDE   =  1.00D+00  THRREF  =  1.00D-05  SPARFAC =  1.00D+00  THRDLP  =  1.00D-07
 THRDIA  =  1.00D-10  THRDLS  =  1.00D-07  THRGPS  =  0.00D+00  THRKEX  =  0.00D+00  THRDIS  =  2.00D-01  THRVAR  =  1.00D-10
 THRLOC  =  1.00D-06  THRGAP  =  1.00D-06  THRLOCT = -1.00D+00  THRGAPT = -1.00D+00  THRORB  =  1.00D-06  THRMLTP =  0.00D+00
 THRCPQCI=  1.00D-10  KEXTA   =  0.00D+00  THRCOARS=  0.00D+00  SYMTOL  =  1.00D-06  GRADTOL =  1.00D-06  THROVL  =  1.00D-08
 THRORTH =  1.00D-08  GRID    =  1.00D-06  GRIDMAX =  1.00D-03  DTMAX   =  0.00D+00  THROCCDE=  1.00D-01  THROCCDE=  1.00D-01



 THRESHOLDS:

 ZERO    =  1.00D-22  ONEINT  =  1.00D-22  TWOINT  =  1.00D-22  PREFAC  =  1.00D-14  LOCALI  =  1.00D-09  EORDER  =  1.00D-04
 ENERGY  =  1.00D-12  ETEST   =  0.00D+00  EDENS   =  0.00D+00  THRDEDEF=  1.00D-06  GRADIENT=  1.00D-02  STEP    =  1.00D-03
 ORBITAL =  1.00D-05  CIVEC   =  1.00D-05  COEFF   =  1.00D-04  PRINTCI =  5.00D-02  PUNCHCI =  9.90D+01  OPTGRAD =  1.00D-08
 OPTENERG=  1.00D-06  OPTSTEP =  1.00D-08  THRGRAD =  1.00D-10  COMPRESS=  1.00D-11  VARMIN  =  1.00D-07  VARMAX  =  1.00D-03
 THRDOUB =  0.00D+00  THRDIV  =  1.00D-05  THRRED  =  1.00D-07  THRPSP  =  1.00D+00  THRDC   =  1.00D-10  THRCS   =  1.00D-10
 THRNRM  =  1.00D-08  THREQ   =  0.00D+00  THRDE   =  1.00D+00  THRREF  =  1.00D-05  SPARFAC =  1.00D+00  THRDLP  =  1.00D-07
 THRDIA  =  1.00D-10  THRDLS  =  1.00D-07  THRGPS  =  0.00D+00  THRKEX  =  0.00D+00  THRDIS  =  2.00D-01  THRVAR  =  1.00D-10
 THRLOC  =  1.00D-06  THRGAP  =  1.00D-06  THRLOCT = -1.00D+00  THRGAPT = -1.00D+00  THRORB  =  1.00D-06  THRMLTP =  0.00D+00
 THRCPQCI=  1.00D-10  KEXTA   =  0.00D+00  THRCOARS=  0.00D+00  SYMTOL  =  1.00D-06  GRADTOL =  1.00D-06  THROVL  =  1.00D-08
 THRORTH =  1.00D-08  GRID    =  1.00D-06  GRIDMAX =  1.00D-03  DTMAX   =  0.00D+00  THROCCDE=  1.00D-01  THROCCDE=  1.00D-01



 Input parameters for SORTINT:

 COMPRESS =    0.000000
 C_FINAL  =    1.000000
 DEBUG    =   -1.000000
 C_SORT1  =    0.000000
 C_SEWARD =    0.000000
 THRESH   =    0.000000
 IO       =  molpro                                                          
 SPRI     =    0.000000
 SETTING GEOMTYP        =    XYZ
 ZUNIT=BOHR
 

 Variable memory set to  995000000 words,  buffer space   230000 words

 SETTING BASIS          =    AVTZ


 Recomputing integrals since basis changed


 Using spherical harmonics

 Library entry H      S aug-cc-pVTZ          selected for orbital group  1
 Library entry H      P aug-cc-pVTZ          selected for orbital group  1
 Library entry H      D aug-cc-pVTZ          selected for orbital group  1
 Library entry N      S aug-cc-pVTZ          selected for orbital group  2
 Library entry N      P aug-cc-pVTZ          selected for orbital group  2
 Library entry N      D aug-cc-pVTZ          selected for orbital group  2
 Library entry N      F aug-cc-pVTZ          selected for orbital group  2
 Library entry O      S aug-cc-pVTZ          selected for orbital group  3
 Library entry O      P aug-cc-pVTZ          selected for orbital group  3
 Library entry O      D aug-cc-pVTZ          selected for orbital group  3
 Library entry O      F aug-cc-pVTZ          selected for orbital group  3


 PROGRAM * SEWARD (Integral evaluation for generally contracted gaussian basis sets)     Author: Roland Lindh, 1990

 Geometry written to block  1 of record 700


 Point group  Cs  



 ATOMIC COORDINATES

 NR  ATOM    CHARGE       X              Y              Z

   1  H       1.00    0.000000000    1.665024310   -1.921315002
   2  N       7.00    0.000000000   -0.163847660   -1.141830982
   3  O       8.00    0.000000000    0.040591140    1.112556393

 Bond lengths in Bohr (Angstrom)

 1-2  1.988056342  2-3  2.263638147
     ( 1.052034110)     ( 1.197865721)

 Bond angles

  1-2-3  107.90251459

 NUCLEAR CHARGE:                   16
 NUMBER OF PRIMITIVE AOS:         161
 NUMBER OF SYMMETRY AOS:          141
 NUMBER OF CONTRACTIONS:          115   (  76A'  +  39A"  )
 NUMBER OF CORE ORBITALS:           2   (   2A'  +   0A"  )
 NUMBER OF VALENCE ORBITALS:        9   (   7A'  +   2A"  )


 NUCLEAR REPULSION ENERGY   30.58460601

 Eigenvalues of metric

         1 0.229E-03 0.496E-03 0.178E-02 0.209E-02 0.245E-02 0.343E-02 0.428E-02 0.510E-02
         2 0.384E-02 0.101E-01 0.257E-01 0.369E-01 0.510E-01 0.619E-01 0.802E-01 0.118E+00


 Contracted 2-electron integrals neglected if value below      1.0D-22

       10790064. INTEGRALS WRITTEN OUT IN    2635 BLOCKS ON RECORD 1290 OF FILE 1


 NUMBER OF SORTED TWO-ELECTRON INTEGRALS:   11433631.     BUFFER LENGTH:  32768
 NUMBER OF SEGMENTS:   1  SEGMENT LENGTH:   11433631      RECORD LENGTH: 524288

 Memory used in sort:      11.99 MW

 SORT1 READ    10790064. AND WROTE    10943632. INTEGRALS IN     32 RECORDS. CPU TIME:     0.33 SEC, REAL TIME:     0.42 SEC
 SORT2 READ    10943632. AND WROTE    11433631. INTEGRALS IN      1 RECORDS. CPU TIME:     0.23 SEC, REAL TIME:     0.30 SEC

 FILE SIZES:   FILE 1:   193.0 MBYTE,  FILE 4:   134.3 MBYTE,   TOTAL:    327.2 MBYTE

 OPERATOR DM      FOR CENTER  0  COORDINATES:    0.000000    0.000000    0.000000


 **********************************************************************************************************************************
 DATASETS  * FILE   NREC   LENGTH (MB)   RECORD NAMES
              1      19      111.05       500      610      700      900      950      970     1000      129      960     1100   
                                          VAR    BASINP    GEOM    SYMINP    ZMAT    AOBASIS   BASIS     P2S    ABASIS      S 
                                         1400     1410     1200     1210     1080     1600     1650     1300     1700   
                                           T        V       H0       H01     AOSYM     SMH    MOLCAS    ERIS     OPER   

 PROGRAMS   *        TOTAL       INT
 CPU TIMES  *         1.78      1.69
 REAL TIME  *         2.80 SEC
 DISK USED  *       327.55 MB      
 **********************************************************************************************************************************


 PROGRAM * RHF-SCF (CLOSED SHELL)       Authors: W. Meyer, H.-J. Werner


 NUMBER OF ELECTRONS:       8+    8-
 CONVERGENCE THRESHOLDS:    1.00E-10 (Density)    1.00E-13 (Energy)
 MAX. NUMBER OF ITERATIONS:      500
 INTERPOLATION TYPE:            DIIS
 INTERPOLATION STEPS:              2 (START)      1 (STEP)
 LEVEL SHIFTS:                  0.00 (CLOSED)  0.00 (OPEN) 



 Orbital guess generated from atomic densities. Full valence occupancy:    9   2

 Molecular orbital dump at record        2100.2

 Initial occupancy:   7   1

 ITERATION    DDIFF          GRAD             ENERGY        2-EL.EN.            DIPOLE MOMENTS         DIIS   ORB.
    1      0.000D+00      0.000D+00      -129.79099124    154.282730    0.00000    0.58491   -0.98779    0    start
    2      0.000D+00      0.106D-01      -129.81873215    155.569946    0.00000    0.60455   -0.21274    1    diag
    3      0.117D-01      0.795D-02      -129.83977100    155.658997    0.00000    0.55138   -0.57621    2    diag
    4      0.576D-02      0.126D-02      -129.84053960    155.378764    0.00000    0.55922   -0.51806    3    diag
    5      0.106D-02      0.415D-03      -129.84066137    155.471731    0.00000    0.56478   -0.52103    4    diag
    6      0.442D-03      0.120D-03      -129.84068074    155.456310    0.00000    0.56520   -0.51714    5    diag
    7      0.169D-03      0.587D-04      -129.84068616    155.458915    0.00000    0.56648   -0.51472    6    diag
    8      0.116D-03      0.193D-04      -129.84068670    155.458293    0.00000    0.56650   -0.51381    7    diag
    9      0.411D-04      0.362D-05      -129.84068672    155.458193    0.00000    0.56647   -0.51361    8    diag
   10      0.775D-05      0.841D-06      -129.84068672    155.458175    0.00000    0.56644   -0.51358    9    orth
   11      0.165D-05      0.170D-06      -129.84068672    155.458172    0.00000    0.56643   -0.51358    9    diag
   12      0.328D-06      0.347D-07      -129.84068672    155.458171    0.00000    0.56643   -0.51357    9    diag
   13      0.713D-07      0.860D-08      -129.84068672    155.458171    0.00000    0.56643   -0.51357    9    diag
   14      0.182D-07      0.181D-08      -129.84068672    155.458171    0.00000    0.56643   -0.51357    9    diag
   15      0.372D-08      0.517D-09      -129.84068672    155.458171    0.00000    0.56643   -0.51357    9    diag
   16      0.101D-08      0.147D-09      -129.84068672    155.458171    0.00000    0.56643   -0.51357    9    diag
   17      0.192D-09      0.433D-10      -129.84068672    155.458171    0.00000    0.56643   -0.51357    9    diag
   18      0.558D-10      0.153D-10      -129.84068672    155.458171    0.00000    0.56643   -0.51357    0    orth

 Final occupancy:   7   1

 !RHF STATE 1.1 Energy               -129.840686722265
 Nuclear energy                        30.58460601
 One-electron energy                 -238.15437837
 Two-electron energy                   77.72908564
 Virial quotient                       -1.00183329
 !RHF STATE 1.1 Dipole moment           0.00000000     0.56642764    -0.51357349
 Dipole moment /Debye                   0.00000000     1.43962117    -1.30528811

 Orbital energies:

         1.1          2.1          3.1          4.1          5.1          6.1          7.1          8.1          9.1
    -20.655506   -15.712779    -1.539286    -0.992504    -0.750444    -0.668950    -0.427512     0.029349     0.092220

         1.2          2.2          3.2
     -0.601122     0.067709     0.130492

 HOMO      7.1    -0.427512 =     -11.6332eV
 LUMO      8.1     0.029349 =       0.7986eV
 LUMO-HOMO         0.456861 =      12.4318eV


 **********************************************************************************************************************************
 DATASETS  * FILE   NREC   LENGTH (MB)   RECORD NAMES
              1      19      111.05       500      610      700      900      950      970     1000      129      960     1100   
                                          VAR    BASINP    GEOM    SYMINP    ZMAT    AOBASIS   BASIS     P2S    ABASIS      S 
                                         1400     1410     1200     1210     1080     1600     1650     1300     1700   
                                           T        V       H0       H01     AOSYM     SMH    MOLCAS    ERIS     OPER   

              2       4        2.94       700     1000      520     2100   
                                         GEOM     BASIS   MCVARS     RHF  

 PROGRAMS   *        TOTAL        HF       INT
 CPU TIMES  *         3.01      1.23      1.69
 REAL TIME  *         4.42 SEC
 DISK USED  *       327.55 MB      
 **********************************************************************************************************************************


 PROGRAM * CCSD (Closed-shell coupled cluster)     Authors: C. Hampel, H.-J. Werner, 1991, M. Deegan, P.J. Knowles, 1992


 Convergence thresholds:  THRVAR = 1.00D-08  THRDEN = 1.00D-12

 CCSD(T)     terms to be evaluated (factor= 1.000)


 Number of core orbitals:           2 (   2   0 )
 Number of closed-shell orbitals:   6 (   5   1 )
 Number of external orbitals:     107 (  69  38 )

 Molecular orbitals read from record     2100.2  Type=RHF/CANONICAL (state 1.1)

 Number of N-1 electron functions:               6
 Number of N-2 electron functions:              21
 Number of singly external CSFs:               383
 Number of doubly external CSFs:            107206
 Total number of CSFs:                      107590

 Length of J-op  integral file:               0.00 MB
 Length of K-op  integral file:               0.54 MB
 Length of 3-ext integral record:             0.00 MB

 Memory could be reduced to 5.94 Mwords without degradation in triples

 Integral transformation finished. Total CPU:   0.23 sec, npass=  1  Memory used:   1.65 MW

 Reference energy:                   -129.84068672

 MP2 singlet pair energy:              -0.27838526
 MP2 triplet pair energy:              -0.16447954
 MP2 correlation energy:               -0.44286479
 MP2 total energy:                   -130.28355151

 SCS-MP2 correlation energy:           -0.43640513   (PS=  1.200000  PT=  0.333333)
 SCS-MP2 total energy:               -130.27709185

 ITER.      SQ.NORM     CORR.ENERGY   TOTAL ENERGY   ENERGY CHANGE        DEN1      VAR(S)    VAR(P)  DIIS     TIME  TIME/IT
   1      1.11984209    -0.44735928  -130.28804600    -0.00449449     0.01115129  0.30D-02  0.30D-02  1  1     0.45     0.25
   2      1.13071565    -0.44763278  -130.28831950    -0.00027349    -0.01219966  0.95D-04  0.50D-03  2  2     0.68     0.25
   3      1.13699160    -0.44801569  -130.28870242    -0.00038292    -0.00293438  0.51D-04  0.49D-04  3  3     0.91     0.26
   4      1.13975447    -0.44802668  -130.28871340    -0.00001099    -0.00094292  0.39D-05  0.88D-05  4  4     1.15     0.26
   5      1.14074226    -0.44805359  -130.28874032    -0.00002691    -0.00020963  0.11D-05  0.16D-05  5  5     1.39     0.26
   6      1.14106910    -0.44803791  -130.28872463     0.00001569    -0.00003966  0.97D-07  0.39D-06  6  6     1.63     0.26
   7      1.14114313    -0.44803890  -130.28872563    -0.00000100    -0.00000204  0.19D-07  0.89D-07  6  1     1.86     0.26
   8      1.14116436    -0.44803966  -130.28872638    -0.00000075     0.00000147  0.37D-08  0.15D-07  6  2     2.11     0.26
   9      1.14116955    -0.44803924  -130.28872597     0.00000041     0.00000040  0.26D-08  0.17D-08  6  4     2.34     0.26
  10      1.14117170    -0.44803970  -130.28872642    -0.00000046    -0.00000066  0.41D-09  0.19D-09  6  3     2.55     0.26
  11      1.14117118    -0.44803973  -130.28872645    -0.00000003    -0.00000005  0.14D-09  0.30D-10  6  5     2.80     0.26
  12      1.14117016    -0.44803987  -130.28872659    -0.00000014     0.00000032  0.17D-10  0.96D-11  6  6     3.03     0.26
  13      1.14116936    -0.44803990  -130.28872662    -0.00000003     0.00000020  0.58D-11  0.19D-11  6  1     3.28     0.26
  14      1.14116886    -0.44803993  -130.28872665    -0.00000003     0.00000013  0.94D-12  0.61D-12  6  2     3.51     0.26
  15      1.14116865    -0.44803993  -130.28872666    -0.00000001     0.00000003  0.26D-12  0.20D-12  6  4     3.75     0.26
  16      1.14116853    -0.44803994  -130.28872666    -0.00000000     0.00000001  0.34D-13  0.23D-13  6  5     3.99     0.26
  17      1.14116850    -0.44803994  -130.28872666    -0.00000000     0.00000000  0.63D-15  0.17D-14  6  3     4.22     0.26
  18      1.14116850    -0.44803994  -130.28872666     0.00000000    -0.00000000  0.21D-15  0.23D-15  6  6     4.47     0.26
  19      1.14116850    -0.44803994  -130.28872666     0.00000000    -0.00000000  0.62D-16  0.32D-16  6  1     4.72     0.26
  20      1.14116850    -0.44803994  -130.28872666     0.00000000    -0.00000000  0.17D-16  0.56D-17  6  2     4.95     0.26
  21      1.14116850    -0.44803994  -130.28872666     0.00000000    -0.00000000  0.28D-17  0.15D-17  6  5     5.19     0.26
  22      1.14116850    -0.44803994  -130.28872666    -0.00000000     0.00000000  0.29D-18  0.17D-18  6  4     5.43     0.26
  23      1.14116850    -0.44803994  -130.28872666     0.00000000     0.00000000  0.10D-18  0.35D-19  6  3     5.67     0.26
  24      1.14116850    -0.44803994  -130.28872666     0.00000000    -0.00000000  0.10D-19  0.48D-20  6  2     5.90     0.26
  25      1.14116850    -0.44803994  -130.28872666     0.00000000    -0.00000000  0.18D-20  0.78D-21  6  6     6.13     0.26
  26      1.14116850    -0.44803994  -130.28872666     0.00000000    -0.00000000  0.41D-21  0.19D-21  6  1     6.36     0.26

 Norm of t1 vector:      0.07674100      S-energy:     0.00000000      T1 diagnostic:  0.01566469
                                                                       D1 diagnostic:  0.04073083

 Doubles amplitudes (print threshold =  0.500E-01):

         I         J         SYM. A    SYM. B    A         B      T(IJ, AB)

         6         6         2         2         1         1     -0.10438033


 Total CPU time for triples:      2.06 sec


 RESULTS
 =======

  Reference energy                   -129.840686722265
  CCSD singlet pair energy             -0.306964226524
  CCSD triplet pair energy             -0.141075711752
  CCSD correlation energy              -0.448039938274

  Triples (T) contribution             -0.020599895550
  Total correlation energy             -0.468639833825

  CCSD total energy                  -130.288726660540
  CCSD[T] energy                     -130.310348987847
  CCSD-T energy                      -130.308932824537
 !CCSD(T) total energy               -130.309326556090

 Timing summary (sec):

 STEP                 CPU(USER)    SYS     CPU(TOT)    WALL
 Transformation          0.23      0.04      0.27      0.27
 CCSD iterations         6.13      0.77      6.90      6.91
 Triples                 2.06      0.05      2.11      2.10

 Program statistics:

 Available memory in ccsd:               994999756
 Min. memory needed in ccsd:                389120
 Max. memory used in ccsd:                  473124
 Max. memory used in cckext:                599488 (26 integral passes)



 **********************************************************************************************************************************
 DATASETS  * FILE   NREC   LENGTH (MB)   RECORD NAMES
              1      20      128.20       500      610      700      900      950      970     1000      129      960     1100   
                                          VAR    BASINP    GEOM    SYMINP    ZMAT    AOBASIS   BASIS     P2S    ABASIS      S 
                                         1400     1410     1200     1210     1080     1600     1650     1300     1700     1380   
                                           T        V       H0       H01     AOSYM     SMH    MOLCAS    ERIS     OPER     JKOP   

              2       4        2.94       700     1000      520     2100   
                                         GEOM     BASIS   MCVARS     RHF  

 PROGRAMS   *        TOTAL   CCSD(T)        HF       INT
 CPU TIMES  *        11.45      8.44      1.23      1.69
 REAL TIME  *        13.74 SEC
 DISK USED  *       327.55 MB      
 **********************************************************************************************************************************

 CCSD(T)/aug-cc-pVTZ energy=   -130.309326556090

        CCSD(T)         HF-SCF  
   -130.30932656   -129.84068672
 **********************************************************************************************************************************
 Molpro calculation terminated
 Variable memory released
