
 Primary working directories    : /tmp/r2666/282169.maple
 Secondary working directories  : /tmp/r2666/282169.maple
 Wavefunction directory         : /ddn/home4/r2666/wfu/
 Main file repository           : /tmp/r2666/282169.maple/

 SHA1      : d5ffa45e93fdbca01ffc919aa182cfdae0147319
 NAME      : 2015.1.35
 ARCHNAME  : linux/x86_64
 FC        : /opt/intel/composer_xe_2015.1.133/bin/intel64/ifort
 BLASLIB   : -Wl,-_start-group /opt/intel/mkl/lib/intel64/libmkl_intel_ilp64.a /opt/intel/mkl/lib/intel64/libmkl_intel_thread.a /opt/intel/mkl/lib/intel64/libmkl_core.a -Wl,-_end-group
 id        : olemiss

 Nodes     nprocs
 cn083        1

 Using customized tuning parameters: mindgm=1; mindgv=20; mindgc=4; mindgr=1; noblas=0; minvec=7
 default implementation of scratch files=df  

 ***,hno CCSD(T)/TZ-F12 QFF
 memory, 995, m;
 gthresh,energy=1.d-12,zero=1.d-22,oneint=1.d-22,twoint=1.d-22;
 gthresh,optgrad=1.d-8,optstep=1.d-8;
 nocompress;
 geomtyp=xyz
 bohr
 geometry={
 3
         66        66
 H        0.0000000000        1.6670587455       -1.9327302875
 N        0.0000000000       -0.1587690386       -1.1461421347
 O        0.0000000000        0.0334780830        1.1282828312
 }
 
 basis=avtz
   {hf,maxit=500;accu,20;}
 {ccsd(t),nocheck,maxit=250;orbital,IGNORE_ERROR;}

 Variables initialized (889), CPU time= 0.01 sec
 Commands  initialized (702), CPU time= 0.01 sec, 572 directives.
 Default parameters read. Elapsed time= 0.05 sec

 Checking input...
 Passed
1


                                         ***  PROGRAM SYSTEM MOLPRO  ***
                                       Copyright, TTI GmbH Stuttgart, 2015
                                    Version 2015.1 linked Jul  9 2018 13:16:40


 **********************************************************************************************************************************
 LABEL *   hno CCSD(T)/TZ-F12 QFF                                                        
  64 bit serial version                                                                  DATE: 04-Mar-20          TIME: 13:46:27  
 **********************************************************************************************************************************

 SHA1:             d5ffa45e93fdbca01ffc919aa182cfdae0147319
 **********************************************************************************************************************************

 THRESHOLDS:

 ZERO    =  1.00D-22  ONEINT  =  1.00D-22  TWOINT  =  1.00D-22  PREFAC  =  1.00D-14  LOCALI  =  1.00D-09  EORDER  =  1.00D-04
 ENERGY  =  1.00D-12  ETEST   =  0.00D+00  EDENS   =  0.00D+00  THRDEDEF=  1.00D-06  GRADIENT=  1.00D-02  STEP    =  1.00D-03
 ORBITAL =  1.00D-05  CIVEC   =  1.00D-05  COEFF   =  1.00D-04  PRINTCI =  5.00D-02  PUNCHCI =  9.90D+01  OPTGRAD =  3.00D-04
 OPTENERG=  1.00D-06  OPTSTEP =  3.00D-04  THRGRAD =  1.00D-10  COMPRESS=  1.00D-11  VARMIN  =  1.00D-07  VARMAX  =  1.00D-03
 THRDOUB =  0.00D+00  THRDIV  =  1.00D-05  THRRED  =  1.00D-07  THRPSP  =  1.00D+00  THRDC   =  1.00D-10  THRCS   =  1.00D-10
 THRNRM  =  1.00D-08  THREQ   =  0.00D+00  THRDE   =  1.00D+00  THRREF  =  1.00D-05  SPARFAC =  1.00D+00  THRDLP  =  1.00D-07
 THRDIA  =  1.00D-10  THRDLS  =  1.00D-07  THRGPS  =  0.00D+00  THRKEX  =  0.00D+00  THRDIS  =  2.00D-01  THRVAR  =  1.00D-10
 THRLOC  =  1.00D-06  THRGAP  =  1.00D-06  THRLOCT = -1.00D+00  THRGAPT = -1.00D+00  THRORB  =  1.00D-06  THRMLTP =  0.00D+00
 THRCPQCI=  1.00D-10  KEXTA   =  0.00D+00  THRCOARS=  0.00D+00  SYMTOL  =  1.00D-06  GRADTOL =  1.00D-06  THROVL  =  1.00D-08
 THRORTH =  1.00D-08  GRID    =  1.00D-06  GRIDMAX =  1.00D-03  DTMAX   =  0.00D+00  THROCCDE=  1.00D-01  THROCCDE=  1.00D-01



 THRESHOLDS:

 ZERO    =  1.00D-22  ONEINT  =  1.00D-22  TWOINT  =  1.00D-22  PREFAC  =  1.00D-14  LOCALI  =  1.00D-09  EORDER  =  1.00D-04
 ENERGY  =  1.00D-12  ETEST   =  0.00D+00  EDENS   =  0.00D+00  THRDEDEF=  1.00D-06  GRADIENT=  1.00D-02  STEP    =  1.00D-03
 ORBITAL =  1.00D-05  CIVEC   =  1.00D-05  COEFF   =  1.00D-04  PRINTCI =  5.00D-02  PUNCHCI =  9.90D+01  OPTGRAD =  1.00D-08
 OPTENERG=  1.00D-06  OPTSTEP =  1.00D-08  THRGRAD =  1.00D-10  COMPRESS=  1.00D-11  VARMIN  =  1.00D-07  VARMAX  =  1.00D-03
 THRDOUB =  0.00D+00  THRDIV  =  1.00D-05  THRRED  =  1.00D-07  THRPSP  =  1.00D+00  THRDC   =  1.00D-10  THRCS   =  1.00D-10
 THRNRM  =  1.00D-08  THREQ   =  0.00D+00  THRDE   =  1.00D+00  THRREF  =  1.00D-05  SPARFAC =  1.00D+00  THRDLP  =  1.00D-07
 THRDIA  =  1.00D-10  THRDLS  =  1.00D-07  THRGPS  =  0.00D+00  THRKEX  =  0.00D+00  THRDIS  =  2.00D-01  THRVAR  =  1.00D-10
 THRLOC  =  1.00D-06  THRGAP  =  1.00D-06  THRLOCT = -1.00D+00  THRGAPT = -1.00D+00  THRORB  =  1.00D-06  THRMLTP =  0.00D+00
 THRCPQCI=  1.00D-10  KEXTA   =  0.00D+00  THRCOARS=  0.00D+00  SYMTOL  =  1.00D-06  GRADTOL =  1.00D-06  THROVL  =  1.00D-08
 THRORTH =  1.00D-08  GRID    =  1.00D-06  GRIDMAX =  1.00D-03  DTMAX   =  0.00D+00  THROCCDE=  1.00D-01  THROCCDE=  1.00D-01



 Input parameters for SORTINT:

 COMPRESS =    0.000000
 C_FINAL  =    1.000000
 DEBUG    =   -1.000000
 C_SORT1  =    0.000000
 C_SEWARD =    0.000000
 THRESH   =    0.000000
 IO       =  molpro                                                          
 SPRI     =    0.000000
 SETTING GEOMTYP        =    XYZ
 ZUNIT=BOHR
 

 Variable memory set to  995000000 words,  buffer space   230000 words

 SETTING BASIS          =    AVTZ


 Recomputing integrals since basis changed


 Using spherical harmonics

 Library entry H      S aug-cc-pVTZ          selected for orbital group  1
 Library entry H      P aug-cc-pVTZ          selected for orbital group  1
 Library entry H      D aug-cc-pVTZ          selected for orbital group  1
 Library entry N      S aug-cc-pVTZ          selected for orbital group  2
 Library entry N      P aug-cc-pVTZ          selected for orbital group  2
 Library entry N      D aug-cc-pVTZ          selected for orbital group  2
 Library entry N      F aug-cc-pVTZ          selected for orbital group  2
 Library entry O      S aug-cc-pVTZ          selected for orbital group  3
 Library entry O      P aug-cc-pVTZ          selected for orbital group  3
 Library entry O      D aug-cc-pVTZ          selected for orbital group  3
 Library entry O      F aug-cc-pVTZ          selected for orbital group  3


 PROGRAM * SEWARD (Integral evaluation for generally contracted gaussian basis sets)     Author: Roland Lindh, 1990

 Geometry written to block  1 of record 700


 Point group  Cs  



 ATOMIC COORDINATES

 NR  ATOM    CHARGE       X              Y              Z

   1  H       1.00    0.000000000    1.667058746   -1.932730288
   2  N       7.00    0.000000000   -0.158769039   -1.146142135
   3  O       8.00    0.000000000    0.033478083    1.128282831

 Bond lengths in Bohr (Angstrom)

 1-2  1.988056342  2-3  2.282535406
     ( 1.052034110)     ( 1.207865720)

 Bond angles

  1-2-3  108.47547239

 NUCLEAR CHARGE:                   16
 NUMBER OF PRIMITIVE AOS:         161
 NUMBER OF SYMMETRY AOS:          141
 NUMBER OF CONTRACTIONS:          115   (  76A'  +  39A"  )
 NUMBER OF CORE ORBITALS:           2   (   2A'  +   0A"  )
 NUMBER OF VALENCE ORBITALS:        9   (   7A'  +   2A"  )


 NUCLEAR REPULSION ENERGY   30.36086415

 Eigenvalues of metric

         1 0.232E-03 0.498E-03 0.181E-02 0.213E-02 0.253E-02 0.358E-02 0.431E-02 0.514E-02
         2 0.395E-02 0.101E-01 0.262E-01 0.370E-01 0.511E-01 0.622E-01 0.815E-01 0.120E+00


 Contracted 2-electron integrals neglected if value below      1.0D-22

       10790064. INTEGRALS WRITTEN OUT IN    2635 BLOCKS ON RECORD 1290 OF FILE 1


 NUMBER OF SORTED TWO-ELECTRON INTEGRALS:   11433631.     BUFFER LENGTH:  32768
 NUMBER OF SEGMENTS:   1  SEGMENT LENGTH:   11433631      RECORD LENGTH: 524288

 Memory used in sort:      11.99 MW

 SORT1 READ    10790064. AND WROTE    10943632. INTEGRALS IN     32 RECORDS. CPU TIME:     0.17 SEC, REAL TIME:     0.23 SEC
 SORT2 READ    10943632. AND WROTE    11433631. INTEGRALS IN      1 RECORDS. CPU TIME:     0.16 SEC, REAL TIME:     0.23 SEC

 FILE SIZES:   FILE 1:   193.0 MBYTE,  FILE 4:   134.3 MBYTE,   TOTAL:    327.2 MBYTE

 OPERATOR DM      FOR CENTER  0  COORDINATES:    0.000000    0.000000    0.000000


 **********************************************************************************************************************************
 DATASETS  * FILE   NREC   LENGTH (MB)   RECORD NAMES
              1      19      111.05       500      610      700      900      950      970     1000      129      960     1100   
                                          VAR    BASINP    GEOM    SYMINP    ZMAT    AOBASIS   BASIS     P2S    ABASIS      S 
                                         1400     1410     1200     1210     1080     1600     1650     1300     1700   
                                           T        V       H0       H01     AOSYM     SMH    MOLCAS    ERIS     OPER   

 PROGRAMS   *        TOTAL       INT
 CPU TIMES  *         1.32      1.22
 REAL TIME  *         2.06 SEC
 DISK USED  *       327.55 MB      
 **********************************************************************************************************************************


 PROGRAM * RHF-SCF (CLOSED SHELL)       Authors: W. Meyer, H.-J. Werner


 NUMBER OF ELECTRONS:       8+    8-
 CONVERGENCE THRESHOLDS:    1.00E-10 (Density)    1.00E-13 (Energy)
 MAX. NUMBER OF ITERATIONS:      500
 INTERPOLATION TYPE:            DIIS
 INTERPOLATION STEPS:              2 (START)      1 (STEP)
 LEVEL SHIFTS:                  0.00 (CLOSED)  0.00 (OPEN) 



 Orbital guess generated from atomic densities. Full valence occupancy:    9   2

 Molecular orbital dump at record        2100.2

 Initial occupancy:   7   1

 ITERATION    DDIFF          GRAD             ENERGY        2-EL.EN.            DIPOLE MOMENTS         DIIS   ORB.
    1      0.000D+00      0.000D+00      -129.78842494    153.879726    0.00000    0.59445   -1.02133    0    start
    2      0.000D+00      0.107D-01      -129.81588806    155.150316    0.00000    0.61059   -0.21115    1    diag
    3      0.119D-01      0.821D-02      -129.83846648    155.261205    0.00000    0.55834   -0.59362    2    diag
    4      0.592D-02      0.128D-02      -129.83925839    154.972743    0.00000    0.56565   -0.53365    3    diag
    5      0.107D-02      0.421D-03      -129.83938408    155.066794    0.00000    0.57126   -0.53649    4    diag
    6      0.449D-03      0.121D-03      -129.83940410    155.051240    0.00000    0.57165   -0.53241    5    diag
    7      0.172D-03      0.601D-04      -129.83940985    155.053748    0.00000    0.57290   -0.52986    6    diag
    8      0.118D-03      0.204D-04      -129.83941046    155.053097    0.00000    0.57292   -0.52886    7    diag
    9      0.443D-04      0.387D-05      -129.83941049    155.052989    0.00000    0.57289   -0.52865    8    diag
   10      0.854D-05      0.886D-06      -129.83941049    155.052969    0.00000    0.57285   -0.52862    9    orth
   11      0.174D-05      0.176D-06      -129.83941049    155.052966    0.00000    0.57285   -0.52862    9    diag
   12      0.336D-06      0.361D-07      -129.83941049    155.052966    0.00000    0.57284   -0.52862    9    diag
   13      0.721D-07      0.911D-08      -129.83941049    155.052966    0.00000    0.57284   -0.52862    9    diag
   14      0.188D-07      0.188D-08      -129.83941049    155.052966    0.00000    0.57284   -0.52862    9    diag
   15      0.373D-08      0.525D-09      -129.83941049    155.052966    0.00000    0.57284   -0.52862    9    diag
   16      0.102D-08      0.143D-09      -129.83941049    155.052966    0.00000    0.57284   -0.52862    9    diag
   17      0.179D-09      0.401D-10      -129.83941049    155.052966    0.00000    0.57284   -0.52862    9    diag
   18      0.493D-10      0.143D-10      -129.83941049    155.052966    0.00000    0.57284   -0.52862    0    orth

 Final occupancy:   7   1

 !RHF STATE 1.1 Energy               -129.839410490595
 Nuclear energy                        30.36086415
 One-electron energy                 -237.72675763
 Two-electron energy                   77.52648298
 Virial quotient                       -1.00216212
 !RHF STATE 1.1 Dipole moment           0.00000000     0.57284273    -0.52861665
 Dipole moment /Debye                   0.00000000     1.45592564    -1.34352152

 Orbital energies:

         1.1          2.1          3.1          4.1          5.1          6.1          7.1          8.1          9.1
    -20.656625   -15.714399    -1.530709    -0.995196    -0.747322    -0.666180    -0.430229     0.029158     0.092153

         1.2          2.2          3.2
     -0.596236     0.064859     0.130190

 HOMO      7.1    -0.430229 =     -11.7071eV
 LUMO      8.1     0.029158 =       0.7934eV
 LUMO-HOMO         0.459387 =      12.5006eV


 **********************************************************************************************************************************
 DATASETS  * FILE   NREC   LENGTH (MB)   RECORD NAMES
              1      19      111.05       500      610      700      900      950      970     1000      129      960     1100   
                                          VAR    BASINP    GEOM    SYMINP    ZMAT    AOBASIS   BASIS     P2S    ABASIS      S 
                                         1400     1410     1200     1210     1080     1600     1650     1300     1700   
                                           T        V       H0       H01     AOSYM     SMH    MOLCAS    ERIS     OPER   

              2       4        2.94       700     1000      520     2100   
                                         GEOM     BASIS   MCVARS     RHF  

 PROGRAMS   *        TOTAL        HF       INT
 CPU TIMES  *         2.33      1.01      1.22
 REAL TIME  *         3.27 SEC
 DISK USED  *       327.55 MB      
 **********************************************************************************************************************************


 PROGRAM * CCSD (Closed-shell coupled cluster)     Authors: C. Hampel, H.-J. Werner, 1991, M. Deegan, P.J. Knowles, 1992


 Convergence thresholds:  THRVAR = 1.00D-08  THRDEN = 1.00D-12

 CCSD(T)     terms to be evaluated (factor= 1.000)


 Number of core orbitals:           2 (   2   0 )
 Number of closed-shell orbitals:   6 (   5   1 )
 Number of external orbitals:     107 (  69  38 )

 Molecular orbitals read from record     2100.2  Type=RHF/CANONICAL (state 1.1)

 Number of N-1 electron functions:               6
 Number of N-2 electron functions:              21
 Number of singly external CSFs:               383
 Number of doubly external CSFs:            107206
 Total number of CSFs:                      107590

 Length of J-op  integral file:               0.00 MB
 Length of K-op  integral file:               0.54 MB
 Length of 3-ext integral record:             0.00 MB

 Memory could be reduced to 5.94 Mwords without degradation in triples

 Integral transformation finished. Total CPU:   0.13 sec, npass=  1  Memory used:   1.65 MW

 Reference energy:                   -129.83941049

 MP2 singlet pair energy:              -0.27943136
 MP2 triplet pair energy:              -0.16517881
 MP2 correlation energy:               -0.44461017
 MP2 total energy:                   -130.28402066

 SCS-MP2 correlation energy:           -0.43809556   (PS=  1.200000  PT=  0.333333)
 SCS-MP2 total energy:               -130.27750605

 ITER.      SQ.NORM     CORR.ENERGY   TOTAL ENERGY   ENERGY CHANGE        DEN1      VAR(S)    VAR(P)  DIIS     TIME  TIME/IT
   1      1.12094614    -0.44872370  -130.28813419    -0.00411353     0.01195513  0.31D-02  0.31D-02  1  1     0.27     0.16
   2      1.13207305    -0.44892021  -130.28833070    -0.00019652    -0.01244560  0.10D-03  0.51D-03  2  2     0.42     0.17
   3      1.13857159    -0.44932128  -130.28873177    -0.00040107    -0.00300313  0.54D-04  0.51D-04  3  3     0.57     0.17
   4      1.14146314    -0.44933248  -130.28874297    -0.00001120    -0.00097735  0.42D-05  0.93D-05  4  4     0.72     0.17
   5      1.14251907    -0.44936133  -130.28877182    -0.00002886    -0.00022343  0.11D-05  0.16D-05  5  5     0.88     0.17
   6      1.14286378    -0.44934435  -130.28875484     0.00001699    -0.00004203  0.10D-06  0.40D-06  6  6     1.04     0.17
   7      1.14293912    -0.44934550  -130.28875599    -0.00000116    -0.00000180  0.19D-07  0.93D-07  6  1     1.20     0.17
   8      1.14296084    -0.44934620  -130.28875669    -0.00000070     0.00000148  0.37D-08  0.17D-07  6  2     1.35     0.17
   9      1.14296627    -0.44934575  -130.28875624     0.00000045     0.00000047  0.28D-08  0.19D-08  6  4     1.51     0.17
  10      1.14296861    -0.44934623  -130.28875672    -0.00000048    -0.00000072  0.46D-09  0.22D-09  6  3     1.67     0.17
  11      1.14296811    -0.44934626  -130.28875675    -0.00000002    -0.00000007  0.16D-09  0.34D-10  6  5     1.83     0.17
  12      1.14296704    -0.44934641  -130.28875690    -0.00000015     0.00000034  0.18D-10  0.11D-10  6  6     2.00     0.17
  13      1.14296617    -0.44934645  -130.28875694    -0.00000004     0.00000022  0.64D-11  0.22D-11  6  1     2.14     0.17
  14      1.14296562    -0.44934647  -130.28875697    -0.00000003     0.00000014  0.10D-11  0.71D-12  6  2     2.29     0.17
  15      1.14296539    -0.44934648  -130.28875697    -0.00000001     0.00000003  0.28D-12  0.22D-12  6  4     2.44     0.17
  16      1.14296529    -0.44934648  -130.28875698    -0.00000000     0.00000001  0.52D-13  0.80D-13  6  3     2.59     0.17
  17      1.14296523    -0.44934649  -130.28875698    -0.00000000     0.00000001  0.39D-14  0.19D-13  6  5     2.76     0.17
  18      1.14296523    -0.44934649  -130.28875698     0.00000000    -0.00000000  0.14D-14  0.40D-14  6  6     2.92     0.17
  19      1.14296522    -0.44934649  -130.28875698    -0.00000000     0.00000000  0.11D-14  0.71D-15  6  1     3.08     0.17
  20      1.14296522    -0.44934649  -130.28875698     0.00000000    -0.00000000  0.24D-15  0.13D-15  6  2     3.25     0.18
  21      1.14296523    -0.44934649  -130.28875698     0.00000000    -0.00000000  0.57D-16  0.32D-16  6  3     3.41     0.18
  22      1.14296523    -0.44934649  -130.28875698     0.00000000     0.00000000  0.64D-17  0.28D-17  6  4     3.58     0.18
  23      1.14296523    -0.44934649  -130.28875698     0.00000000    -0.00000000  0.23D-17  0.59D-18  6  5     3.72     0.18
  24      1.14296523    -0.44934649  -130.28875698     0.00000000     0.00000000  0.16D-18  0.51D-19  6  2     3.86     0.18
  25      1.14296523    -0.44934649  -130.28875698    -0.00000000    -0.00000000  0.24D-19  0.13D-19  6  6     4.02     0.17
  26      1.14296523    -0.44934649  -130.28875698     0.00000000    -0.00000000  0.37D-20  0.22D-20  6  1     4.18     0.17
  27      1.14296523    -0.44934649  -130.28875698    -0.00000000    -0.00000000  0.50D-21  0.53D-21  6  4     4.34     0.17

 Norm of t1 vector:      0.07850975      S-energy:     0.00000000      T1 diagnostic:  0.01602574
                                                                       D1 diagnostic:  0.04210571

 Doubles amplitudes (print threshold =  0.500E-01):

         I         J         SYM. A    SYM. B    A         B      T(IJ, AB)

         6         6         2         2         1         1     -0.10888962


 Total CPU time for triples:      1.30 sec


 RESULTS
 =======

  Reference energy                   -129.839410490594
  CCSD singlet pair energy             -0.308089412289
  CCSD triplet pair energy             -0.141257074990
  CCSD correlation energy              -0.449346487277

  Triples (T) contribution             -0.020913518552
  Total correlation energy             -0.470260005829

  CCSD total energy                  -130.288756977871
  CCSD[T] energy                     -130.310738458966
  CCSD-T energy                      -130.309265726484
 !CCSD(T) total energy               -130.309670496423

 Timing summary (sec):

 STEP                 CPU(USER)    SYS     CPU(TOT)    WALL
 Transformation          0.14      0.05      0.19      0.19
 CCSD iterations         4.20      0.53      4.73      4.74
 Triples                 1.30      0.02      1.32      1.32

 Program statistics:

 Available memory in ccsd:               994999756
 Min. memory needed in ccsd:                389120
 Max. memory used in ccsd:                  473124
 Max. memory used in cckext:                599488 (27 integral passes)



 **********************************************************************************************************************************
 DATASETS  * FILE   NREC   LENGTH (MB)   RECORD NAMES
              1      20      128.20       500      610      700      900      950      970     1000      129      960     1100   
                                          VAR    BASINP    GEOM    SYMINP    ZMAT    AOBASIS   BASIS     P2S    ABASIS      S 
                                         1400     1410     1200     1210     1080     1600     1650     1300     1700     1380   
                                           T        V       H0       H01     AOSYM     SMH    MOLCAS    ERIS     OPER     JKOP   

              2       4        2.94       700     1000      520     2100   
                                         GEOM     BASIS   MCVARS     RHF  

 PROGRAMS   *        TOTAL   CCSD(T)        HF       INT
 CPU TIMES  *         8.00      5.66      1.01      1.22
 REAL TIME  *         9.57 SEC
 DISK USED  *       327.55 MB      
 **********************************************************************************************************************************

 CCSD(T)/aug-cc-pVTZ energy=   -130.309670496423

        CCSD(T)         HF-SCF  
   -130.30967050   -129.83941049
 **********************************************************************************************************************************
 Molpro calculation terminated
 Variable memory released
