
 Primary working directories    : /tmp/r2666/282116.maple
 Secondary working directories  : /tmp/r2666/282116.maple
 Wavefunction directory         : /ddn/home4/r2666/wfu/
 Main file repository           : /tmp/r2666/282116.maple/

 SHA1      : d5ffa45e93fdbca01ffc919aa182cfdae0147319
 NAME      : 2015.1.35
 ARCHNAME  : linux/x86_64
 FC        : /opt/intel/composer_xe_2015.1.133/bin/intel64/ifort
 BLASLIB   : -Wl,-_start-group /opt/intel/mkl/lib/intel64/libmkl_intel_ilp64.a /opt/intel/mkl/lib/intel64/libmkl_intel_thread.a /opt/intel/mkl/lib/intel64/libmkl_core.a -Wl,-_end-group
 id        : olemiss

 Nodes     nprocs
 cn083        1

 Using customized tuning parameters: mindgm=1; mindgv=20; mindgc=4; mindgr=1; noblas=0; minvec=7
 default implementation of scratch files=df  

 ***,hno CCSD(T)/TZ-F12 QFF
 memory, 995, m;
 gthresh,energy=1.d-12,zero=1.d-22,oneint=1.d-22,twoint=1.d-22;
 gthresh,optgrad=1.d-8,optstep=1.d-8;
 nocompress;
 geomtyp=xyz
 bohr
 geometry={
 3
         13        13
 H        0.0000000000        1.6575223299       -1.9184656207
 N        0.0000000000       -0.1567832567       -1.1530358530
 O        0.0000000000        0.0410287168        1.1209118827
 }
 
 basis=avtz
   {hf,maxit=500;accu,20;}
 {ccsd(t),nocheck,maxit=250;orbital,IGNORE_ERROR;}

 Variables initialized (889), CPU time= 0.00 sec
 Commands  initialized (702), CPU time= 0.01 sec, 572 directives.
 Default parameters read. Elapsed time= 0.05 sec

 Checking input...
 Passed
1


                                         ***  PROGRAM SYSTEM MOLPRO  ***
                                       Copyright, TTI GmbH Stuttgart, 2015
                                    Version 2015.1 linked Jul  9 2018 13:16:40


 **********************************************************************************************************************************
 LABEL *   hno CCSD(T)/TZ-F12 QFF                                                        
  64 bit serial version                                                                  DATE: 04-Mar-20          TIME: 13:45:51  
 **********************************************************************************************************************************

 SHA1:             d5ffa45e93fdbca01ffc919aa182cfdae0147319
 **********************************************************************************************************************************

 THRESHOLDS:

 ZERO    =  1.00D-22  ONEINT  =  1.00D-22  TWOINT  =  1.00D-22  PREFAC  =  1.00D-14  LOCALI  =  1.00D-09  EORDER  =  1.00D-04
 ENERGY  =  1.00D-12  ETEST   =  0.00D+00  EDENS   =  0.00D+00  THRDEDEF=  1.00D-06  GRADIENT=  1.00D-02  STEP    =  1.00D-03
 ORBITAL =  1.00D-05  CIVEC   =  1.00D-05  COEFF   =  1.00D-04  PRINTCI =  5.00D-02  PUNCHCI =  9.90D+01  OPTGRAD =  3.00D-04
 OPTENERG=  1.00D-06  OPTSTEP =  3.00D-04  THRGRAD =  1.00D-10  COMPRESS=  1.00D-11  VARMIN  =  1.00D-07  VARMAX  =  1.00D-03
 THRDOUB =  0.00D+00  THRDIV  =  1.00D-05  THRRED  =  1.00D-07  THRPSP  =  1.00D+00  THRDC   =  1.00D-10  THRCS   =  1.00D-10
 THRNRM  =  1.00D-08  THREQ   =  0.00D+00  THRDE   =  1.00D+00  THRREF  =  1.00D-05  SPARFAC =  1.00D+00  THRDLP  =  1.00D-07
 THRDIA  =  1.00D-10  THRDLS  =  1.00D-07  THRGPS  =  0.00D+00  THRKEX  =  0.00D+00  THRDIS  =  2.00D-01  THRVAR  =  1.00D-10
 THRLOC  =  1.00D-06  THRGAP  =  1.00D-06  THRLOCT = -1.00D+00  THRGAPT = -1.00D+00  THRORB  =  1.00D-06  THRMLTP =  0.00D+00
 THRCPQCI=  1.00D-10  KEXTA   =  0.00D+00  THRCOARS=  0.00D+00  SYMTOL  =  1.00D-06  GRADTOL =  1.00D-06  THROVL  =  1.00D-08
 THRORTH =  1.00D-08  GRID    =  1.00D-06  GRIDMAX =  1.00D-03  DTMAX   =  0.00D+00  THROCCDE=  1.00D-01  THROCCDE=  1.00D-01



 THRESHOLDS:

 ZERO    =  1.00D-22  ONEINT  =  1.00D-22  TWOINT  =  1.00D-22  PREFAC  =  1.00D-14  LOCALI  =  1.00D-09  EORDER  =  1.00D-04
 ENERGY  =  1.00D-12  ETEST   =  0.00D+00  EDENS   =  0.00D+00  THRDEDEF=  1.00D-06  GRADIENT=  1.00D-02  STEP    =  1.00D-03
 ORBITAL =  1.00D-05  CIVEC   =  1.00D-05  COEFF   =  1.00D-04  PRINTCI =  5.00D-02  PUNCHCI =  9.90D+01  OPTGRAD =  1.00D-08
 OPTENERG=  1.00D-06  OPTSTEP =  1.00D-08  THRGRAD =  1.00D-10  COMPRESS=  1.00D-11  VARMIN  =  1.00D-07  VARMAX  =  1.00D-03
 THRDOUB =  0.00D+00  THRDIV  =  1.00D-05  THRRED  =  1.00D-07  THRPSP  =  1.00D+00  THRDC   =  1.00D-10  THRCS   =  1.00D-10
 THRNRM  =  1.00D-08  THREQ   =  0.00D+00  THRDE   =  1.00D+00  THRREF  =  1.00D-05  SPARFAC =  1.00D+00  THRDLP  =  1.00D-07
 THRDIA  =  1.00D-10  THRDLS  =  1.00D-07  THRGPS  =  0.00D+00  THRKEX  =  0.00D+00  THRDIS  =  2.00D-01  THRVAR  =  1.00D-10
 THRLOC  =  1.00D-06  THRGAP  =  1.00D-06  THRLOCT = -1.00D+00  THRGAPT = -1.00D+00  THRORB  =  1.00D-06  THRMLTP =  0.00D+00
 THRCPQCI=  1.00D-10  KEXTA   =  0.00D+00  THRCOARS=  0.00D+00  SYMTOL  =  1.00D-06  GRADTOL =  1.00D-06  THROVL  =  1.00D-08
 THRORTH =  1.00D-08  GRID    =  1.00D-06  GRIDMAX =  1.00D-03  DTMAX   =  0.00D+00  THROCCDE=  1.00D-01  THROCCDE=  1.00D-01



 Input parameters for SORTINT:

 COMPRESS =    0.000000
 C_FINAL  =    1.000000
 DEBUG    =   -1.000000
 C_SORT1  =    0.000000
 C_SEWARD =    0.000000
 THRESH   =    0.000000
 IO       =  molpro                                                          
 SPRI     =    0.000000
 SETTING GEOMTYP        =    XYZ
 ZUNIT=BOHR
 

 Variable memory set to  995000000 words,  buffer space   230000 words

 SETTING BASIS          =    AVTZ


 Recomputing integrals since basis changed


 Using spherical harmonics

 Library entry H      S aug-cc-pVTZ          selected for orbital group  1
 Library entry H      P aug-cc-pVTZ          selected for orbital group  1
 Library entry H      D aug-cc-pVTZ          selected for orbital group  1
 Library entry N      S aug-cc-pVTZ          selected for orbital group  2
 Library entry N      P aug-cc-pVTZ          selected for orbital group  2
 Library entry N      D aug-cc-pVTZ          selected for orbital group  2
 Library entry N      F aug-cc-pVTZ          selected for orbital group  2
 Library entry O      S aug-cc-pVTZ          selected for orbital group  3
 Library entry O      P aug-cc-pVTZ          selected for orbital group  3
 Library entry O      D aug-cc-pVTZ          selected for orbital group  3
 Library entry O      F aug-cc-pVTZ          selected for orbital group  3


 PROGRAM * SEWARD (Integral evaluation for generally contracted gaussian basis sets)     Author: Roland Lindh, 1990

 Geometry written to block  1 of record 700


 Point group  Cs  



 ATOMIC COORDINATES

 NR  ATOM    CHARGE       X              Y              Z

   1  H       1.00    0.000000000    1.657522330   -1.918465621
   2  N       7.00    0.000000000   -0.156783257   -1.153035853
   3  O       8.00    0.000000000    0.041028717    1.120911883

 Bond lengths in Bohr (Angstrom)

 1-2  1.969159082  2-3  2.282535406
     ( 1.042034111)     ( 1.207865720)

 Bond angles

  1-2-3  107.90251459

 NUCLEAR CHARGE:                   16
 NUMBER OF PRIMITIVE AOS:         161
 NUMBER OF SYMMETRY AOS:          141
 NUMBER OF CONTRACTIONS:          115   (  76A'  +  39A"  )
 NUMBER OF CORE ORBITALS:           2   (   2A'  +   0A"  )
 NUMBER OF VALENCE ORBITALS:        9   (   7A'  +   2A"  )


 NUCLEAR REPULSION ENERGY   30.41282452

 Eigenvalues of metric

         1 0.230E-03 0.495E-03 0.179E-02 0.209E-02 0.253E-02 0.357E-02 0.426E-02 0.505E-02
         2 0.394E-02 0.989E-02 0.261E-01 0.368E-01 0.512E-01 0.617E-01 0.813E-01 0.119E+00


 Contracted 2-electron integrals neglected if value below      1.0D-22

       10790064. INTEGRALS WRITTEN OUT IN    2635 BLOCKS ON RECORD 1290 OF FILE 1


 NUMBER OF SORTED TWO-ELECTRON INTEGRALS:   11433631.     BUFFER LENGTH:  32768
 NUMBER OF SEGMENTS:   1  SEGMENT LENGTH:   11433631      RECORD LENGTH: 524288

 Memory used in sort:      11.99 MW

 SORT1 READ    10790064. AND WROTE    10943632. INTEGRALS IN     32 RECORDS. CPU TIME:     0.15 SEC, REAL TIME:     0.23 SEC
 SORT2 READ    10943632. AND WROTE    11433631. INTEGRALS IN      1 RECORDS. CPU TIME:     0.17 SEC, REAL TIME:     0.24 SEC

 FILE SIZES:   FILE 1:   193.0 MBYTE,  FILE 4:   134.3 MBYTE,   TOTAL:    327.2 MBYTE

 OPERATOR DM      FOR CENTER  0  COORDINATES:    0.000000    0.000000    0.000000


 **********************************************************************************************************************************
 DATASETS  * FILE   NREC   LENGTH (MB)   RECORD NAMES
              1      19      111.05       500      610      700      900      950      970     1000      129      960     1100   
                                          VAR    BASINP    GEOM    SYMINP    ZMAT    AOBASIS   BASIS     P2S    ABASIS      S 
                                         1400     1410     1200     1210     1080     1600     1650     1300     1700   
                                           T        V       H0       H01     AOSYM     SMH    MOLCAS    ERIS     OPER   

 PROGRAMS   *        TOTAL       INT
 CPU TIMES  *         1.26      1.16
 REAL TIME  *         2.05 SEC
 DISK USED  *       327.55 MB      
 **********************************************************************************************************************************


 PROGRAM * RHF-SCF (CLOSED SHELL)       Authors: W. Meyer, H.-J. Werner


 NUMBER OF ELECTRONS:       8+    8-
 CONVERGENCE THRESHOLDS:    1.00E-10 (Density)    1.00E-13 (Energy)
 MAX. NUMBER OF ITERATIONS:      500
 INTERPOLATION TYPE:            DIIS
 INTERPOLATION STEPS:              2 (START)      1 (STEP)
 LEVEL SHIFTS:                  0.00 (CLOSED)  0.00 (OPEN) 



 Orbital guess generated from atomic densities. Full valence occupancy:    9   2

 Molecular orbital dump at record        2100.2

 Initial occupancy:   7   1

 ITERATION    DDIFF          GRAD             ENERGY        2-EL.EN.            DIPOLE MOMENTS         DIIS   ORB.
    1      0.000D+00      0.000D+00      -129.78913191    153.982822    0.00000    0.59581   -1.01868    0    start
    2      0.000D+00      0.107D-01      -129.81661268    155.238819    0.00000    0.61169   -0.21291    1    diag
    3      0.118D-01      0.814D-02      -129.83878302    155.353094    0.00000    0.55945   -0.59243    2    diag
    4      0.588D-02      0.128D-02      -129.83957188    155.066332    0.00000    0.56711   -0.53259    3    diag
    5      0.107D-02      0.419D-03      -129.83969584    155.159392    0.00000    0.57252   -0.53531    4    diag
    6      0.447D-03      0.120D-03      -129.83971548    155.143954    0.00000    0.57289   -0.53126    5    diag
    7      0.170D-03      0.598D-04      -129.83972115    155.146416    0.00000    0.57411   -0.52869    6    diag
    8      0.118D-03      0.203D-04      -129.83972175    155.145768    0.00000    0.57413   -0.52770    7    diag
    9      0.439D-04      0.382D-05      -129.83972178    155.145665    0.00000    0.57409   -0.52749    8    diag
   10      0.841D-05      0.868D-06      -129.83972178    155.145647    0.00000    0.57406   -0.52746    9    orth
   11      0.170D-05      0.172D-06      -129.83972178    155.145644    0.00000    0.57405   -0.52746    9    diag
   12      0.326D-06      0.355D-07      -129.83972178    155.145644    0.00000    0.57405   -0.52746    9    diag
   13      0.701D-07      0.890D-08      -129.83972178    155.145644    0.00000    0.57405   -0.52746    9    diag
   14      0.182D-07      0.183D-08      -129.83972178    155.145644    0.00000    0.57405   -0.52746    9    diag
   15      0.358D-08      0.508D-09      -129.83972178    155.145644    0.00000    0.57405   -0.52746    9    diag
   16      0.979D-09      0.138D-09      -129.83972178    155.145644    0.00000    0.57405   -0.52746    9    diag
   17      0.173D-09      0.383D-10      -129.83972178    155.145644    0.00000    0.57405   -0.52746    9    diag
   18      0.471D-10      0.135D-10      -129.83972178    155.145644    0.00000    0.57405   -0.52746    0    orth

 Final occupancy:   7   1

 !RHF STATE 1.1 Energy               -129.839721780130
 Nuclear energy                        30.41282452
 One-electron energy                 -237.82536834
 Two-electron energy                   77.57282205
 Virial quotient                       -1.00202258
 !RHF STATE 1.1 Dipole moment           0.00000000     0.57404761    -0.52746202
 Dipole moment /Debye                   0.00000000     1.45898791    -1.34058693

 Orbital energies:

         1.1          2.1          3.1          4.1          5.1          6.1          7.1          8.1          9.1
    -20.656293   -15.713144    -1.531133    -0.997399    -0.748444    -0.666071    -0.431209     0.029215     0.092186

         1.2          2.2          3.2
     -0.596169     0.064930     0.130016

 HOMO      7.1    -0.431209 =     -11.7338eV
 LUMO      8.1     0.029215 =       0.7950eV
 LUMO-HOMO         0.460424 =      12.5288eV


 **********************************************************************************************************************************
 DATASETS  * FILE   NREC   LENGTH (MB)   RECORD NAMES
              1      19      111.05       500      610      700      900      950      970     1000      129      960     1100   
                                          VAR    BASINP    GEOM    SYMINP    ZMAT    AOBASIS   BASIS     P2S    ABASIS      S 
                                         1400     1410     1200     1210     1080     1600     1650     1300     1700   
                                           T        V       H0       H01     AOSYM     SMH    MOLCAS    ERIS     OPER   

              2       4        2.94       700     1000      520     2100   
                                         GEOM     BASIS   MCVARS     RHF  

 PROGRAMS   *        TOTAL        HF       INT
 CPU TIMES  *         2.16      0.90      1.16
 REAL TIME  *         3.32 SEC
 DISK USED  *       327.55 MB      
 **********************************************************************************************************************************


 PROGRAM * CCSD (Closed-shell coupled cluster)     Authors: C. Hampel, H.-J. Werner, 1991, M. Deegan, P.J. Knowles, 1992


 Convergence thresholds:  THRVAR = 1.00D-08  THRDEN = 1.00D-12

 CCSD(T)     terms to be evaluated (factor= 1.000)


 Number of core orbitals:           2 (   2   0 )
 Number of closed-shell orbitals:   6 (   5   1 )
 Number of external orbitals:     107 (  69  38 )

 Molecular orbitals read from record     2100.2  Type=RHF/CANONICAL (state 1.1)

 Number of N-1 electron functions:               6
 Number of N-2 electron functions:              21
 Number of singly external CSFs:               383
 Number of doubly external CSFs:            107206
 Total number of CSFs:                      107590

 Length of J-op  integral file:               0.00 MB
 Length of K-op  integral file:               0.54 MB
 Length of 3-ext integral record:             0.00 MB

 Memory could be reduced to 5.94 Mwords without degradation in triples

 Integral transformation finished. Total CPU:   0.16 sec, npass=  1  Memory used:   1.65 MW

 Reference energy:                   -129.83972178

 MP2 singlet pair energy:              -0.27919601
 MP2 triplet pair energy:              -0.16503841
 MP2 correlation energy:               -0.44423443
 MP2 total energy:                   -130.28395621

 SCS-MP2 correlation energy:           -0.43772579   (PS=  1.200000  PT=  0.333333)
 SCS-MP2 total energy:               -130.27744757

 ITER.      SQ.NORM     CORR.ENERGY   TOTAL ENERGY   ENERGY CHANGE        DEN1      VAR(S)    VAR(P)  DIIS     TIME  TIME/IT
   1      1.12059065    -0.44837243  -130.28809421    -0.00413800     0.01183288  0.31D-02  0.31D-02  1  1     0.33     0.16
   2      1.13164510    -0.44857703  -130.28829881    -0.00020460    -0.01238672  0.10D-03  0.51D-03  2  2     0.48     0.17
   3      1.13807330    -0.44896997  -130.28869175    -0.00039293    -0.00298003  0.52D-04  0.51D-04  3  3     0.63     0.17
   4      1.14093990    -0.44898305  -130.28870483    -0.00001308    -0.00096936  0.40D-05  0.91D-05  4  4     0.79     0.17
   5      1.14197167    -0.44901113  -130.28873291    -0.00002809    -0.00021820  0.11D-05  0.16D-05  5  5     0.94     0.17
   6      1.14230866    -0.44899434  -130.28871612     0.00001680    -0.00004131  0.91D-07  0.40D-06  6  6     1.08     0.17
   7      1.14238126    -0.44899572  -130.28871750    -0.00000139    -0.00000159  0.17D-07  0.93D-07  6  1     1.24     0.17
   8      1.14240199    -0.44899642  -130.28871820    -0.00000069     0.00000170  0.36D-08  0.16D-07  6  2     1.37     0.17
   9      1.14241027    -0.44899587  -130.28871765     0.00000055    -0.00000091  0.25D-08  0.17D-08  6  3     1.53     0.18
  10      1.14241035    -0.44899638  -130.28871816    -0.00000051     0.00000001  0.48D-09  0.24D-09  6  4     1.67     0.18
  11      1.14240875    -0.44899650  -130.28871828    -0.00000012     0.00000052  0.14D-09  0.30D-10  6  5     1.83     0.18
  12      1.14240747    -0.44899667  -130.28871845    -0.00000018     0.00000041  0.15D-10  0.85D-11  6  6     1.97     0.18
  13      1.14240678    -0.44899669  -130.28871847    -0.00000002     0.00000017  0.52D-11  0.16D-11  6  1     2.12     0.18
  14      1.14240637    -0.44899672  -130.28871850    -0.00000002     0.00000009  0.80D-12  0.53D-12  6  2     2.27     0.18
  15      1.14240620    -0.44899672  -130.28871850    -0.00000000     0.00000002  0.23D-12  0.16D-12  6  3     2.43     0.18
  16      1.14240612    -0.44899672  -130.28871850    -0.00000000     0.00000001  0.37D-13  0.58D-13  6  4     2.58     0.18
  17      1.14240606    -0.44899672  -130.28871850    -0.00000000     0.00000001  0.26D-14  0.13D-13  6  5     2.73     0.18
  18      1.14240606    -0.44899672  -130.28871850     0.00000000     0.00000000  0.11D-14  0.29D-14  6  6     2.88     0.18
  19      1.14240605    -0.44899672  -130.28871850     0.00000000    -0.00000000  0.78D-15  0.47D-15  6  1     3.03     0.18
  20      1.14240606    -0.44899672  -130.28871850     0.00000000    -0.00000000  0.13D-15  0.79D-16  6  2     3.17     0.18
  21      1.14240606    -0.44899672  -130.28871850     0.00000000     0.00000000  0.60D-16  0.18D-16  6  3     3.32     0.18
  22      1.14240606    -0.44899672  -130.28871850     0.00000000    -0.00000000  0.30D-17  0.36D-17  6  5     3.45     0.18
  23      1.14240606    -0.44899672  -130.28871850     0.00000000     0.00000000  0.10D-17  0.31D-18  6  4     3.61     0.18
  24      1.14240606    -0.44899672  -130.28871850    -0.00000000    -0.00000000  0.26D-18  0.76D-19  6  6     3.78     0.18
  25      1.14240606    -0.44899672  -130.28871850     0.00000000    -0.00000000  0.31D-19  0.17D-19  6  1     3.92     0.18

 Norm of t1 vector:      0.07790713      S-energy:     0.00000000      T1 diagnostic:  0.01590273
                                                                       D1 diagnostic:  0.04202615

 Doubles amplitudes (print threshold =  0.500E-01):

         I         J         SYM. A    SYM. B    A         B      T(IJ, AB)

         6         6         2         2         1         1     -0.10896221


 Total CPU time for triples:      1.33 sec


 RESULTS
 =======

  Reference energy                   -129.839721780130
  CCSD singlet pair energy             -0.307791572682
  CCSD triplet pair energy             -0.141205151144
  CCSD correlation energy              -0.448996723819

  Triples (T) contribution             -0.020841369559
  Total correlation energy             -0.469838093378

  CCSD total energy                  -130.288718503950
  CCSD[T] energy                     -130.310614267641
  CCSD-T energy                      -130.309159820300
 !CCSD(T) total energy               -130.309559873508

 Timing summary (sec):

 STEP                 CPU(USER)    SYS     CPU(TOT)    WALL
 Transformation          0.16      0.02      0.18      0.19
 CCSD iterations         3.77      0.69      4.46      4.44
 Triples                 1.33      0.05      1.38      1.38

 Program statistics:

 Available memory in ccsd:               994999756
 Min. memory needed in ccsd:                389120
 Max. memory used in ccsd:                  473124
 Max. memory used in cckext:                599488 (25 integral passes)



 **********************************************************************************************************************************
 DATASETS  * FILE   NREC   LENGTH (MB)   RECORD NAMES
              1      20      128.20       500      610      700      900      950      970     1000      129      960     1100   
                                          VAR    BASINP    GEOM    SYMINP    ZMAT    AOBASIS   BASIS     P2S    ABASIS      S 
                                         1400     1410     1200     1210     1080     1600     1650     1300     1700     1380   
                                           T        V       H0       H01     AOSYM     SMH    MOLCAS    ERIS     OPER     JKOP   

              2       4        2.94       700     1000      520     2100   
                                         GEOM     BASIS   MCVARS     RHF  

 PROGRAMS   *        TOTAL   CCSD(T)        HF       INT
 CPU TIMES  *         7.44      5.28      0.90      1.16
 REAL TIME  *         9.37 SEC
 DISK USED  *       327.55 MB      
 **********************************************************************************************************************************

 CCSD(T)/aug-cc-pVTZ energy=   -130.309559873508

        CCSD(T)         HF-SCF  
   -130.30955987   -129.83972178
 **********************************************************************************************************************************
 Molpro calculation terminated
 Variable memory released
