
 Primary working directories    : /tmp/r2666/282138.maple
 Secondary working directories  : /tmp/r2666/282138.maple
 Wavefunction directory         : /ddn/home4/r2666/wfu/
 Main file repository           : /tmp/r2666/282138.maple/

 SHA1      : d5ffa45e93fdbca01ffc919aa182cfdae0147319
 NAME      : 2015.1.35
 ARCHNAME  : linux/x86_64
 FC        : /opt/intel/composer_xe_2015.1.133/bin/intel64/ifort
 BLASLIB   : -Wl,-_start-group /opt/intel/mkl/lib/intel64/libmkl_intel_ilp64.a /opt/intel/mkl/lib/intel64/libmkl_intel_thread.a /opt/intel/mkl/lib/intel64/libmkl_core.a -Wl,-_end-group
 id        : olemiss

 Nodes     nprocs
 cn084        1

 Using customized tuning parameters: mindgm=1; mindgv=20; mindgc=4; mindgr=1; noblas=0; minvec=7
 default implementation of scratch files=df  

 ***,hno CCSD(T)/TZ-F12 QFF
 memory, 995, m;
 gthresh,energy=1.d-12,zero=1.d-22,oneint=1.d-22,twoint=1.d-22;
 gthresh,optgrad=1.d-8,optstep=1.d-8;
 nocompress;
 geomtyp=xyz
 bohr
 geometry={
 3
         35        35
 H        0.0000000000        1.6627079651       -1.9326643469
 N        0.0000000000       -0.1529990570       -1.1464732199
 O        0.0000000000        0.0320588819        1.1285479758
 }
 
 basis=avtz
   {hf,maxit=500;accu,20;}
 {ccsd(t),nocheck,maxit=250;orbital,IGNORE_ERROR;}

 Variables initialized (889), CPU time= 0.01 sec
 Commands  initialized (702), CPU time= 0.00 sec, 572 directives.
 Default parameters read. Elapsed time= 0.04 sec

 Checking input...
 Passed
1


                                         ***  PROGRAM SYSTEM MOLPRO  ***
                                       Copyright, TTI GmbH Stuttgart, 2015
                                    Version 2015.1 linked Jul  9 2018 13:16:40


 **********************************************************************************************************************************
 LABEL *   hno CCSD(T)/TZ-F12 QFF                                                        
  64 bit serial version                                                                  DATE: 04-Mar-20          TIME: 13:46:09  
 **********************************************************************************************************************************

 SHA1:             d5ffa45e93fdbca01ffc919aa182cfdae0147319
 **********************************************************************************************************************************

 THRESHOLDS:

 ZERO    =  1.00D-22  ONEINT  =  1.00D-22  TWOINT  =  1.00D-22  PREFAC  =  1.00D-14  LOCALI  =  1.00D-09  EORDER  =  1.00D-04
 ENERGY  =  1.00D-12  ETEST   =  0.00D+00  EDENS   =  0.00D+00  THRDEDEF=  1.00D-06  GRADIENT=  1.00D-02  STEP    =  1.00D-03
 ORBITAL =  1.00D-05  CIVEC   =  1.00D-05  COEFF   =  1.00D-04  PRINTCI =  5.00D-02  PUNCHCI =  9.90D+01  OPTGRAD =  3.00D-04
 OPTENERG=  1.00D-06  OPTSTEP =  3.00D-04  THRGRAD =  1.00D-10  COMPRESS=  1.00D-11  VARMIN  =  1.00D-07  VARMAX  =  1.00D-03
 THRDOUB =  0.00D+00  THRDIV  =  1.00D-05  THRRED  =  1.00D-07  THRPSP  =  1.00D+00  THRDC   =  1.00D-10  THRCS   =  1.00D-10
 THRNRM  =  1.00D-08  THREQ   =  0.00D+00  THRDE   =  1.00D+00  THRREF  =  1.00D-05  SPARFAC =  1.00D+00  THRDLP  =  1.00D-07
 THRDIA  =  1.00D-10  THRDLS  =  1.00D-07  THRGPS  =  0.00D+00  THRKEX  =  0.00D+00  THRDIS  =  2.00D-01  THRVAR  =  1.00D-10
 THRLOC  =  1.00D-06  THRGAP  =  1.00D-06  THRLOCT = -1.00D+00  THRGAPT = -1.00D+00  THRORB  =  1.00D-06  THRMLTP =  0.00D+00
 THRCPQCI=  1.00D-10  KEXTA   =  0.00D+00  THRCOARS=  0.00D+00  SYMTOL  =  1.00D-06  GRADTOL =  1.00D-06  THROVL  =  1.00D-08
 THRORTH =  1.00D-08  GRID    =  1.00D-06  GRIDMAX =  1.00D-03  DTMAX   =  0.00D+00  THROCCDE=  1.00D-01  THROCCDE=  1.00D-01



 THRESHOLDS:

 ZERO    =  1.00D-22  ONEINT  =  1.00D-22  TWOINT  =  1.00D-22  PREFAC  =  1.00D-14  LOCALI  =  1.00D-09  EORDER  =  1.00D-04
 ENERGY  =  1.00D-12  ETEST   =  0.00D+00  EDENS   =  0.00D+00  THRDEDEF=  1.00D-06  GRADIENT=  1.00D-02  STEP    =  1.00D-03
 ORBITAL =  1.00D-05  CIVEC   =  1.00D-05  COEFF   =  1.00D-04  PRINTCI =  5.00D-02  PUNCHCI =  9.90D+01  OPTGRAD =  1.00D-08
 OPTENERG=  1.00D-06  OPTSTEP =  1.00D-08  THRGRAD =  1.00D-10  COMPRESS=  1.00D-11  VARMIN  =  1.00D-07  VARMAX  =  1.00D-03
 THRDOUB =  0.00D+00  THRDIV  =  1.00D-05  THRRED  =  1.00D-07  THRPSP  =  1.00D+00  THRDC   =  1.00D-10  THRCS   =  1.00D-10
 THRNRM  =  1.00D-08  THREQ   =  0.00D+00  THRDE   =  1.00D+00  THRREF  =  1.00D-05  SPARFAC =  1.00D+00  THRDLP  =  1.00D-07
 THRDIA  =  1.00D-10  THRDLS  =  1.00D-07  THRGPS  =  0.00D+00  THRKEX  =  0.00D+00  THRDIS  =  2.00D-01  THRVAR  =  1.00D-10
 THRLOC  =  1.00D-06  THRGAP  =  1.00D-06  THRLOCT = -1.00D+00  THRGAPT = -1.00D+00  THRORB  =  1.00D-06  THRMLTP =  0.00D+00
 THRCPQCI=  1.00D-10  KEXTA   =  0.00D+00  THRCOARS=  0.00D+00  SYMTOL  =  1.00D-06  GRADTOL =  1.00D-06  THROVL  =  1.00D-08
 THRORTH =  1.00D-08  GRID    =  1.00D-06  GRIDMAX =  1.00D-03  DTMAX   =  0.00D+00  THROCCDE=  1.00D-01  THROCCDE=  1.00D-01



 Input parameters for SORTINT:

 COMPRESS =    0.000000
 C_FINAL  =    1.000000
 DEBUG    =   -1.000000
 C_SORT1  =    0.000000
 C_SEWARD =    0.000000
 THRESH   =    0.000000
 IO       =  molpro                                                          
 SPRI     =    0.000000
 SETTING GEOMTYP        =    XYZ
 ZUNIT=BOHR
 

 Variable memory set to  995000000 words,  buffer space   230000 words

 SETTING BASIS          =    AVTZ


 Recomputing integrals since basis changed


 Using spherical harmonics

 Library entry H      S aug-cc-pVTZ          selected for orbital group  1
 Library entry H      P aug-cc-pVTZ          selected for orbital group  1
 Library entry H      D aug-cc-pVTZ          selected for orbital group  1
 Library entry N      S aug-cc-pVTZ          selected for orbital group  2
 Library entry N      P aug-cc-pVTZ          selected for orbital group  2
 Library entry N      D aug-cc-pVTZ          selected for orbital group  2
 Library entry N      F aug-cc-pVTZ          selected for orbital group  2
 Library entry O      S aug-cc-pVTZ          selected for orbital group  3
 Library entry O      P aug-cc-pVTZ          selected for orbital group  3
 Library entry O      D aug-cc-pVTZ          selected for orbital group  3
 Library entry O      F aug-cc-pVTZ          selected for orbital group  3


 PROGRAM * SEWARD (Integral evaluation for generally contracted gaussian basis sets)     Author: Roland Lindh, 1990

 Geometry written to block  1 of record 700


 Point group  Cs  



 ATOMIC COORDINATES

 NR  ATOM    CHARGE       X              Y              Z

   1  H       1.00    0.000000000    1.662707965   -1.932664347
   2  N       7.00    0.000000000   -0.152999057   -1.146473220
   3  O       8.00    0.000000000    0.032058882    1.128547976

 Bond lengths in Bohr (Angstrom)

 1-2  1.978607712  2-3  2.282535406
     ( 1.047034111)     ( 1.207865720)

 Bond angles

  1-2-3  108.76195128

 NUCLEAR CHARGE:                   16
 NUMBER OF PRIMITIVE AOS:         161
 NUMBER OF SYMMETRY AOS:          141
 NUMBER OF CONTRACTIONS:          115   (  76A'  +  39A"  )
 NUMBER OF CORE ORBITALS:           2   (   2A'  +   0A"  )
 NUMBER OF VALENCE ORBITALS:        9   (   7A'  +   2A"  )


 NUCLEAR REPULSION ENERGY   30.37847848

 Eigenvalues of metric

         1 0.231E-03 0.495E-03 0.181E-02 0.211E-02 0.253E-02 0.357E-02 0.429E-02 0.508E-02
         2 0.394E-02 0.997E-02 0.261E-01 0.368E-01 0.510E-01 0.619E-01 0.811E-01 0.120E+00


 Contracted 2-electron integrals neglected if value below      1.0D-22

       10790064. INTEGRALS WRITTEN OUT IN    2635 BLOCKS ON RECORD 1290 OF FILE 1


 NUMBER OF SORTED TWO-ELECTRON INTEGRALS:   11433631.     BUFFER LENGTH:  32768
 NUMBER OF SEGMENTS:   1  SEGMENT LENGTH:   11433631      RECORD LENGTH: 524288

 Memory used in sort:      11.99 MW

 SORT1 READ    10790064. AND WROTE    10943632. INTEGRALS IN     32 RECORDS. CPU TIME:     0.15 SEC, REAL TIME:     0.22 SEC
 SORT2 READ    10943632. AND WROTE    11433631. INTEGRALS IN      1 RECORDS. CPU TIME:     0.17 SEC, REAL TIME:     0.22 SEC

 FILE SIZES:   FILE 1:   193.0 MBYTE,  FILE 4:   134.3 MBYTE,   TOTAL:    327.2 MBYTE

 OPERATOR DM      FOR CENTER  0  COORDINATES:    0.000000    0.000000    0.000000


 **********************************************************************************************************************************
 DATASETS  * FILE   NREC   LENGTH (MB)   RECORD NAMES
              1      19      111.05       500      610      700      900      950      970     1000      129      960     1100   
                                          VAR    BASINP    GEOM    SYMINP    ZMAT    AOBASIS   BASIS     P2S    ABASIS      S 
                                         1400     1410     1200     1210     1080     1600     1650     1300     1700   
                                           T        V       H0       H01     AOSYM     SMH    MOLCAS    ERIS     OPER   

 PROGRAMS   *        TOTAL       INT
 CPU TIMES  *         1.27      1.19
 REAL TIME  *         1.95 SEC
 DISK USED  *       327.55 MB      
 **********************************************************************************************************************************


 PROGRAM * RHF-SCF (CLOSED SHELL)       Authors: W. Meyer, H.-J. Werner


 NUMBER OF ELECTRONS:       8+    8-
 CONVERGENCE THRESHOLDS:    1.00E-10 (Density)    1.00E-13 (Energy)
 MAX. NUMBER OF ITERATIONS:      500
 INTERPOLATION TYPE:            DIIS
 INTERPOLATION STEPS:              2 (START)      1 (STEP)
 LEVEL SHIFTS:                  0.00 (CLOSED)  0.00 (OPEN) 



 Orbital guess generated from atomic densities. Full valence occupancy:    9   2

 Molecular orbital dump at record        2100.2

 Initial occupancy:   7   1

 ITERATION    DDIFF          GRAD             ENERGY        2-EL.EN.            DIPOLE MOMENTS         DIIS   ORB.
    1      0.000D+00      0.000D+00      -129.78883164    153.913713    0.00000    0.60011   -1.02130    0    start
    2      0.000D+00      0.107D-01      -129.81629403    155.179738    0.00000    0.61083   -0.21441    1    diag
    3      0.119D-01      0.817D-02      -129.83862074    155.291669    0.00000    0.56114   -0.59527    2    diag
    4      0.589D-02      0.128D-02      -129.83941241    155.003798    0.00000    0.56835   -0.53522    3    diag
    5      0.107D-02      0.420D-03      -129.83953704    155.097524    0.00000    0.57391   -0.53805    4    diag
    6      0.448D-03      0.120D-03      -129.83955681    155.082041    0.00000    0.57430   -0.53399    5    diag
    7      0.171D-03      0.598D-04      -129.83956250    155.084525    0.00000    0.57554   -0.53144    6    diag
    8      0.118D-03      0.203D-04      -129.83956310    155.083879    0.00000    0.57556   -0.53045    7    diag
    9      0.441D-04      0.385D-05      -129.83956313    155.083772    0.00000    0.57553   -0.53023    8    diag
   10      0.848D-05      0.881D-06      -129.83956313    155.083754    0.00000    0.57549   -0.53021    9    orth
   11      0.173D-05      0.175D-06      -129.83956313    155.083751    0.00000    0.57549   -0.53021    9    diag
   12      0.333D-06      0.358D-07      -129.83956313    155.083751    0.00000    0.57548   -0.53020    9    diag
   13      0.710D-07      0.899D-08      -129.83956313    155.083751    0.00000    0.57548   -0.53020    9    diag
   14      0.185D-07      0.186D-08      -129.83956313    155.083750    0.00000    0.57548   -0.53020    9    diag
   15      0.366D-08      0.517D-09      -129.83956313    155.083750    0.00000    0.57548   -0.53020    9    diag
   16      0.997D-09      0.140D-09      -129.83956313    155.083750    0.00000    0.57548   -0.53020    9    diag
   17      0.175D-09      0.387D-10      -129.83956313    155.083750    0.00000    0.57548   -0.53020    9    diag
   18      0.473D-10      0.137D-10      -129.83956313    155.083750    0.00000    0.57548   -0.53020    9    diag
   19      0.244D-10      0.300D-11      -129.83956313    155.083750    0.00000    0.57548   -0.53020    9    fixocc
   20      0.605D-11      0.534D-12      -129.83956313    155.083750    0.00000    0.57548   -0.53020    9    orth
   21      0.180D-11      0.193D-12      -129.83956313    155.083750    0.00000    0.57548   -0.53020    0    orth

 Final occupancy:   7   1

 !RHF STATE 1.1 Energy               -129.839563133020
 Nuclear energy                        30.37847848
 One-electron energy                 -237.75991684
 Two-electron energy                   77.54187524
 Virial quotient                       -1.00210975
 !RHF STATE 1.1 Dipole moment           0.00000000     0.57548374    -0.53020359
 Dipole moment /Debye                   0.00000000     1.46263796    -1.34755483

 Orbital energies:

         1.1          2.1          3.1          4.1          5.1          6.1          7.1          8.1          9.1
    -20.656602   -15.713668    -1.530621    -0.996648    -0.747860    -0.666236    -0.430323     0.029138     0.092139

         1.2          2.2          3.2
     -0.596126     0.064809     0.130088

 HOMO      7.1    -0.430323 =     -11.7097eV
 LUMO      8.1     0.029138 =       0.7929eV
 LUMO-HOMO         0.459461 =      12.5026eV


 **********************************************************************************************************************************
 DATASETS  * FILE   NREC   LENGTH (MB)   RECORD NAMES
              1      19      111.05       500      610      700      900      950      970     1000      129      960     1100   
                                          VAR    BASINP    GEOM    SYMINP    ZMAT    AOBASIS   BASIS     P2S    ABASIS      S 
                                         1400     1410     1200     1210     1080     1600     1650     1300     1700   
                                           T        V       H0       H01     AOSYM     SMH    MOLCAS    ERIS     OPER   

              2       4        2.94       700     1000      520     2100   
                                         GEOM     BASIS   MCVARS     RHF  

 PROGRAMS   *        TOTAL        HF       INT
 CPU TIMES  *         2.28      1.01      1.19
 REAL TIME  *         3.27 SEC
 DISK USED  *       327.55 MB      
 **********************************************************************************************************************************


 PROGRAM * CCSD (Closed-shell coupled cluster)     Authors: C. Hampel, H.-J. Werner, 1991, M. Deegan, P.J. Knowles, 1992


 Convergence thresholds:  THRVAR = 1.00D-08  THRDEN = 1.00D-12

 CCSD(T)     terms to be evaluated (factor= 1.000)


 Number of core orbitals:           2 (   2   0 )
 Number of closed-shell orbitals:   6 (   5   1 )
 Number of external orbitals:     107 (  69  38 )

 Molecular orbitals read from record     2100.2  Type=RHF/CANONICAL (state 1.1)

 Number of N-1 electron functions:               6
 Number of N-2 electron functions:              21
 Number of singly external CSFs:               383
 Number of doubly external CSFs:            107206
 Total number of CSFs:                      107590

 Length of J-op  integral file:               0.00 MB
 Length of K-op  integral file:               0.54 MB
 Length of 3-ext integral record:             0.00 MB

 Memory could be reduced to 5.94 Mwords without degradation in triples

 Integral transformation finished. Total CPU:   0.13 sec, npass=  1  Memory used:   1.65 MW

 Reference energy:                   -129.83956313

 MP2 singlet pair energy:              -0.27931353
 MP2 triplet pair energy:              -0.16511071
 MP2 correlation energy:               -0.44442424
 MP2 total energy:                   -130.28398737

 SCS-MP2 correlation energy:           -0.43791179   (PS=  1.200000  PT=  0.333333)
 SCS-MP2 total energy:               -130.27747492

 ITER.      SQ.NORM     CORR.ENERGY   TOTAL ENERGY   ENERGY CHANGE        DEN1      VAR(S)    VAR(P)  DIIS     TIME  TIME/IT
   1      1.12078506    -0.44854973  -130.28811286    -0.00412549     0.01190591  0.31D-02  0.31D-02  1  1     0.27     0.16
   2      1.13188481    -0.44874813  -130.28831126    -0.00019840    -0.01242194  0.10D-03  0.51D-03  2  2     0.42     0.16
   3      1.13835935    -0.44914662  -130.28870976    -0.00039850    -0.00299296  0.53D-04  0.51D-04  3  3     0.56     0.16
   4      1.14124601    -0.44915840  -130.28872154    -0.00001178    -0.00097501  0.42D-05  0.93D-05  4  4     0.70     0.16
   5      1.14229802    -0.44918701  -130.28875014    -0.00002861    -0.00022238  0.11D-05  0.17D-05  5  5     0.84     0.16
   6      1.14264210    -0.44917008  -130.28873321     0.00001693    -0.00004194  0.97D-07  0.41D-06  6  6     0.99     0.16
   7      1.14271728    -0.44917134  -130.28873447    -0.00000126    -0.00000177  0.18D-07  0.95D-07  6  1     1.12     0.16
   8      1.14273881    -0.44917206  -130.28873520    -0.00000073     0.00000156  0.37D-08  0.17D-07  6  2     1.27     0.16
   9      1.14274416    -0.44917162  -130.28873476     0.00000044     0.00000044  0.29D-08  0.19D-08  6  4     1.42     0.16
  10      1.14274649    -0.44917211  -130.28873524    -0.00000048    -0.00000072  0.47D-09  0.22D-09  6  3     1.56     0.16
  11      1.14274598    -0.44917213  -130.28873526    -0.00000002    -0.00000007  0.16D-09  0.34D-10  6  5     1.69     0.16
  12      1.14274491    -0.44917228  -130.28873542    -0.00000015     0.00000034  0.18D-10  0.11D-10  6  6     1.83     0.16
  13      1.14274405    -0.44917232  -130.28873545    -0.00000004     0.00000022  0.63D-11  0.22D-11  6  1     1.99     0.16
  14      1.14274350    -0.44917235  -130.28873548    -0.00000003     0.00000014  0.98D-12  0.72D-12  6  2     2.16     0.16
  15      1.14274327    -0.44917236  -130.28873549    -0.00000001     0.00000003  0.27D-12  0.23D-12  6  4     2.29     0.16
  16      1.14274317    -0.44917236  -130.28873549    -0.00000000     0.00000001  0.50D-13  0.83D-13  6  3     2.43     0.16
  17      1.14274311    -0.44917236  -130.28873549    -0.00000000     0.00000001  0.39D-14  0.19D-13  6  5     2.56     0.17
  18      1.14274311    -0.44917236  -130.28873549     0.00000000    -0.00000000  0.15D-14  0.40D-14  6  6     2.69     0.17
  19      1.14274310    -0.44917236  -130.28873549    -0.00000000     0.00000000  0.12D-14  0.72D-15  6  1     2.83     0.17
  20      1.14274310    -0.44917236  -130.28873549     0.00000000    -0.00000000  0.24D-15  0.13D-15  6  2     2.96     0.17
  21      1.14274311    -0.44917236  -130.28873549     0.00000000    -0.00000000  0.58D-16  0.32D-16  6  3     3.11     0.17
  22      1.14274311    -0.44917236  -130.28873549     0.00000000     0.00000000  0.65D-17  0.28D-17  6  4     3.24     0.17
  23      1.14274311    -0.44917236  -130.28873549     0.00000000    -0.00000000  0.24D-17  0.59D-18  6  5     3.39     0.17
  24      1.14274311    -0.44917236  -130.28873549     0.00000000     0.00000000  0.16D-18  0.51D-19  6  2     3.54     0.17
  25      1.14274311    -0.44917236  -130.28873549    -0.00000000    -0.00000000  0.24D-19  0.13D-19  6  6     3.68     0.17
  26      1.14274311    -0.44917236  -130.28873549     0.00000000    -0.00000000  0.37D-20  0.23D-20  6  1     3.83     0.17
  27      1.14274311    -0.44917236  -130.28873549    -0.00000000    -0.00000000  0.50D-21  0.54D-21  6  4     3.97     0.17

 Norm of t1 vector:      0.07836893      S-energy:    -0.00000000      T1 diagnostic:  0.01599699
                                                                       D1 diagnostic:  0.04212008

 Doubles amplitudes (print threshold =  0.500E-01):

         I         J         SYM. A    SYM. B    A         B      T(IJ, AB)

         6         6         2         2         1         1     -0.10892756


 Total CPU time for triples:      1.13 sec


 RESULTS
 =======

  Reference energy                   -129.839563133020
  CCSD singlet pair energy             -0.307941250355
  CCSD triplet pair energy             -0.141231110803
  CCSD correlation energy              -0.449172361158

  Triples (T) contribution             -0.020883843182
  Total correlation energy             -0.470056204340

  CCSD total energy                  -130.288735494178
  CCSD[T] energy                     -130.310683591638
  CCSD-T energy                      -130.309216184272
 !CCSD(T) total energy               -130.309619337360

 Timing summary (sec):

 STEP                 CPU(USER)    SYS     CPU(TOT)    WALL
 Transformation          0.13      0.04      0.17      0.17
 CCSD iterations         3.84      0.63      4.47      4.50
 Triples                 1.13      0.03      1.16      1.15

 Program statistics:

 Available memory in ccsd:               994999756
 Min. memory needed in ccsd:                389120
 Max. memory used in ccsd:                  473124
 Max. memory used in cckext:                599488 (27 integral passes)



 **********************************************************************************************************************************
 DATASETS  * FILE   NREC   LENGTH (MB)   RECORD NAMES
              1      20      128.20       500      610      700      900      950      970     1000      129      960     1100   
                                          VAR    BASINP    GEOM    SYMINP    ZMAT    AOBASIS   BASIS     P2S    ABASIS      S 
                                         1400     1410     1200     1210     1080     1600     1650     1300     1700     1380   
                                           T        V       H0       H01     AOSYM     SMH    MOLCAS    ERIS     OPER     JKOP   

              2       4        2.94       700     1000      520     2100   
                                         GEOM     BASIS   MCVARS     RHF  

 PROGRAMS   *        TOTAL   CCSD(T)        HF       INT
 CPU TIMES  *         7.41      5.13      1.01      1.19
 REAL TIME  *         9.12 SEC
 DISK USED  *       327.55 MB      
 **********************************************************************************************************************************

 CCSD(T)/aug-cc-pVTZ energy=   -130.309619337360

        CCSD(T)         HF-SCF  
   -130.30961934   -129.83956313
 **********************************************************************************************************************************
 Molpro calculation terminated
 Variable memory released
