
 Primary working directories    : /tmp/r2666/282186.maple
 Secondary working directories  : /tmp/r2666/282186.maple
 Wavefunction directory         : /ddn/home4/r2666/wfu/
 Main file repository           : /tmp/r2666/282186.maple/

 SHA1      : d5ffa45e93fdbca01ffc919aa182cfdae0147319
 NAME      : 2015.1.35
 ARCHNAME  : linux/x86_64
 FC        : /opt/intel/composer_xe_2015.1.133/bin/intel64/ifort
 BLASLIB   : -Wl,-_start-group /opt/intel/mkl/lib/intel64/libmkl_intel_ilp64.a /opt/intel/mkl/lib/intel64/libmkl_intel_thread.a /opt/intel/mkl/lib/intel64/libmkl_core.a -Wl,-_end-group
 id        : olemiss

 Nodes     nprocs
 cn095        1

 Using customized tuning parameters: mindgm=1; mindgv=20; mindgc=4; mindgr=1; noblas=0; minvec=7
 default implementation of scratch files=df  

 ***,hno CCSD(T)/TZ-F12 QFF
 memory, 995, m;
 gthresh,energy=1.d-12,zero=1.d-22,oneint=1.d-22,twoint=1.d-22;
 gthresh,optgrad=1.d-8,optstep=1.d-8;
 nocompress;
 geomtyp=xyz
 bohr
 geometry={
 3
         83        83
 H        0.0000000000        1.6692679447       -1.9356948799
 N        0.0000000000       -0.1607106920       -1.1588125151
 O        0.0000000000        0.0332105373        1.1439178040
 }
 
 basis=avtz
   {hf,maxit=500;accu,20;}
 {ccsd(t),nocheck,maxit=250;orbital,IGNORE_ERROR;}

 Variables initialized (889), CPU time= 0.01 sec
 Commands  initialized (702), CPU time= 0.01 sec, 572 directives.
 Default parameters read. Elapsed time= 0.06 sec

 Checking input...
 Passed
1


                                         ***  PROGRAM SYSTEM MOLPRO  ***
                                       Copyright, TTI GmbH Stuttgart, 2015
                                    Version 2015.1 linked Jul  9 2018 13:16:40


 **********************************************************************************************************************************
 LABEL *   hno CCSD(T)/TZ-F12 QFF                                                        
  64 bit serial version                                                                  DATE: 04-Mar-20          TIME: 13:46:33  
 **********************************************************************************************************************************

 SHA1:             d5ffa45e93fdbca01ffc919aa182cfdae0147319
 **********************************************************************************************************************************

 THRESHOLDS:

 ZERO    =  1.00D-22  ONEINT  =  1.00D-22  TWOINT  =  1.00D-22  PREFAC  =  1.00D-14  LOCALI  =  1.00D-09  EORDER  =  1.00D-04
 ENERGY  =  1.00D-12  ETEST   =  0.00D+00  EDENS   =  0.00D+00  THRDEDEF=  1.00D-06  GRADIENT=  1.00D-02  STEP    =  1.00D-03
 ORBITAL =  1.00D-05  CIVEC   =  1.00D-05  COEFF   =  1.00D-04  PRINTCI =  5.00D-02  PUNCHCI =  9.90D+01  OPTGRAD =  3.00D-04
 OPTENERG=  1.00D-06  OPTSTEP =  3.00D-04  THRGRAD =  1.00D-10  COMPRESS=  1.00D-11  VARMIN  =  1.00D-07  VARMAX  =  1.00D-03
 THRDOUB =  0.00D+00  THRDIV  =  1.00D-05  THRRED  =  1.00D-07  THRPSP  =  1.00D+00  THRDC   =  1.00D-10  THRCS   =  1.00D-10
 THRNRM  =  1.00D-08  THREQ   =  0.00D+00  THRDE   =  1.00D+00  THRREF  =  1.00D-05  SPARFAC =  1.00D+00  THRDLP  =  1.00D-07
 THRDIA  =  1.00D-10  THRDLS  =  1.00D-07  THRGPS  =  0.00D+00  THRKEX  =  0.00D+00  THRDIS  =  2.00D-01  THRVAR  =  1.00D-10
 THRLOC  =  1.00D-06  THRGAP  =  1.00D-06  THRLOCT = -1.00D+00  THRGAPT = -1.00D+00  THRORB  =  1.00D-06  THRMLTP =  0.00D+00
 THRCPQCI=  1.00D-10  KEXTA   =  0.00D+00  THRCOARS=  0.00D+00  SYMTOL  =  1.00D-06  GRADTOL =  1.00D-06  THROVL  =  1.00D-08
 THRORTH =  1.00D-08  GRID    =  1.00D-06  GRIDMAX =  1.00D-03  DTMAX   =  0.00D+00  THROCCDE=  1.00D-01  THROCCDE=  1.00D-01



 THRESHOLDS:

 ZERO    =  1.00D-22  ONEINT  =  1.00D-22  TWOINT  =  1.00D-22  PREFAC  =  1.00D-14  LOCALI  =  1.00D-09  EORDER  =  1.00D-04
 ENERGY  =  1.00D-12  ETEST   =  0.00D+00  EDENS   =  0.00D+00  THRDEDEF=  1.00D-06  GRADIENT=  1.00D-02  STEP    =  1.00D-03
 ORBITAL =  1.00D-05  CIVEC   =  1.00D-05  COEFF   =  1.00D-04  PRINTCI =  5.00D-02  PUNCHCI =  9.90D+01  OPTGRAD =  1.00D-08
 OPTENERG=  1.00D-06  OPTSTEP =  1.00D-08  THRGRAD =  1.00D-10  COMPRESS=  1.00D-11  VARMIN  =  1.00D-07  VARMAX  =  1.00D-03
 THRDOUB =  0.00D+00  THRDIV  =  1.00D-05  THRRED  =  1.00D-07  THRPSP  =  1.00D+00  THRDC   =  1.00D-10  THRCS   =  1.00D-10
 THRNRM  =  1.00D-08  THREQ   =  0.00D+00  THRDE   =  1.00D+00  THRREF  =  1.00D-05  SPARFAC =  1.00D+00  THRDLP  =  1.00D-07
 THRDIA  =  1.00D-10  THRDLS  =  1.00D-07  THRGPS  =  0.00D+00  THRKEX  =  0.00D+00  THRDIS  =  2.00D-01  THRVAR  =  1.00D-10
 THRLOC  =  1.00D-06  THRGAP  =  1.00D-06  THRLOCT = -1.00D+00  THRGAPT = -1.00D+00  THRORB  =  1.00D-06  THRMLTP =  0.00D+00
 THRCPQCI=  1.00D-10  KEXTA   =  0.00D+00  THRCOARS=  0.00D+00  SYMTOL  =  1.00D-06  GRADTOL =  1.00D-06  THROVL  =  1.00D-08
 THRORTH =  1.00D-08  GRID    =  1.00D-06  GRIDMAX =  1.00D-03  DTMAX   =  0.00D+00  THROCCDE=  1.00D-01  THROCCDE=  1.00D-01



 Input parameters for SORTINT:

 COMPRESS =    0.000000
 C_FINAL  =    1.000000
 DEBUG    =   -1.000000
 C_SORT1  =    0.000000
 C_SEWARD =    0.000000
 THRESH   =    0.000000
 IO       =  molpro                                                          
 SPRI     =    0.000000
 SETTING GEOMTYP        =    XYZ
 ZUNIT=BOHR
 

 Variable memory set to  995000000 words,  buffer space   230000 words

 SETTING BASIS          =    AVTZ


 Recomputing integrals since basis changed


 Using spherical harmonics

 Library entry H      S aug-cc-pVTZ          selected for orbital group  1
 Library entry H      P aug-cc-pVTZ          selected for orbital group  1
 Library entry H      D aug-cc-pVTZ          selected for orbital group  1
 Library entry N      S aug-cc-pVTZ          selected for orbital group  2
 Library entry N      P aug-cc-pVTZ          selected for orbital group  2
 Library entry N      D aug-cc-pVTZ          selected for orbital group  2
 Library entry N      F aug-cc-pVTZ          selected for orbital group  2
 Library entry O      S aug-cc-pVTZ          selected for orbital group  3
 Library entry O      P aug-cc-pVTZ          selected for orbital group  3
 Library entry O      D aug-cc-pVTZ          selected for orbital group  3
 Library entry O      F aug-cc-pVTZ          selected for orbital group  3


 PROGRAM * SEWARD (Integral evaluation for generally contracted gaussian basis sets)     Author: Roland Lindh, 1990

 Geometry written to block  1 of record 700


 Point group  Cs  



 ATOMIC COORDINATES

 NR  ATOM    CHARGE       X              Y              Z

   1  H       1.00    0.000000000    1.669267945   -1.935694880
   2  N       7.00    0.000000000   -0.160710692   -1.158812515
   3  O       8.00    0.000000000    0.033210537    1.143917804

 Bond lengths in Bohr (Angstrom)

 1-2  1.988056342  2-3  2.310881296
     ( 1.052034110)     ( 1.222865719)

 Bond angles

  1-2-3  108.18899349

 NUCLEAR CHARGE:                   16
 NUMBER OF PRIMITIVE AOS:         161
 NUMBER OF SYMMETRY AOS:          141
 NUMBER OF CONTRACTIONS:          115   (  76A'  +  39A"  )
 NUMBER OF CORE ORBITALS:           2   (   2A'  +   0A"  )
 NUMBER OF VALENCE ORBITALS:        9   (   7A'  +   2A"  )


 NUCLEAR REPULSION ENERGY   30.04829741

 Eigenvalues of metric

         1 0.236E-03 0.506E-03 0.184E-02 0.217E-02 0.266E-02 0.381E-02 0.436E-02 0.523E-02
         2 0.412E-02 0.102E-01 0.269E-01 0.374E-01 0.516E-01 0.625E-01 0.842E-01 0.121E+00


 Contracted 2-electron integrals neglected if value below      1.0D-22

       10790064. INTEGRALS WRITTEN OUT IN    2635 BLOCKS ON RECORD 1290 OF FILE 1


 NUMBER OF SORTED TWO-ELECTRON INTEGRALS:   11433631.     BUFFER LENGTH:  32768
 NUMBER OF SEGMENTS:   1  SEGMENT LENGTH:   11433631      RECORD LENGTH: 524288

 Memory used in sort:      11.99 MW

 SORT1 READ    10790064. AND WROTE    10943632. INTEGRALS IN     32 RECORDS. CPU TIME:     0.18 SEC, REAL TIME:     0.26 SEC
 SORT2 READ    10943632. AND WROTE    11433631. INTEGRALS IN      1 RECORDS. CPU TIME:     0.22 SEC, REAL TIME:     0.31 SEC

 FILE SIZES:   FILE 1:   193.0 MBYTE,  FILE 4:   134.3 MBYTE,   TOTAL:    327.2 MBYTE

 OPERATOR DM      FOR CENTER  0  COORDINATES:    0.000000    0.000000    0.000000


 **********************************************************************************************************************************
 DATASETS  * FILE   NREC   LENGTH (MB)   RECORD NAMES
              1      19      111.05       500      610      700      900      950      970     1000      129      960     1100   
                                          VAR    BASINP    GEOM    SYMINP    ZMAT    AOBASIS   BASIS     P2S    ABASIS      S 
                                         1400     1410     1200     1210     1080     1600     1650     1300     1700   
                                           T        V       H0       H01     AOSYM     SMH    MOLCAS    ERIS     OPER   

 PROGRAMS   *        TOTAL       INT
 CPU TIMES  *         1.45      1.36
 REAL TIME  *         2.31 SEC
 DISK USED  *       327.55 MB      
 **********************************************************************************************************************************


 PROGRAM * RHF-SCF (CLOSED SHELL)       Authors: W. Meyer, H.-J. Werner


 NUMBER OF ELECTRONS:       8+    8-
 CONVERGENCE THRESHOLDS:    1.00E-10 (Density)    1.00E-13 (Energy)
 MAX. NUMBER OF ITERATIONS:      500
 INTERPOLATION TYPE:            DIIS
 INTERPOLATION STEPS:              2 (START)      1 (STEP)
 LEVEL SHIFTS:                  0.00 (CLOSED)  0.00 (OPEN) 



 Orbital guess generated from atomic densities. Full valence occupancy:    9   2

 Molecular orbital dump at record        2100.2

 Initial occupancy:   7   1

 ITERATION    DDIFF          GRAD             ENERGY        2-EL.EN.            DIPOLE MOMENTS         DIIS   ORB.
    1      0.000D+00      0.000D+00      -129.78383978    153.322301    0.00000    0.59853   -1.06960    0    start
    2      0.000D+00      0.109D-01      -129.81073980    154.557986    0.00000    0.61999   -0.20151    1    diag
    3      0.123D-01      0.865D-02      -129.83596975    154.704375    0.00000    0.56403   -0.61460    2    diag
    4      0.618D-02      0.130D-02      -129.83679263    154.404489    0.00000    0.57109   -0.55232    3    diag
    5      0.109D-02      0.430D-03      -129.83692441    154.499839    0.00000    0.57667   -0.55488    4    diag
    6      0.461D-03      0.124D-03      -129.83694548    154.484057    0.00000    0.57698   -0.55052    5    diag
    7      0.176D-03      0.624D-04      -129.83695177    154.486425    0.00000    0.57819   -0.54775    6    diag
    8      0.123D-03      0.222D-04      -129.83695254    154.485716    0.00000    0.57820   -0.54664    7    diag
    9      0.497D-04      0.428D-05      -129.83695257    154.485595    0.00000    0.57816   -0.54640    8    diag
   10      0.987D-05      0.945D-06      -129.83695257    154.485575    0.00000    0.57813   -0.54637    9    orth
   11      0.186D-05      0.185D-06      -129.83695257    154.485572    0.00000    0.57812   -0.54637    9    diag
   12      0.346D-06      0.393D-07      -129.83695257    154.485572    0.00000    0.57812   -0.54637    9    diag
   13      0.745D-07      0.104D-07      -129.83695257    154.485572    0.00000    0.57812   -0.54637    9    diag
   14      0.205D-07      0.214D-08      -129.83695257    154.485572    0.00000    0.57812   -0.54637    9    diag
   15      0.389D-08      0.587D-09      -129.83695257    154.485572    0.00000    0.57812   -0.54637    9    diag
   16      0.108D-08      0.153D-09      -129.83695257    154.485572    0.00000    0.57812   -0.54637    9    diag
   17      0.174D-09      0.414D-10      -129.83695257    154.485572    0.00000    0.57812   -0.54637    9    diag
   18      0.486D-10      0.144D-10      -129.83695257    154.485572    0.00000    0.57812   -0.54637    0    orth

 Final occupancy:   7   1

 !RHF STATE 1.1 Energy               -129.836952572243
 Nuclear energy                        30.04829741
 One-electron energy                 -237.12803589
 Two-electron energy                   77.24278591
 Virial quotient                       -1.00259277
 !RHF STATE 1.1 Dipole moment           0.00000000     0.57811814    -0.54636579
 Dipole moment /Debye                   0.00000000     1.46933350    -1.38863237

 Orbital energies:

         1.1          2.1          3.1          4.1          5.1          6.1          7.1          8.1          9.1
    -20.657998   -15.717044    -1.518753    -0.998539    -0.742818    -0.661855    -0.434960     0.028973     0.092106

         1.2          2.2          3.2
     -0.589266     0.060695     0.129846

 HOMO      7.1    -0.434960 =     -11.8359eV
 LUMO      8.1     0.028973 =       0.7884eV
 LUMO-HOMO         0.463932 =      12.6242eV


 **********************************************************************************************************************************
 DATASETS  * FILE   NREC   LENGTH (MB)   RECORD NAMES
              1      19      111.05       500      610      700      900      950      970     1000      129      960     1100   
                                          VAR    BASINP    GEOM    SYMINP    ZMAT    AOBASIS   BASIS     P2S    ABASIS      S 
                                         1400     1410     1200     1210     1080     1600     1650     1300     1700   
                                           T        V       H0       H01     AOSYM     SMH    MOLCAS    ERIS     OPER   

              2       4        2.94       700     1000      520     2100   
                                         GEOM     BASIS   MCVARS     RHF  

 PROGRAMS   *        TOTAL        HF       INT
 CPU TIMES  *         2.60      1.15      1.36
 REAL TIME  *         3.73 SEC
 DISK USED  *       327.55 MB      
 **********************************************************************************************************************************


 PROGRAM * CCSD (Closed-shell coupled cluster)     Authors: C. Hampel, H.-J. Werner, 1991, M. Deegan, P.J. Knowles, 1992


 Convergence thresholds:  THRVAR = 1.00D-08  THRDEN = 1.00D-12

 CCSD(T)     terms to be evaluated (factor= 1.000)


 Number of core orbitals:           2 (   2   0 )
 Number of closed-shell orbitals:   6 (   5   1 )
 Number of external orbitals:     107 (  69  38 )

 Molecular orbitals read from record     2100.2  Type=RHF/CANONICAL (state 1.1)

 Number of N-1 electron functions:               6
 Number of N-2 electron functions:              21
 Number of singly external CSFs:               383
 Number of doubly external CSFs:            107206
 Total number of CSFs:                      107590

 Length of J-op  integral file:               0.00 MB
 Length of K-op  integral file:               0.54 MB
 Length of 3-ext integral record:             0.00 MB

 Memory could be reduced to 5.94 Mwords without degradation in triples

 Integral transformation finished. Total CPU:   0.18 sec, npass=  1  Memory used:   1.65 MW

 Reference energy:                   -129.83695257

 MP2 singlet pair energy:              -0.28102785
 MP2 triplet pair energy:              -0.16624867
 MP2 correlation energy:               -0.44727651
 MP2 total energy:                   -130.28422909

 SCS-MP2 correlation energy:           -0.44067703   (PS=  1.200000  PT=  0.333333)
 SCS-MP2 total energy:               -130.27762960

 ITER.      SQ.NORM     CORR.ENERGY   TOTAL ENERGY   ENERGY CHANGE        DEN1      VAR(S)    VAR(P)  DIIS     TIME  TIME/IT
   1      1.12259453    -0.45079885  -130.28775143    -0.00352234     0.01318821  0.33D-02  0.33D-02  1  1     0.34     0.19
   2      1.13409977    -0.45087430  -130.28782688    -0.00007545    -0.01281885  0.11D-03  0.54D-03  2  2     0.51     0.20
   3      1.14092512    -0.45130111  -130.28825368    -0.00042681    -0.00310550  0.58D-04  0.55D-04  3  3     0.68     0.20
   4      1.14400713    -0.45131348  -130.28826605    -0.00001237    -0.00102801  0.47D-05  0.99D-05  4  4     0.85     0.20
   5      1.14516070    -0.45134540  -130.28829797    -0.00003192    -0.00024318  0.12D-05  0.17D-05  5  5     1.01     0.20
   6      1.14552942    -0.45132634  -130.28827891     0.00001906    -0.00004548  0.11D-06  0.40D-06  6  6     1.19     0.20
   7      1.14560479    -0.45132780  -130.28828037    -0.00000146    -0.00000127  0.18D-07  0.97D-07  6  1     1.37     0.20
   8      1.14562664    -0.45132833  -130.28828090    -0.00000054     0.00000156  0.35D-08  0.19D-07  6  2     1.55     0.20
   9      1.14563567    -0.45132769  -130.28828026     0.00000064    -0.00000085  0.27D-08  0.20D-08  6  3     1.73     0.20
  10      1.14563591    -0.45132823  -130.28828081    -0.00000055    -0.00000005  0.55D-09  0.29D-09  6  4     1.90     0.20
  11      1.14563423    -0.45132836  -130.28828093    -0.00000012     0.00000055  0.17D-09  0.37D-10  6  5     2.07     0.20
  12      1.14563284    -0.45132856  -130.28828113    -0.00000020     0.00000044  0.17D-10  0.10D-10  6  6     2.26     0.20
  13      1.14563205    -0.45132858  -130.28828115    -0.00000002     0.00000018  0.60D-11  0.20D-11  6  1     2.44     0.20
  14      1.14563158    -0.45132861  -130.28828118    -0.00000002     0.00000010  0.90D-12  0.63D-12  6  2     2.62     0.20
  15      1.14563138    -0.45132861  -130.28828118    -0.00000001     0.00000002  0.27D-12  0.19D-12  6  3     2.81     0.20
  16      1.14563128    -0.45132861  -130.28828119    -0.00000000     0.00000001  0.45D-13  0.66D-13  6  4     2.98     0.20
  17      1.14563122    -0.45132862  -130.28828119    -0.00000000     0.00000001  0.30D-14  0.15D-13  6  5     3.15     0.20
  18      1.14563121    -0.45132862  -130.28828119     0.00000000     0.00000000  0.11D-14  0.36D-14  6  6     3.33     0.20
  19      1.14563121    -0.45132862  -130.28828119     0.00000000    -0.00000000  0.15D-15  0.25D-15  6  5     3.52     0.20
  20      1.14563121    -0.45132862  -130.28828119    -0.00000000    -0.00000000  0.61D-16  0.41D-16  6  1     3.72     0.20
  21      1.14563121    -0.45132862  -130.28828119     0.00000000     0.00000000  0.14D-16  0.91D-17  6  2     3.91     0.20
  22      1.14563121    -0.45132862  -130.28828119    -0.00000000     0.00000000  0.39D-17  0.11D-17  6  3     4.08     0.20
  23      1.14563121    -0.45132862  -130.28828119     0.00000000     0.00000000  0.10D-17  0.33D-18  6  4     4.28     0.20
  24      1.14563121    -0.45132862  -130.28828119    -0.00000000     0.00000000  0.29D-18  0.63D-19  6  6     4.47     0.21
  25      1.14563121    -0.45132862  -130.28828119     0.00000000    -0.00000000  0.48D-19  0.29D-19  6  5     4.65     0.21
  26      1.14563121    -0.45132862  -130.28828119     0.00000000    -0.00000000  0.73D-20  0.11D-19  6  1     4.81     0.21
  27      1.14563121    -0.45132862  -130.28828119    -0.00000000    -0.00000000  0.33D-21  0.15D-20  6  3     4.99     0.21
  28      1.14563121    -0.45132862  -130.28828119     0.00000000     0.00000000  0.82D-22  0.21D-21  6  2     5.17     0.21

 Norm of t1 vector:      0.08097032      S-energy:     0.00000000      T1 diagnostic:  0.01652800
                                                                       D1 diagnostic:  0.04414509

 Doubles amplitudes (print threshold =  0.500E-01):

         I         J         SYM. A    SYM. B    A         B      T(IJ, AB)

         6         6         2         2         1         1     -0.11542829


 Total CPU time for triples:      1.95 sec


 RESULTS
 =======

  Reference energy                   -129.836952572243
  CCSD singlet pair energy             -0.309798666423
  CCSD triplet pair energy             -0.141529951257
  CCSD correlation energy              -0.451328617677

  Triples (T) contribution             -0.021383895060
  Total correlation energy             -0.472712512738

  CCSD total energy                  -130.288281189921
  CCSD[T] energy                     -130.310799453554
  CCSD-T energy                      -130.309245177462
 !CCSD(T) total energy               -130.309665084981

 Timing summary (sec):

 STEP                 CPU(USER)    SYS     CPU(TOT)    WALL
 Transformation          0.18      0.05      0.23      0.22
 CCSD iterations         5.00      0.77      5.77      5.78
 Triples                 1.95      0.08      2.03      2.04

 Program statistics:

 Available memory in ccsd:               994999756
 Min. memory needed in ccsd:                389120
 Max. memory used in ccsd:                  473124
 Max. memory used in cckext:                599488 (28 integral passes)



 **********************************************************************************************************************************
 DATASETS  * FILE   NREC   LENGTH (MB)   RECORD NAMES
              1      20      128.20       500      610      700      900      950      970     1000      129      960     1100   
                                          VAR    BASINP    GEOM    SYMINP    ZMAT    AOBASIS   BASIS     P2S    ABASIS      S 
                                         1400     1410     1200     1210     1080     1600     1650     1300     1700     1380   
                                           T        V       H0       H01     AOSYM     SMH    MOLCAS    ERIS     OPER     JKOP   

              2       4        2.94       700     1000      520     2100   
                                         GEOM     BASIS   MCVARS     RHF  

 PROGRAMS   *        TOTAL   CCSD(T)        HF       INT
 CPU TIMES  *         9.75      7.14      1.15      1.36
 REAL TIME  *        11.80 SEC
 DISK USED  *       327.55 MB      
 **********************************************************************************************************************************

 CCSD(T)/aug-cc-pVTZ energy=   -130.309665084981

        CCSD(T)         HF-SCF  
   -130.30966508   -129.83695257
 **********************************************************************************************************************************
 Molpro calculation terminated
 Variable memory released
