
 Primary working directories    : /tmp/r2666/282152.maple
 Secondary working directories  : /tmp/r2666/282152.maple
 Wavefunction directory         : /ddn/home4/r2666/wfu/
 Main file repository           : /tmp/r2666/282152.maple/

 SHA1      : d5ffa45e93fdbca01ffc919aa182cfdae0147319
 NAME      : 2015.1.35
 ARCHNAME  : linux/x86_64
 FC        : /opt/intel/composer_xe_2015.1.133/bin/intel64/ifort
 BLASLIB   : -Wl,-_start-group /opt/intel/mkl/lib/intel64/libmkl_intel_ilp64.a /opt/intel/mkl/lib/intel64/libmkl_intel_thread.a /opt/intel/mkl/lib/intel64/libmkl_core.a -Wl,-_end-group
 id        : olemiss

 Nodes     nprocs
 cn076        1

 Using customized tuning parameters: mindgm=1; mindgv=20; mindgc=4; mindgr=1; noblas=0; minvec=7
 default implementation of scratch files=df  

 ***,hno CCSD(T)/TZ-F12 QFF
 memory, 995, m;
 gthresh,energy=1.d-12,zero=1.d-22,oneint=1.d-22,twoint=1.d-22;
 gthresh,optgrad=1.d-8,optstep=1.d-8;
 nocompress;
 geomtyp=xyz
 bohr
 geometry={
 3
         49        49
 H        0.0000000000        1.6646297621       -1.9262307064
 N        0.0000000000       -0.1592020403       -1.1350255650
 O        0.0000000000        0.0363400681        1.1106666804
 }
 
 basis=avtz
   {hf,maxit=500;accu,20;}
 {ccsd(t),nocheck,maxit=250;orbital,IGNORE_ERROR;}

 Variables initialized (889), CPU time= 0.01 sec
 Commands  initialized (702), CPU time= 0.01 sec, 572 directives.
 Default parameters read. Elapsed time= 0.06 sec

 Checking input...
 Passed
1


                                         ***  PROGRAM SYSTEM MOLPRO  ***
                                       Copyright, TTI GmbH Stuttgart, 2015
                                    Version 2015.1 linked Jul  9 2018 13:16:40


 **********************************************************************************************************************************
 LABEL *   hno CCSD(T)/TZ-F12 QFF                                                        
  64 bit serial version                                                                  DATE: 04-Mar-20          TIME: 13:46:16  
 **********************************************************************************************************************************

 SHA1:             d5ffa45e93fdbca01ffc919aa182cfdae0147319
 **********************************************************************************************************************************

 THRESHOLDS:

 ZERO    =  1.00D-22  ONEINT  =  1.00D-22  TWOINT  =  1.00D-22  PREFAC  =  1.00D-14  LOCALI  =  1.00D-09  EORDER  =  1.00D-04
 ENERGY  =  1.00D-12  ETEST   =  0.00D+00  EDENS   =  0.00D+00  THRDEDEF=  1.00D-06  GRADIENT=  1.00D-02  STEP    =  1.00D-03
 ORBITAL =  1.00D-05  CIVEC   =  1.00D-05  COEFF   =  1.00D-04  PRINTCI =  5.00D-02  PUNCHCI =  9.90D+01  OPTGRAD =  3.00D-04
 OPTENERG=  1.00D-06  OPTSTEP =  3.00D-04  THRGRAD =  1.00D-10  COMPRESS=  1.00D-11  VARMIN  =  1.00D-07  VARMAX  =  1.00D-03
 THRDOUB =  0.00D+00  THRDIV  =  1.00D-05  THRRED  =  1.00D-07  THRPSP  =  1.00D+00  THRDC   =  1.00D-10  THRCS   =  1.00D-10
 THRNRM  =  1.00D-08  THREQ   =  0.00D+00  THRDE   =  1.00D+00  THRREF  =  1.00D-05  SPARFAC =  1.00D+00  THRDLP  =  1.00D-07
 THRDIA  =  1.00D-10  THRDLS  =  1.00D-07  THRGPS  =  0.00D+00  THRKEX  =  0.00D+00  THRDIS  =  2.00D-01  THRVAR  =  1.00D-10
 THRLOC  =  1.00D-06  THRGAP  =  1.00D-06  THRLOCT = -1.00D+00  THRGAPT = -1.00D+00  THRORB  =  1.00D-06  THRMLTP =  0.00D+00
 THRCPQCI=  1.00D-10  KEXTA   =  0.00D+00  THRCOARS=  0.00D+00  SYMTOL  =  1.00D-06  GRADTOL =  1.00D-06  THROVL  =  1.00D-08
 THRORTH =  1.00D-08  GRID    =  1.00D-06  GRIDMAX =  1.00D-03  DTMAX   =  0.00D+00  THROCCDE=  1.00D-01  THROCCDE=  1.00D-01



 THRESHOLDS:

 ZERO    =  1.00D-22  ONEINT  =  1.00D-22  TWOINT  =  1.00D-22  PREFAC  =  1.00D-14  LOCALI  =  1.00D-09  EORDER  =  1.00D-04
 ENERGY  =  1.00D-12  ETEST   =  0.00D+00  EDENS   =  0.00D+00  THRDEDEF=  1.00D-06  GRADIENT=  1.00D-02  STEP    =  1.00D-03
 ORBITAL =  1.00D-05  CIVEC   =  1.00D-05  COEFF   =  1.00D-04  PRINTCI =  5.00D-02  PUNCHCI =  9.90D+01  OPTGRAD =  1.00D-08
 OPTENERG=  1.00D-06  OPTSTEP =  1.00D-08  THRGRAD =  1.00D-10  COMPRESS=  1.00D-11  VARMIN  =  1.00D-07  VARMAX  =  1.00D-03
 THRDOUB =  0.00D+00  THRDIV  =  1.00D-05  THRRED  =  1.00D-07  THRPSP  =  1.00D+00  THRDC   =  1.00D-10  THRCS   =  1.00D-10
 THRNRM  =  1.00D-08  THREQ   =  0.00D+00  THRDE   =  1.00D+00  THRREF  =  1.00D-05  SPARFAC =  1.00D+00  THRDLP  =  1.00D-07
 THRDIA  =  1.00D-10  THRDLS  =  1.00D-07  THRGPS  =  0.00D+00  THRKEX  =  0.00D+00  THRDIS  =  2.00D-01  THRVAR  =  1.00D-10
 THRLOC  =  1.00D-06  THRGAP  =  1.00D-06  THRLOCT = -1.00D+00  THRGAPT = -1.00D+00  THRORB  =  1.00D-06  THRMLTP =  0.00D+00
 THRCPQCI=  1.00D-10  KEXTA   =  0.00D+00  THRCOARS=  0.00D+00  SYMTOL  =  1.00D-06  GRADTOL =  1.00D-06  THROVL  =  1.00D-08
 THRORTH =  1.00D-08  GRID    =  1.00D-06  GRIDMAX =  1.00D-03  DTMAX   =  0.00D+00  THROCCDE=  1.00D-01  THROCCDE=  1.00D-01



 Input parameters for SORTINT:

 COMPRESS =    0.000000
 C_FINAL  =    1.000000
 DEBUG    =   -1.000000
 C_SORT1  =    0.000000
 C_SEWARD =    0.000000
 THRESH   =    0.000000
 IO       =  molpro                                                          
 SPRI     =    0.000000
 SETTING GEOMTYP        =    XYZ
 ZUNIT=BOHR
 

 Variable memory set to  995000000 words,  buffer space   230000 words

 SETTING BASIS          =    AVTZ


 Recomputing integrals since basis changed


 Using spherical harmonics

 Library entry H      S aug-cc-pVTZ          selected for orbital group  1
 Library entry H      P aug-cc-pVTZ          selected for orbital group  1
 Library entry H      D aug-cc-pVTZ          selected for orbital group  1
 Library entry N      S aug-cc-pVTZ          selected for orbital group  2
 Library entry N      P aug-cc-pVTZ          selected for orbital group  2
 Library entry N      D aug-cc-pVTZ          selected for orbital group  2
 Library entry N      F aug-cc-pVTZ          selected for orbital group  2
 Library entry O      S aug-cc-pVTZ          selected for orbital group  3
 Library entry O      P aug-cc-pVTZ          selected for orbital group  3
 Library entry O      D aug-cc-pVTZ          selected for orbital group  3
 Library entry O      F aug-cc-pVTZ          selected for orbital group  3


 PROGRAM * SEWARD (Integral evaluation for generally contracted gaussian basis sets)     Author: Roland Lindh, 1990

 Geometry written to block  1 of record 700


 Point group  Cs  



 ATOMIC COORDINATES

 NR  ATOM    CHARGE       X              Y              Z

   1  H       1.00    0.000000000    1.664629762   -1.926230706
   2  N       7.00    0.000000000   -0.159202040   -1.135025565
   3  O       8.00    0.000000000    0.036340068    1.110666680

 Bond lengths in Bohr (Angstrom)

 1-2  1.988056342  2-3  2.254189517
     ( 1.052034110)     ( 1.192865721)

 Bond angles

  1-2-3  108.47547239

 NUCLEAR CHARGE:                   16
 NUMBER OF PRIMITIVE AOS:         161
 NUMBER OF SYMMETRY AOS:          141
 NUMBER OF CONTRACTIONS:          115   (  76A'  +  39A"  )
 NUMBER OF CORE ORBITALS:           2   (   2A'  +   0A"  )
 NUMBER OF VALENCE ORBITALS:        9   (   7A'  +   2A"  )


 NUCLEAR REPULSION ENERGY   30.68527331

 Eigenvalues of metric

         1 0.227E-03 0.492E-03 0.178E-02 0.208E-02 0.241E-02 0.335E-02 0.428E-02 0.506E-02
         2 0.378E-02 0.100E-01 0.255E-01 0.367E-01 0.507E-01 0.618E-01 0.790E-01 0.118E+00


 Contracted 2-electron integrals neglected if value below      1.0D-22

       10790064. INTEGRALS WRITTEN OUT IN    2635 BLOCKS ON RECORD 1290 OF FILE 1


 NUMBER OF SORTED TWO-ELECTRON INTEGRALS:   11433631.     BUFFER LENGTH:  32768
 NUMBER OF SEGMENTS:   1  SEGMENT LENGTH:   11433631      RECORD LENGTH: 524288

 Memory used in sort:      11.99 MW

 SORT1 READ    10790064. AND WROTE    10943632. INTEGRALS IN     32 RECORDS. CPU TIME:     0.14 SEC, REAL TIME:     0.22 SEC
 SORT2 READ    10943632. AND WROTE    11433631. INTEGRALS IN      1 RECORDS. CPU TIME:     0.17 SEC, REAL TIME:     0.22 SEC

 FILE SIZES:   FILE 1:   193.0 MBYTE,  FILE 4:   134.3 MBYTE,   TOTAL:    327.2 MBYTE

 OPERATOR DM      FOR CENTER  0  COORDINATES:    0.000000    0.000000    0.000000


 **********************************************************************************************************************************
 DATASETS  * FILE   NREC   LENGTH (MB)   RECORD NAMES
              1      19      111.05       500      610      700      900      950      970     1000      129      960     1100   
                                          VAR    BASINP    GEOM    SYMINP    ZMAT    AOBASIS   BASIS     P2S    ABASIS      S 
                                         1400     1410     1200     1210     1080     1600     1650     1300     1700   
                                           T        V       H0       H01     AOSYM     SMH    MOLCAS    ERIS     OPER   

 PROGRAMS   *        TOTAL       INT
 CPU TIMES  *         1.32      1.22
 REAL TIME  *         2.02 SEC
 DISK USED  *       327.55 MB      
 **********************************************************************************************************************************


 PROGRAM * RHF-SCF (CLOSED SHELL)       Authors: W. Meyer, H.-J. Werner


 NUMBER OF ELECTRONS:       8+    8-
 CONVERGENCE THRESHOLDS:    1.00E-10 (Density)    1.00E-13 (Energy)
 MAX. NUMBER OF ITERATIONS:      500
 INTERPOLATION TYPE:            DIIS
 INTERPOLATION STEPS:              2 (START)      1 (STEP)
 LEVEL SHIFTS:                  0.00 (CLOSED)  0.00 (OPEN) 



 Orbital guess generated from atomic densities. Full valence occupancy:    9   2

 Molecular orbital dump at record        2100.2

 Initial occupancy:   7   1

 ITERATION    DDIFF          GRAD             ENERGY        2-EL.EN.            DIPOLE MOMENTS         DIIS   ORB.
    1      0.000D+00      0.000D+00      -129.79224990    154.459980    0.00000    0.58732   -0.97294    0    start
    2      0.000D+00      0.106D-01      -129.82008008    155.758912    0.00000    0.60097   -0.21657    1    diag
    3      0.115D-01      0.781D-02      -129.84032323    155.836308    0.00000    0.55108   -0.57070    2    diag
    4      0.567D-02      0.125D-02      -129.84108192    155.559850    0.00000    0.55877   -0.51325    3    diag
    5      0.105D-02      0.411D-03      -129.84120150    155.652538    0.00000    0.56438   -0.51637    4    diag
    6      0.438D-03      0.118D-03      -129.84122046    155.637204    0.00000    0.56484   -0.51258    5    diag
    7      0.167D-03      0.579D-04      -129.84122570    155.639854    0.00000    0.56614   -0.51024    6    diag
    8      0.114D-03      0.188D-04      -129.84122620    155.639252    0.00000    0.56617   -0.50936    7    diag
    9      0.395D-04      0.350D-05      -129.84122622    155.639156    0.00000    0.56614   -0.50917    8    diag
   10      0.740D-05      0.826D-06      -129.84122622    155.639137    0.00000    0.56610   -0.50914    9    orth
   11      0.162D-05      0.168D-06      -129.84122622    155.639134    0.00000    0.56610   -0.50914    9    diag
   12      0.327D-06      0.340D-07      -129.84122622    155.639133    0.00000    0.56610   -0.50914    9    diag
   13      0.708D-07      0.836D-08      -129.84122622    155.639133    0.00000    0.56610   -0.50914    9    diag
   14      0.179D-07      0.178D-08      -129.84122622    155.639133    0.00000    0.56610   -0.50914    9    diag
   15      0.371D-08      0.513D-09      -129.84122622    155.639133    0.00000    0.56610   -0.50914    9    diag
   16      0.101D-08      0.148D-09      -129.84122622    155.639133    0.00000    0.56610   -0.50914    9    diag
   17      0.195D-09      0.434D-10      -129.84122622    155.639133    0.00000    0.56610   -0.50914    9    diag
   18      0.569D-10      0.152D-10      -129.84122622    155.639133    0.00000    0.56610   -0.50914    9    diag
   19      0.269D-10      0.343D-11      -129.84122622    155.639133    0.00000    0.56610   -0.50914    9    fixocc
   20      0.719D-11      0.534D-12      -129.84122622    155.639133    0.00000    0.56610   -0.50914    0    orth

 Final occupancy:   7   1

 !RHF STATE 1.1 Energy               -129.841226218836
 Nuclear energy                        30.68527331
 One-electron energy                 -238.34606617
 Two-electron energy                   77.81956664
 Virial quotient                       -1.00168901
 !RHF STATE 1.1 Dipole moment           0.00000000     0.56609513    -0.50913508
 Dipole moment /Debye                   0.00000000     1.43877606    -1.29400753

 Orbital energies:

         1.1          2.1          3.1          4.1          5.1          6.1          7.1          8.1          9.1
    -20.655172   -15.711821    -1.543203    -0.991700    -0.751973    -0.670541    -0.425556     0.029374     0.092204

         1.2          2.2          3.2
     -0.603501     0.068986     0.130635

 HOMO      7.1    -0.425556 =     -11.5800eV
 LUMO      8.1     0.029374 =       0.7993eV
 LUMO-HOMO         0.454930 =      12.3793eV


 **********************************************************************************************************************************
 DATASETS  * FILE   NREC   LENGTH (MB)   RECORD NAMES
              1      19      111.05       500      610      700      900      950      970     1000      129      960     1100   
                                          VAR    BASINP    GEOM    SYMINP    ZMAT    AOBASIS   BASIS     P2S    ABASIS      S 
                                         1400     1410     1200     1210     1080     1600     1650     1300     1700   
                                           T        V       H0       H01     AOSYM     SMH    MOLCAS    ERIS     OPER   

              2       4        2.94       700     1000      520     2100   
                                         GEOM     BASIS   MCVARS     RHF  

 PROGRAMS   *        TOTAL        HF       INT
 CPU TIMES  *         2.32      1.00      1.22
 REAL TIME  *         3.31 SEC
 DISK USED  *       327.55 MB      
 **********************************************************************************************************************************


 PROGRAM * CCSD (Closed-shell coupled cluster)     Authors: C. Hampel, H.-J. Werner, 1991, M. Deegan, P.J. Knowles, 1992


 Convergence thresholds:  THRVAR = 1.00D-08  THRDEN = 1.00D-12

 CCSD(T)     terms to be evaluated (factor= 1.000)


 Number of core orbitals:           2 (   2   0 )
 Number of closed-shell orbitals:   6 (   5   1 )
 Number of external orbitals:     107 (  69  38 )

 Molecular orbitals read from record     2100.2  Type=RHF/CANONICAL (state 1.1)

 Number of N-1 electron functions:               6
 Number of N-2 electron functions:              21
 Number of singly external CSFs:               383
 Number of doubly external CSFs:            107206
 Total number of CSFs:                      107590

 Length of J-op  integral file:               0.00 MB
 Length of K-op  integral file:               0.54 MB
 Length of 3-ext integral record:             0.00 MB

 Memory could be reduced to 5.94 Mwords without degradation in triples

 Integral transformation finished. Total CPU:   0.13 sec, npass=  1  Memory used:   1.65 MW

 Reference energy:                   -129.84122622

 MP2 singlet pair energy:              -0.27786889
 MP2 triplet pair energy:              -0.16414066
 MP2 correlation energy:               -0.44200955
 MP2 total energy:                   -130.28323577

 SCS-MP2 correlation energy:           -0.43557464   (PS=  1.200000  PT=  0.333333)
 SCS-MP2 total energy:               -130.27680086

 ITER.      SQ.NORM     CORR.ENERGY   TOTAL ENERGY   ENERGY CHANGE        DEN1      VAR(S)    VAR(P)  DIIS     TIME  TIME/IT
   1      1.11932176    -0.44668830  -130.28791452    -0.00467874     0.01078017  0.30D-02  0.30D-02  1  1     0.27     0.15
   2      1.13008574    -0.44699469  -130.28822091    -0.00030639    -0.01208902  0.93D-04  0.49D-03  2  2     0.41     0.16
   3      1.13627008    -0.44737102  -130.28859724    -0.00037633    -0.00290248  0.50D-04  0.48D-04  3  3     0.55     0.16
   4      1.13898211    -0.44738134  -130.28860756    -0.00001031    -0.00092863  0.38D-05  0.87D-05  4  4     0.70     0.16
   5      1.13995010    -0.44740754  -130.28863375    -0.00002620    -0.00020549  0.11D-05  0.16D-05  5  5     0.85     0.16
   6      1.14027345    -0.44739241  -130.28861863     0.00001512    -0.00003895  0.97D-07  0.39D-06  6  6     0.99     0.16
   7      1.14034871    -0.44739330  -130.28861952    -0.00000089    -0.00000228  0.20D-07  0.88D-07  6  1     1.13     0.17
   8      1.14037017    -0.44739412  -130.28862034    -0.00000082     0.00000142  0.38D-08  0.15D-07  6  2     1.28     0.17
   9      1.14037538    -0.44739371  -130.28861993     0.00000041     0.00000041  0.26D-08  0.16D-08  6  4     1.44     0.17
  10      1.14037746    -0.44739417  -130.28862039    -0.00000045    -0.00000064  0.41D-09  0.18D-09  6  3     1.58     0.17
  11      1.14037692    -0.44739420  -130.28862041    -0.00000003    -0.00000004  0.14D-09  0.29D-10  6  5     1.72     0.17
  12      1.14037590    -0.44739433  -130.28862055    -0.00000014     0.00000032  0.17D-10  0.94D-11  6  6     1.87     0.17
  13      1.14037511    -0.44739437  -130.28862058    -0.00000003     0.00000020  0.58D-11  0.19D-11  6  1     2.01     0.17
  14      1.14037462    -0.44739439  -130.28862061    -0.00000003     0.00000012  0.96D-12  0.60D-12  6  2     2.15     0.17
  15      1.14037442    -0.44739440  -130.28862062    -0.00000001     0.00000003  0.26D-12  0.19D-12  6  4     2.29     0.17
  16      1.14037431    -0.44739440  -130.28862062    -0.00000000     0.00000001  0.34D-13  0.23D-13  6  5     2.43     0.17
  17      1.14037427    -0.44739440  -130.28862062    -0.00000000     0.00000000  0.66D-15  0.17D-14  6  3     2.58     0.17
  18      1.14037427    -0.44739440  -130.28862062     0.00000000    -0.00000000  0.24D-15  0.24D-15  6  6     2.71     0.17
  19      1.14037427    -0.44739440  -130.28862062     0.00000000    -0.00000000  0.72D-16  0.35D-16  6  1     2.86     0.17
  20      1.14037427    -0.44739440  -130.28862062     0.00000000    -0.00000000  0.19D-16  0.65D-17  6  2     2.99     0.17
  21      1.14037427    -0.44739440  -130.28862062     0.00000000    -0.00000000  0.31D-17  0.18D-17  6  5     3.13     0.17
  22      1.14037427    -0.44739440  -130.28862062    -0.00000000     0.00000000  0.34D-18  0.20D-18  6  4     3.27     0.17
  23      1.14037427    -0.44739440  -130.28862062     0.00000000     0.00000000  0.13D-18  0.42D-19  6  3     3.41     0.17
  24      1.14037427    -0.44739440  -130.28862062     0.00000000    -0.00000000  0.12D-19  0.58D-20  6  2     3.55     0.17
  25      1.14037427    -0.44739440  -130.28862062     0.00000000    -0.00000000  0.19D-20  0.89D-21  6  6     3.71     0.17
  26      1.14037427    -0.44739440  -130.28862062     0.00000000    -0.00000000  0.45D-21  0.21D-21  6  1     3.87     0.17

 Norm of t1 vector:      0.07612658      S-energy:     0.00000000      T1 diagnostic:  0.01553927
                                                                       D1 diagnostic:  0.04013399

 Doubles amplitudes (print threshold =  0.500E-01):

         I         J         SYM. A    SYM. B    A         B      T(IJ, AB)

         6         6         2         2         1         1     -0.10208430


 Total CPU time for triples:      1.11 sec


 RESULTS
 =======

  Reference energy                   -129.841226218836
  CCSD singlet pair energy             -0.306407788102
  CCSD triplet pair energy             -0.140986612736
  CCSD correlation energy              -0.447394400838

  Triples (T) contribution             -0.020455899031
  Total correlation energy             -0.467850299868

  CCSD total energy                  -130.288620619673
  CCSD[T] energy                     -130.310081717298
  CCSD-T energy                      -130.308687070311
 !CCSD(T) total energy               -130.309076518704

 Timing summary (sec):

 STEP                 CPU(USER)    SYS     CPU(TOT)    WALL
 Transformation          0.14      0.03      0.17      0.17
 CCSD iterations         3.74      0.62      4.36      4.35
 Triples                 1.11      0.03      1.14      1.16

 Program statistics:

 Available memory in ccsd:               994999756
 Min. memory needed in ccsd:                389120
 Max. memory used in ccsd:                  473124
 Max. memory used in cckext:                599488 (26 integral passes)



 **********************************************************************************************************************************
 DATASETS  * FILE   NREC   LENGTH (MB)   RECORD NAMES
              1      20      128.20       500      610      700      900      950      970     1000      129      960     1100   
                                          VAR    BASINP    GEOM    SYMINP    ZMAT    AOBASIS   BASIS     P2S    ABASIS      S 
                                         1400     1410     1200     1210     1080     1600     1650     1300     1700     1380   
                                           T        V       H0       H01     AOSYM     SMH    MOLCAS    ERIS     OPER     JKOP   

              2       4        2.94       700     1000      520     2100   
                                         GEOM     BASIS   MCVARS     RHF  

 PROGRAMS   *        TOTAL   CCSD(T)        HF       INT
 CPU TIMES  *         7.34      5.02      1.00      1.22
 REAL TIME  *         9.03 SEC
 DISK USED  *       327.55 MB      
 **********************************************************************************************************************************

 CCSD(T)/aug-cc-pVTZ energy=   -130.309076518704

        CCSD(T)         HF-SCF  
   -130.30907652   -129.84122622
 **********************************************************************************************************************************
 Molpro calculation terminated
 Variable memory released
