
 Primary working directories    : /tmp/r2666/282139.maple
 Secondary working directories  : /tmp/r2666/282139.maple
 Wavefunction directory         : /ddn/home4/r2666/wfu/
 Main file repository           : /tmp/r2666/282139.maple/

 SHA1      : d5ffa45e93fdbca01ffc919aa182cfdae0147319
 NAME      : 2015.1.35
 ARCHNAME  : linux/x86_64
 FC        : /opt/intel/composer_xe_2015.1.133/bin/intel64/ifort
 BLASLIB   : -Wl,-_start-group /opt/intel/mkl/lib/intel64/libmkl_intel_ilp64.a /opt/intel/mkl/lib/intel64/libmkl_intel_thread.a /opt/intel/mkl/lib/intel64/libmkl_core.a -Wl,-_end-group
 id        : olemiss

 Nodes     nprocs
 cn078        1

 Using customized tuning parameters: mindgm=1; mindgv=20; mindgc=4; mindgr=1; noblas=0; minvec=7
 default implementation of scratch files=df  

 ***,hno CCSD(T)/TZ-F12 QFF
 memory, 995, m;
 gthresh,energy=1.d-12,zero=1.d-22,oneint=1.d-22,twoint=1.d-22;
 gthresh,optgrad=1.d-8,optstep=1.d-8;
 nocompress;
 geomtyp=xyz
 bohr
 geometry={
 3
         36        36
 H        0.0000000000        1.6629009305       -1.9361883688
 N        0.0000000000       -0.1505956534       -1.1449117935
 O        0.0000000000        0.0294625129        1.1305105713
 }
 
 basis=avtz
   {hf,maxit=500;accu,20;}
 {ccsd(t),nocheck,maxit=250;orbital,IGNORE_ERROR;}

 Variables initialized (889), CPU time= 0.00 sec
 Commands  initialized (702), CPU time= 0.01 sec, 572 directives.
 Default parameters read. Elapsed time= 0.06 sec

 Checking input...
 Passed
1


                                         ***  PROGRAM SYSTEM MOLPRO  ***
                                       Copyright, TTI GmbH Stuttgart, 2015
                                    Version 2015.1 linked Jul  9 2018 13:16:40


 **********************************************************************************************************************************
 LABEL *   hno CCSD(T)/TZ-F12 QFF                                                        
  64 bit serial version                                                                  DATE: 04-Mar-20          TIME: 13:46:09  
 **********************************************************************************************************************************

 SHA1:             d5ffa45e93fdbca01ffc919aa182cfdae0147319
 **********************************************************************************************************************************

 THRESHOLDS:

 ZERO    =  1.00D-22  ONEINT  =  1.00D-22  TWOINT  =  1.00D-22  PREFAC  =  1.00D-14  LOCALI  =  1.00D-09  EORDER  =  1.00D-04
 ENERGY  =  1.00D-12  ETEST   =  0.00D+00  EDENS   =  0.00D+00  THRDEDEF=  1.00D-06  GRADIENT=  1.00D-02  STEP    =  1.00D-03
 ORBITAL =  1.00D-05  CIVEC   =  1.00D-05  COEFF   =  1.00D-04  PRINTCI =  5.00D-02  PUNCHCI =  9.90D+01  OPTGRAD =  3.00D-04
 OPTENERG=  1.00D-06  OPTSTEP =  3.00D-04  THRGRAD =  1.00D-10  COMPRESS=  1.00D-11  VARMIN  =  1.00D-07  VARMAX  =  1.00D-03
 THRDOUB =  0.00D+00  THRDIV  =  1.00D-05  THRRED  =  1.00D-07  THRPSP  =  1.00D+00  THRDC   =  1.00D-10  THRCS   =  1.00D-10
 THRNRM  =  1.00D-08  THREQ   =  0.00D+00  THRDE   =  1.00D+00  THRREF  =  1.00D-05  SPARFAC =  1.00D+00  THRDLP  =  1.00D-07
 THRDIA  =  1.00D-10  THRDLS  =  1.00D-07  THRGPS  =  0.00D+00  THRKEX  =  0.00D+00  THRDIS  =  2.00D-01  THRVAR  =  1.00D-10
 THRLOC  =  1.00D-06  THRGAP  =  1.00D-06  THRLOCT = -1.00D+00  THRGAPT = -1.00D+00  THRORB  =  1.00D-06  THRMLTP =  0.00D+00
 THRCPQCI=  1.00D-10  KEXTA   =  0.00D+00  THRCOARS=  0.00D+00  SYMTOL  =  1.00D-06  GRADTOL =  1.00D-06  THROVL  =  1.00D-08
 THRORTH =  1.00D-08  GRID    =  1.00D-06  GRIDMAX =  1.00D-03  DTMAX   =  0.00D+00  THROCCDE=  1.00D-01  THROCCDE=  1.00D-01



 THRESHOLDS:

 ZERO    =  1.00D-22  ONEINT  =  1.00D-22  TWOINT  =  1.00D-22  PREFAC  =  1.00D-14  LOCALI  =  1.00D-09  EORDER  =  1.00D-04
 ENERGY  =  1.00D-12  ETEST   =  0.00D+00  EDENS   =  0.00D+00  THRDEDEF=  1.00D-06  GRADIENT=  1.00D-02  STEP    =  1.00D-03
 ORBITAL =  1.00D-05  CIVEC   =  1.00D-05  COEFF   =  1.00D-04  PRINTCI =  5.00D-02  PUNCHCI =  9.90D+01  OPTGRAD =  1.00D-08
 OPTENERG=  1.00D-06  OPTSTEP =  1.00D-08  THRGRAD =  1.00D-10  COMPRESS=  1.00D-11  VARMIN  =  1.00D-07  VARMAX  =  1.00D-03
 THRDOUB =  0.00D+00  THRDIV  =  1.00D-05  THRRED  =  1.00D-07  THRPSP  =  1.00D+00  THRDC   =  1.00D-10  THRCS   =  1.00D-10
 THRNRM  =  1.00D-08  THREQ   =  0.00D+00  THRDE   =  1.00D+00  THRREF  =  1.00D-05  SPARFAC =  1.00D+00  THRDLP  =  1.00D-07
 THRDIA  =  1.00D-10  THRDLS  =  1.00D-07  THRGPS  =  0.00D+00  THRKEX  =  0.00D+00  THRDIS  =  2.00D-01  THRVAR  =  1.00D-10
 THRLOC  =  1.00D-06  THRGAP  =  1.00D-06  THRLOCT = -1.00D+00  THRGAPT = -1.00D+00  THRORB  =  1.00D-06  THRMLTP =  0.00D+00
 THRCPQCI=  1.00D-10  KEXTA   =  0.00D+00  THRCOARS=  0.00D+00  SYMTOL  =  1.00D-06  GRADTOL =  1.00D-06  THROVL  =  1.00D-08
 THRORTH =  1.00D-08  GRID    =  1.00D-06  GRIDMAX =  1.00D-03  DTMAX   =  0.00D+00  THROCCDE=  1.00D-01  THROCCDE=  1.00D-01



 Input parameters for SORTINT:

 COMPRESS =    0.000000
 C_FINAL  =    1.000000
 DEBUG    =   -1.000000
 C_SORT1  =    0.000000
 C_SEWARD =    0.000000
 THRESH   =    0.000000
 IO       =  molpro                                                          
 SPRI     =    0.000000
 SETTING GEOMTYP        =    XYZ
 ZUNIT=BOHR
 

 Variable memory set to  995000000 words,  buffer space   230000 words

 SETTING BASIS          =    AVTZ


 Recomputing integrals since basis changed


 Using spherical harmonics

 Library entry H      S aug-cc-pVTZ          selected for orbital group  1
 Library entry H      P aug-cc-pVTZ          selected for orbital group  1
 Library entry H      D aug-cc-pVTZ          selected for orbital group  1
 Library entry N      S aug-cc-pVTZ          selected for orbital group  2
 Library entry N      P aug-cc-pVTZ          selected for orbital group  2
 Library entry N      D aug-cc-pVTZ          selected for orbital group  2
 Library entry N      F aug-cc-pVTZ          selected for orbital group  2
 Library entry O      S aug-cc-pVTZ          selected for orbital group  3
 Library entry O      P aug-cc-pVTZ          selected for orbital group  3
 Library entry O      D aug-cc-pVTZ          selected for orbital group  3
 Library entry O      F aug-cc-pVTZ          selected for orbital group  3


 PROGRAM * SEWARD (Integral evaluation for generally contracted gaussian basis sets)     Author: Roland Lindh, 1990

 Geometry written to block  1 of record 700


 Point group  Cs  



 ATOMIC COORDINATES

 NR  ATOM    CHARGE       X              Y              Z

   1  H       1.00    0.000000000    1.662900930   -1.936188369
   2  N       7.00    0.000000000   -0.150595653   -1.144911793
   3  O       8.00    0.000000000    0.029462513    1.130510571

 Bond lengths in Bohr (Angstrom)

 1-2  1.978607712  2-3  2.282535406
     ( 1.047034111)     ( 1.207865720)

 Bond angles

  1-2-3  109.04843018

 NUCLEAR CHARGE:                   16
 NUMBER OF PRIMITIVE AOS:         161
 NUMBER OF SYMMETRY AOS:          141
 NUMBER OF CONTRACTIONS:          115   (  76A'  +  39A"  )
 NUMBER OF CORE ORBITALS:           2   (   2A'  +   0A"  )
 NUMBER OF VALENCE ORBITALS:        9   (   7A'  +   2A"  )


 NUCLEAR REPULSION ENERGY   30.37439342

 Eigenvalues of metric

         1 0.231E-03 0.494E-03 0.181E-02 0.211E-02 0.252E-02 0.357E-02 0.430E-02 0.507E-02
         2 0.394E-02 0.996E-02 0.261E-01 0.368E-01 0.509E-01 0.619E-01 0.809E-01 0.120E+00


 Contracted 2-electron integrals neglected if value below      1.0D-22

       10790064. INTEGRALS WRITTEN OUT IN    2635 BLOCKS ON RECORD 1290 OF FILE 1


 NUMBER OF SORTED TWO-ELECTRON INTEGRALS:   11433631.     BUFFER LENGTH:  32768
 NUMBER OF SEGMENTS:   1  SEGMENT LENGTH:   11433631      RECORD LENGTH: 524288

 Memory used in sort:      11.99 MW

 SORT1 READ    10790064. AND WROTE    10943632. INTEGRALS IN     32 RECORDS. CPU TIME:     0.14 SEC, REAL TIME:     0.21 SEC
 SORT2 READ    10943632. AND WROTE    11433631. INTEGRALS IN      1 RECORDS. CPU TIME:     0.17 SEC, REAL TIME:     0.22 SEC

 FILE SIZES:   FILE 1:   193.0 MBYTE,  FILE 4:   134.3 MBYTE,   TOTAL:    327.2 MBYTE

 OPERATOR DM      FOR CENTER  0  COORDINATES:    0.000000    0.000000    0.000000


 **********************************************************************************************************************************
 DATASETS  * FILE   NREC   LENGTH (MB)   RECORD NAMES
              1      19      111.05       500      610      700      900      950      970     1000      129      960     1100   
                                          VAR    BASINP    GEOM    SYMINP    ZMAT    AOBASIS   BASIS     P2S    ABASIS      S 
                                         1400     1410     1200     1210     1080     1600     1650     1300     1700   
                                           T        V       H0       H01     AOSYM     SMH    MOLCAS    ERIS     OPER   

 PROGRAMS   *        TOTAL       INT
 CPU TIMES  *         1.30      1.20
 REAL TIME  *         1.95 SEC
 DISK USED  *       327.55 MB      
 **********************************************************************************************************************************


 PROGRAM * RHF-SCF (CLOSED SHELL)       Authors: W. Meyer, H.-J. Werner


 NUMBER OF ELECTRONS:       8+    8-
 CONVERGENCE THRESHOLDS:    1.00E-10 (Density)    1.00E-13 (Energy)
 MAX. NUMBER OF ITERATIONS:      500
 INTERPOLATION TYPE:            DIIS
 INTERPOLATION STEPS:              2 (START)      1 (STEP)
 LEVEL SHIFTS:                  0.00 (CLOSED)  0.00 (OPEN) 



 Orbital guess generated from atomic densities. Full valence occupancy:    9   2

 Molecular orbital dump at record        2100.2

 Initial occupancy:   7   1

 ITERATION    DDIFF          GRAD             ENERGY        2-EL.EN.            DIPOLE MOMENTS         DIIS   ORB.
    1      0.000D+00      0.000D+00      -129.78883708    153.905071    0.00000    0.60259   -1.02191    0    start
    2      0.000D+00      0.107D-01      -129.81629412    155.172491    0.00000    0.61066   -0.21561    1    diag
    3      0.118D-01      0.816D-02      -129.83859607    155.284075    0.00000    0.56225   -0.59639    2    diag
    4      0.589D-02      0.128D-02      -129.83938841    154.996072    0.00000    0.56932   -0.53626    3    diag
    5      0.107D-02      0.419D-03      -129.83951294    155.089885    0.00000    0.57491   -0.53912    4    diag
    6      0.448D-03      0.120D-03      -129.83953268    155.074409    0.00000    0.57531   -0.53506    5    diag
    7      0.171D-03      0.597D-04      -129.83953836    155.076892    0.00000    0.57654   -0.53252    6    diag
    8      0.118D-03      0.203D-04      -129.83953896    155.076248    0.00000    0.57657   -0.53152    7    diag
    9      0.440D-04      0.385D-05      -129.83953899    155.076141    0.00000    0.57653   -0.53131    8    diag
   10      0.849D-05      0.884D-06      -129.83953899    155.076122    0.00000    0.57650   -0.53128    9    orth
   11      0.174D-05      0.175D-06      -129.83953899    155.076119    0.00000    0.57649   -0.53128    9    diag
   12      0.334D-06      0.357D-07      -129.83953899    155.076119    0.00000    0.57649   -0.53128    9    diag
   13      0.710D-07      0.899D-08      -129.83953899    155.076119    0.00000    0.57649   -0.53128    9    diag
   14      0.185D-07      0.186D-08      -129.83953899    155.076119    0.00000    0.57649   -0.53128    9    diag
   15      0.366D-08      0.518D-09      -129.83953899    155.076119    0.00000    0.57649   -0.53128    9    diag
   16      0.997D-09      0.140D-09      -129.83953899    155.076119    0.00000    0.57649   -0.53128    9    diag
   17      0.174D-09      0.385D-10      -129.83953899    155.076119    0.00000    0.57649   -0.53128    9    diag
   18      0.472D-10      0.136D-10      -129.83953899    155.076119    0.00000    0.57649   -0.53128    9    diag
   19      0.244D-10      0.297D-11      -129.83953899    155.076119    0.00000    0.57649   -0.53128    9    fixocc
   20      0.571D-11      0.525D-12      -129.83953899    155.076119    0.00000    0.57649   -0.53128    9    orth
   21      0.153D-11      0.206D-12      -129.83953899    155.076119    0.00000    0.57649   -0.53128    9    diag
   22      0.229D-11      0.603D-13      -129.83953899    155.076119    0.00000    0.57649   -0.53128    0    orth

 Final occupancy:   7   1

 !RHF STATE 1.1 Energy               -129.839538992492
 Nuclear energy                        30.37439342
 One-electron energy                 -237.75199179
 Two-electron energy                   77.53805938
 Virial quotient                       -1.00211792
 !RHF STATE 1.1 Dipole moment           0.00000000     0.57648875    -0.53127885
 Dipole moment /Debye                   0.00000000     1.46519227    -1.35028771

 Orbital energies:

         1.1          2.1          3.1          4.1          5.1          6.1          7.1          8.1          9.1
    -20.656674   -15.713614    -1.530475    -0.996825    -0.747850    -0.666291    -0.430119     0.029113     0.092123

         1.2          2.2          3.2
     -0.596089     0.064766     0.130080

 HOMO      7.1    -0.430119 =     -11.7041eV
 LUMO      8.1     0.029113 =       0.7922eV
 LUMO-HOMO         0.459232 =      12.4963eV


 **********************************************************************************************************************************
 DATASETS  * FILE   NREC   LENGTH (MB)   RECORD NAMES
              1      19      111.05       500      610      700      900      950      970     1000      129      960     1100   
                                          VAR    BASINP    GEOM    SYMINP    ZMAT    AOBASIS   BASIS     P2S    ABASIS      S 
                                         1400     1410     1200     1210     1080     1600     1650     1300     1700   
                                           T        V       H0       H01     AOSYM     SMH    MOLCAS    ERIS     OPER   

              2       4        2.94       700     1000      520     2100   
                                         GEOM     BASIS   MCVARS     RHF  

 PROGRAMS   *        TOTAL        HF       INT
 CPU TIMES  *         2.36      1.06      1.20
 REAL TIME  *         3.32 SEC
 DISK USED  *       327.55 MB      
 **********************************************************************************************************************************


 PROGRAM * CCSD (Closed-shell coupled cluster)     Authors: C. Hampel, H.-J. Werner, 1991, M. Deegan, P.J. Knowles, 1992


 Convergence thresholds:  THRVAR = 1.00D-08  THRDEN = 1.00D-12

 CCSD(T)     terms to be evaluated (factor= 1.000)


 Number of core orbitals:           2 (   2   0 )
 Number of closed-shell orbitals:   6 (   5   1 )
 Number of external orbitals:     107 (  69  38 )

 Molecular orbitals read from record     2100.2  Type=RHF/CANONICAL (state 1.1)

 Number of N-1 electron functions:               6
 Number of N-2 electron functions:              21
 Number of singly external CSFs:               383
 Number of doubly external CSFs:            107206
 Total number of CSFs:                      107590

 Length of J-op  integral file:               0.00 MB
 Length of K-op  integral file:               0.54 MB
 Length of 3-ext integral record:             0.00 MB

 Memory could be reduced to 5.94 Mwords without degradation in triples

 Integral transformation finished. Total CPU:   0.13 sec, npass=  1  Memory used:   1.65 MW

 Reference energy:                   -129.83953899

 MP2 singlet pair energy:              -0.27931412
 MP2 triplet pair energy:              -0.16511254
 MP2 correlation energy:               -0.44442666
 MP2 total energy:                   -130.28396565

 SCS-MP2 correlation energy:           -0.43791364   (PS=  1.200000  PT=  0.333333)
 SCS-MP2 total energy:               -130.27745263

 ITER.      SQ.NORM     CORR.ENERGY   TOTAL ENERGY   ENERGY CHANGE        DEN1      VAR(S)    VAR(P)  DIIS     TIME  TIME/IT
   1      1.12079421    -0.44855184  -130.28809083    -0.00412518     0.01191233  0.31D-02  0.31D-02  1  1     0.28     0.15
   2      1.13189873    -0.44874912  -130.28828812    -0.00019729    -0.01242498  0.10D-03  0.51D-03  2  2     0.40     0.16
   3      1.13837914    -0.44914841  -130.28868741    -0.00039929    -0.00299371  0.54D-04  0.51D-04  3  3     0.54     0.16
   4      1.14126977    -0.44916001  -130.28869900    -0.00001160    -0.00097588  0.42D-05  0.93D-05  4  4     0.68     0.16
   5      1.14232603    -0.44918869  -130.28872768    -0.00002868    -0.00022319  0.11D-05  0.17D-05  5  5     0.80     0.16
   6      1.14267179    -0.44917174  -130.28871073     0.00001695    -0.00004208  0.97D-07  0.41D-06  6  6     0.95     0.16
   7      1.14274760    -0.44917299  -130.28871198    -0.00000125    -0.00000181  0.18D-07  0.95D-07  6  1     1.08     0.16
   8      1.14276930    -0.44917373  -130.28871272    -0.00000074     0.00000154  0.38D-08  0.17D-07  6  2     1.23     0.16
   9      1.14277470    -0.44917328  -130.28871228     0.00000045     0.00000046  0.29D-08  0.19D-08  6  4     1.37     0.16
  10      1.14277704    -0.44917377  -130.28871276    -0.00000049    -0.00000073  0.47D-09  0.22D-09  6  3     1.51     0.16
  11      1.14277653    -0.44917380  -130.28871279    -0.00000002    -0.00000007  0.16D-09  0.35D-10  6  5     1.65     0.16
  12      1.14277545    -0.44917395  -130.28871294    -0.00000015     0.00000034  0.18D-10  0.11D-10  6  6     1.80     0.16
  13      1.14277459    -0.44917399  -130.28871298    -0.00000004     0.00000022  0.64D-11  0.23D-11  6  1     1.94     0.16
  14      1.14277403    -0.44917402  -130.28871301    -0.00000003     0.00000014  0.10D-11  0.73D-12  6  2     2.10     0.16
  15      1.14277380    -0.44917402  -130.28871302    -0.00000001     0.00000003  0.27D-12  0.23D-12  6  4     2.24     0.16
  16      1.14277370    -0.44917402  -130.28871302    -0.00000000     0.00000001  0.51D-13  0.84D-13  6  3     2.38     0.16
  17      1.14277364    -0.44917403  -130.28871302    -0.00000000     0.00000001  0.39D-14  0.20D-13  6  5     2.52     0.16
  18      1.14277363    -0.44917403  -130.28871302     0.00000000    -0.00000000  0.15D-14  0.41D-14  6  6     2.67     0.16
  19      1.14277363    -0.44917403  -130.28871302    -0.00000000     0.00000000  0.12D-14  0.74D-15  6  1     2.81     0.16
  20      1.14277363    -0.44917403  -130.28871302     0.00000000    -0.00000000  0.25D-15  0.13D-15  6  2     2.95     0.16
  21      1.14277363    -0.44917403  -130.28871302     0.00000000    -0.00000000  0.59D-16  0.33D-16  6  3     3.08     0.16
  22      1.14277363    -0.44917403  -130.28871302     0.00000000     0.00000000  0.67D-17  0.29D-17  6  4     3.20     0.16
  23      1.14277363    -0.44917403  -130.28871302     0.00000000    -0.00000000  0.24D-17  0.60D-18  6  5     3.36     0.16
  24      1.14277363    -0.44917403  -130.28871302     0.00000000     0.00000000  0.16D-18  0.52D-19  6  2     3.50     0.16
  25      1.14277363    -0.44917403  -130.28871302    -0.00000000    -0.00000000  0.25D-19  0.13D-19  6  6     3.66     0.16
  26      1.14277363    -0.44917403  -130.28871302     0.00000000    -0.00000000  0.39D-20  0.23D-20  6  1     3.80     0.16
  27      1.14277363    -0.44917403  -130.28871302    -0.00000000    -0.00000000  0.52D-21  0.55D-21  6  4     3.93     0.16

 Norm of t1 vector:      0.07845183      S-energy:    -0.00000000      T1 diagnostic:  0.01601391
                                                                       D1 diagnostic:  0.04214776

 Doubles amplitudes (print threshold =  0.500E-01):

         I         J         SYM. A    SYM. B    A         B      T(IJ, AB)

         6         6         2         2         1         1     -0.10892755


 Total CPU time for triples:      1.11 sec


 RESULTS
 =======

  Reference energy                   -129.839538992492
  CCSD singlet pair energy             -0.307942391136
  CCSD triplet pair energy             -0.141231636670
  CCSD correlation energy              -0.449174027807

  Triples (T) contribution             -0.020887297110
  Total correlation energy             -0.470061324917

  CCSD total energy                  -130.288713020298
  CCSD[T] energy                     -130.310666159578
  CCSD-T energy                      -130.309196783693
 !CCSD(T) total energy               -130.309600317409

 Timing summary (sec):

 STEP                 CPU(USER)    SYS     CPU(TOT)    WALL
 Transformation          0.13      0.04      0.17      0.17
 CCSD iterations         3.80      0.57      4.37      4.37
 Triples                 1.11      0.04      1.15      1.15

 Program statistics:

 Available memory in ccsd:               994999756
 Min. memory needed in ccsd:                389120
 Max. memory used in ccsd:                  473124
 Max. memory used in cckext:                599488 (27 integral passes)



 **********************************************************************************************************************************
 DATASETS  * FILE   NREC   LENGTH (MB)   RECORD NAMES
              1      20      128.20       500      610      700      900      950      970     1000      129      960     1100   
                                          VAR    BASINP    GEOM    SYMINP    ZMAT    AOBASIS   BASIS     P2S    ABASIS      S 
                                         1400     1410     1200     1210     1080     1600     1650     1300     1700     1380   
                                           T        V       H0       H01     AOSYM     SMH    MOLCAS    ERIS     OPER     JKOP   

              2       4        2.94       700     1000      520     2100   
                                         GEOM     BASIS   MCVARS     RHF  

 PROGRAMS   *        TOTAL   CCSD(T)        HF       INT
 CPU TIMES  *         7.44      5.07      1.06      1.20
 REAL TIME  *         9.07 SEC
 DISK USED  *       327.55 MB      
 **********************************************************************************************************************************

 CCSD(T)/aug-cc-pVTZ energy=   -130.309600317409

        CCSD(T)         HF-SCF  
   -130.30960032   -129.83953899
 **********************************************************************************************************************************
 Molpro calculation terminated
 Variable memory released
