
 Primary working directories    : /tmp/r2666/282192.maple
 Secondary working directories  : /tmp/r2666/282192.maple
 Wavefunction directory         : /ddn/home4/r2666/wfu/
 Main file repository           : /tmp/r2666/282192.maple/

 SHA1      : d5ffa45e93fdbca01ffc919aa182cfdae0147319
 NAME      : 2015.1.35
 ARCHNAME  : linux/x86_64
 FC        : /opt/intel/composer_xe_2015.1.133/bin/intel64/ifort
 BLASLIB   : -Wl,-_start-group /opt/intel/mkl/lib/intel64/libmkl_intel_ilp64.a /opt/intel/mkl/lib/intel64/libmkl_intel_thread.a /opt/intel/mkl/lib/intel64/libmkl_core.a -Wl,-_end-group
 id        : olemiss

 Nodes     nprocs
 cn074        1

 Using customized tuning parameters: mindgm=1; mindgv=20; mindgc=4; mindgr=1; noblas=0; minvec=7
 default implementation of scratch files=df  

 ***,hno CCSD(T)/TZ-F12 QFF
 memory, 995, m;
 gthresh,energy=1.d-12,zero=1.d-22,oneint=1.d-22,twoint=1.d-22;
 gthresh,optgrad=1.d-8,optstep=1.d-8;
 nocompress;
 geomtyp=xyz
 bohr
 geometry={
 3
         89        89
 H        0.0000000000        1.6699902840       -1.9320060870
 N        0.0000000000       -0.1624196859       -1.1368332659
 O        0.0000000000        0.0341971920        1.1182497618
 }
 
 basis=avtz
   {hf,maxit=500;accu,20;}
 {ccsd(t),nocheck,maxit=250;orbital,IGNORE_ERROR;}

 Variables initialized (889), CPU time= 0.01 sec
 Commands  initialized (702), CPU time= 0.01 sec, 572 directives.
 Default parameters read. Elapsed time= 0.04 sec

 Checking input...
 Passed
1


                                         ***  PROGRAM SYSTEM MOLPRO  ***
                                       Copyright, TTI GmbH Stuttgart, 2015
                                    Version 2015.1 linked Jul  9 2018 13:16:40


 **********************************************************************************************************************************
 LABEL *   hno CCSD(T)/TZ-F12 QFF                                                        
  64 bit serial version                                                                  DATE: 04-Mar-20          TIME: 13:46:34  
 **********************************************************************************************************************************

 SHA1:             d5ffa45e93fdbca01ffc919aa182cfdae0147319
 **********************************************************************************************************************************

 THRESHOLDS:

 ZERO    =  1.00D-22  ONEINT  =  1.00D-22  TWOINT  =  1.00D-22  PREFAC  =  1.00D-14  LOCALI  =  1.00D-09  EORDER  =  1.00D-04
 ENERGY  =  1.00D-12  ETEST   =  0.00D+00  EDENS   =  0.00D+00  THRDEDEF=  1.00D-06  GRADIENT=  1.00D-02  STEP    =  1.00D-03
 ORBITAL =  1.00D-05  CIVEC   =  1.00D-05  COEFF   =  1.00D-04  PRINTCI =  5.00D-02  PUNCHCI =  9.90D+01  OPTGRAD =  3.00D-04
 OPTENERG=  1.00D-06  OPTSTEP =  3.00D-04  THRGRAD =  1.00D-10  COMPRESS=  1.00D-11  VARMIN  =  1.00D-07  VARMAX  =  1.00D-03
 THRDOUB =  0.00D+00  THRDIV  =  1.00D-05  THRRED  =  1.00D-07  THRPSP  =  1.00D+00  THRDC   =  1.00D-10  THRCS   =  1.00D-10
 THRNRM  =  1.00D-08  THREQ   =  0.00D+00  THRDE   =  1.00D+00  THRREF  =  1.00D-05  SPARFAC =  1.00D+00  THRDLP  =  1.00D-07
 THRDIA  =  1.00D-10  THRDLS  =  1.00D-07  THRGPS  =  0.00D+00  THRKEX  =  0.00D+00  THRDIS  =  2.00D-01  THRVAR  =  1.00D-10
 THRLOC  =  1.00D-06  THRGAP  =  1.00D-06  THRLOCT = -1.00D+00  THRGAPT = -1.00D+00  THRORB  =  1.00D-06  THRMLTP =  0.00D+00
 THRCPQCI=  1.00D-10  KEXTA   =  0.00D+00  THRCOARS=  0.00D+00  SYMTOL  =  1.00D-06  GRADTOL =  1.00D-06  THROVL  =  1.00D-08
 THRORTH =  1.00D-08  GRID    =  1.00D-06  GRIDMAX =  1.00D-03  DTMAX   =  0.00D+00  THROCCDE=  1.00D-01  THROCCDE=  1.00D-01



 THRESHOLDS:

 ZERO    =  1.00D-22  ONEINT  =  1.00D-22  TWOINT  =  1.00D-22  PREFAC  =  1.00D-14  LOCALI  =  1.00D-09  EORDER  =  1.00D-04
 ENERGY  =  1.00D-12  ETEST   =  0.00D+00  EDENS   =  0.00D+00  THRDEDEF=  1.00D-06  GRADIENT=  1.00D-02  STEP    =  1.00D-03
 ORBITAL =  1.00D-05  CIVEC   =  1.00D-05  COEFF   =  1.00D-04  PRINTCI =  5.00D-02  PUNCHCI =  9.90D+01  OPTGRAD =  1.00D-08
 OPTENERG=  1.00D-06  OPTSTEP =  1.00D-08  THRGRAD =  1.00D-10  COMPRESS=  1.00D-11  VARMIN  =  1.00D-07  VARMAX  =  1.00D-03
 THRDOUB =  0.00D+00  THRDIV  =  1.00D-05  THRRED  =  1.00D-07  THRPSP  =  1.00D+00  THRDC   =  1.00D-10  THRCS   =  1.00D-10
 THRNRM  =  1.00D-08  THREQ   =  0.00D+00  THRDE   =  1.00D+00  THRREF  =  1.00D-05  SPARFAC =  1.00D+00  THRDLP  =  1.00D-07
 THRDIA  =  1.00D-10  THRDLS  =  1.00D-07  THRGPS  =  0.00D+00  THRKEX  =  0.00D+00  THRDIS  =  2.00D-01  THRVAR  =  1.00D-10
 THRLOC  =  1.00D-06  THRGAP  =  1.00D-06  THRLOCT = -1.00D+00  THRGAPT = -1.00D+00  THRORB  =  1.00D-06  THRMLTP =  0.00D+00
 THRCPQCI=  1.00D-10  KEXTA   =  0.00D+00  THRCOARS=  0.00D+00  SYMTOL  =  1.00D-06  GRADTOL =  1.00D-06  THROVL  =  1.00D-08
 THRORTH =  1.00D-08  GRID    =  1.00D-06  GRIDMAX =  1.00D-03  DTMAX   =  0.00D+00  THROCCDE=  1.00D-01  THROCCDE=  1.00D-01



 Input parameters for SORTINT:

 COMPRESS =    0.000000
 C_FINAL  =    1.000000
 DEBUG    =   -1.000000
 C_SORT1  =    0.000000
 C_SEWARD =    0.000000
 THRESH   =    0.000000
 IO       =  molpro                                                          
 SPRI     =    0.000000
 SETTING GEOMTYP        =    XYZ
 ZUNIT=BOHR
 

 Variable memory set to  995000000 words,  buffer space   230000 words

 SETTING BASIS          =    AVTZ


 Recomputing integrals since basis changed


 Using spherical harmonics

 Library entry H      S aug-cc-pVTZ          selected for orbital group  1
 Library entry H      P aug-cc-pVTZ          selected for orbital group  1
 Library entry H      D aug-cc-pVTZ          selected for orbital group  1
 Library entry N      S aug-cc-pVTZ          selected for orbital group  2
 Library entry N      P aug-cc-pVTZ          selected for orbital group  2
 Library entry N      D aug-cc-pVTZ          selected for orbital group  2
 Library entry N      F aug-cc-pVTZ          selected for orbital group  2
 Library entry O      S aug-cc-pVTZ          selected for orbital group  3
 Library entry O      P aug-cc-pVTZ          selected for orbital group  3
 Library entry O      D aug-cc-pVTZ          selected for orbital group  3
 Library entry O      F aug-cc-pVTZ          selected for orbital group  3


 PROGRAM * SEWARD (Integral evaluation for generally contracted gaussian basis sets)     Author: Roland Lindh, 1990

 Geometry written to block  1 of record 700


 Point group  Cs  



 ATOMIC COORDINATES

 NR  ATOM    CHARGE       X              Y              Z

   1  H       1.00    0.000000000    1.669990284   -1.932006087
   2  N       7.00    0.000000000   -0.162419686   -1.136833266
   3  O       8.00    0.000000000    0.034197192    1.118249762

 Bond lengths in Bohr (Angstrom)

 1-2  1.997504972  2-3  2.263638147
     ( 1.057034110)     ( 1.197865721)

 Bond angles

  1-2-3  108.47547239

 NUCLEAR CHARGE:                   16
 NUMBER OF PRIMITIVE AOS:         161
 NUMBER OF SYMMETRY AOS:          141
 NUMBER OF CONTRACTIONS:          115   (  76A'  +  39A"  )
 NUMBER OF CORE ORBITALS:           2   (   2A'  +   0A"  )
 NUMBER OF VALENCE ORBITALS:        9   (   7A'  +   2A"  )


 NUCLEAR REPULSION ENERGY   30.55464767

 Eigenvalues of metric

         1 0.230E-03 0.497E-03 0.179E-02 0.211E-02 0.245E-02 0.343E-02 0.431E-02 0.514E-02
         2 0.384E-02 0.102E-01 0.258E-01 0.370E-01 0.509E-01 0.622E-01 0.801E-01 0.119E+00


 Contracted 2-electron integrals neglected if value below      1.0D-22

       10790064. INTEGRALS WRITTEN OUT IN    2635 BLOCKS ON RECORD 1290 OF FILE 1


 NUMBER OF SORTED TWO-ELECTRON INTEGRALS:   11433631.     BUFFER LENGTH:  32768
 NUMBER OF SEGMENTS:   1  SEGMENT LENGTH:   11433631      RECORD LENGTH: 524288

 Memory used in sort:      11.99 MW

 SORT1 READ    10790064. AND WROTE    10943632. INTEGRALS IN     32 RECORDS. CPU TIME:     0.15 SEC, REAL TIME:     0.22 SEC
 SORT2 READ    10943632. AND WROTE    11433631. INTEGRALS IN      1 RECORDS. CPU TIME:     0.17 SEC, REAL TIME:     0.23 SEC

 FILE SIZES:   FILE 1:   193.0 MBYTE,  FILE 4:   134.3 MBYTE,   TOTAL:    327.2 MBYTE

 OPERATOR DM      FOR CENTER  0  COORDINATES:    0.000000    0.000000    0.000000


 **********************************************************************************************************************************
 DATASETS  * FILE   NREC   LENGTH (MB)   RECORD NAMES
              1      19      111.05       500      610      700      900      950      970     1000      129      960     1100   
                                          VAR    BASINP    GEOM    SYMINP    ZMAT    AOBASIS   BASIS     P2S    ABASIS      S 
                                         1400     1410     1200     1210     1080     1600     1650     1300     1700   
                                           T        V       H0       H01     AOSYM     SMH    MOLCAS    ERIS     OPER   

 PROGRAMS   *        TOTAL       INT
 CPU TIMES  *         1.30      1.21
 REAL TIME  *         2.03 SEC
 DISK USED  *       327.55 MB      
 **********************************************************************************************************************************


 PROGRAM * RHF-SCF (CLOSED SHELL)       Authors: W. Meyer, H.-J. Werner


 NUMBER OF ELECTRONS:       8+    8-
 CONVERGENCE THRESHOLDS:    1.00E-10 (Density)    1.00E-13 (Energy)
 MAX. NUMBER OF ITERATIONS:      500
 INTERPOLATION TYPE:            DIIS
 INTERPOLATION STEPS:              2 (START)      1 (STEP)
 LEVEL SHIFTS:                  0.00 (CLOSED)  0.00 (OPEN) 



 Orbital guess generated from atomic densities. Full valence occupancy:    9   2

 Molecular orbital dump at record        2100.2

 Initial occupancy:   7   1

 ITERATION    DDIFF          GRAD             ENERGY        2-EL.EN.            DIPOLE MOMENTS         DIIS   ORB.
    1      0.000D+00      0.000D+00      -129.79066110    154.221652    0.00000    0.58639   -0.98934    0    start
    2      0.000D+00      0.106D-01      -129.81838982    155.518270    0.00000    0.60363   -0.21296    1    diag
    3      0.117D-01      0.798D-02      -129.83959010    155.605063    0.00000    0.55171   -0.57773    2    diag
    4      0.577D-02      0.126D-02      -129.84036108    155.323820    0.00000    0.55924   -0.51943    3    diag
    5      0.106D-02      0.415D-03      -129.84048365    155.417375    0.00000    0.56492   -0.52249    4    diag
    6      0.443D-03      0.120D-03      -129.84050318    155.401907    0.00000    0.56536   -0.51859    5    diag
    7      0.170D-03      0.589D-04      -129.84050864    155.404535    0.00000    0.56666   -0.51618    6    diag
    8      0.116D-03      0.194D-04      -129.84050918    155.403914    0.00000    0.56669   -0.51526    7    diag
    9      0.412D-04      0.365D-05      -129.84050920    155.403812    0.00000    0.56665   -0.51506    8    diag
   10      0.781D-05      0.852D-06      -129.84050920    155.403792    0.00000    0.56662   -0.51503    9    orth
   11      0.167D-05      0.172D-06      -129.84050920    155.403789    0.00000    0.56661   -0.51503    9    diag
   12      0.333D-06      0.350D-07      -129.84050920    155.403789    0.00000    0.56661   -0.51503    9    diag
   13      0.722D-07      0.869D-08      -129.84050920    155.403789    0.00000    0.56661   -0.51503    9    diag
   14      0.185D-07      0.184D-08      -129.84050920    155.403789    0.00000    0.56661   -0.51503    9    diag
   15      0.379D-08      0.525D-09      -129.84050920    155.403789    0.00000    0.56661   -0.51503    9    diag
   16      0.103D-08      0.149D-09      -129.84050920    155.403789    0.00000    0.56661   -0.51503    9    diag
   17      0.195D-09      0.439D-10      -129.84050920    155.403789    0.00000    0.56661   -0.51503    9    diag
   18      0.565D-10      0.156D-10      -129.84050920    155.403789    0.00000    0.56661   -0.51503    9    diag
   19      0.279D-10      0.350D-11      -129.84050920    155.403789    0.00000    0.56661   -0.51503    0    orth

 Final occupancy:   7   1

 !RHF STATE 1.1 Energy               -129.840509203729
 Nuclear energy                        30.55464767
 One-electron energy                 -238.09705121
 Two-electron energy                   77.70189434
 Virial quotient                       -1.00191044
 !RHF STATE 1.1 Dipole moment           0.00000000     0.56661051    -0.51502747
 Dipole moment /Debye                   0.00000000     1.44008593    -1.30898352

 Orbital energies:

         1.1          2.1          3.1          4.1          5.1          6.1          7.1          8.1          9.1
    -20.655770   -15.713365    -1.538955    -0.991613    -0.749868    -0.669088    -0.426837     0.029300     0.092186

         1.2          2.2          3.2
     -0.601135     0.067622     0.130566

 HOMO      7.1    -0.426837 =     -11.6148eV
 LUMO      8.1     0.029300 =       0.7973eV
 LUMO-HOMO         0.456137 =      12.4121eV


 **********************************************************************************************************************************
 DATASETS  * FILE   NREC   LENGTH (MB)   RECORD NAMES
              1      19      111.05       500      610      700      900      950      970     1000      129      960     1100   
                                          VAR    BASINP    GEOM    SYMINP    ZMAT    AOBASIS   BASIS     P2S    ABASIS      S 
                                         1400     1410     1200     1210     1080     1600     1650     1300     1700   
                                           T        V       H0       H01     AOSYM     SMH    MOLCAS    ERIS     OPER   

              2       4        2.94       700     1000      520     2100   
                                         GEOM     BASIS   MCVARS     RHF  

 PROGRAMS   *        TOTAL        HF       INT
 CPU TIMES  *         2.25      0.94      1.21
 REAL TIME  *         3.32 SEC
 DISK USED  *       327.55 MB      
 **********************************************************************************************************************************


 PROGRAM * CCSD (Closed-shell coupled cluster)     Authors: C. Hampel, H.-J. Werner, 1991, M. Deegan, P.J. Knowles, 1992


 Convergence thresholds:  THRVAR = 1.00D-08  THRDEN = 1.00D-12

 CCSD(T)     terms to be evaluated (factor= 1.000)


 Number of core orbitals:           2 (   2   0 )
 Number of closed-shell orbitals:   6 (   5   1 )
 Number of external orbitals:     107 (  69  38 )

 Molecular orbitals read from record     2100.2  Type=RHF/CANONICAL (state 1.1)

 Number of N-1 electron functions:               6
 Number of N-2 electron functions:              21
 Number of singly external CSFs:               383
 Number of doubly external CSFs:            107206
 Total number of CSFs:                      107590

 Length of J-op  integral file:               0.00 MB
 Length of K-op  integral file:               0.54 MB
 Length of 3-ext integral record:             0.00 MB

 Memory could be reduced to 5.94 Mwords without degradation in triples

 Integral transformation finished. Total CPU:   0.13 sec, npass=  1  Memory used:   1.65 MW

 Reference energy:                   -129.84050920

 MP2 singlet pair energy:              -0.27850576
 MP2 triplet pair energy:              -0.16455354
 MP2 correlation energy:               -0.44305930
 MP2 total energy:                   -130.28356850

 SCS-MP2 correlation energy:           -0.43659578   (PS=  1.200000  PT=  0.333333)
 SCS-MP2 total energy:               -130.27710498

 ITER.      SQ.NORM     CORR.ENERGY   TOTAL ENERGY   ENERGY CHANGE        DEN1      VAR(S)    VAR(P)  DIIS     TIME  TIME/IT
   1      1.12003284    -0.44754030  -130.28804950    -0.00448100     0.01122079  0.30D-02  0.30D-02  1  1     0.30     0.17
   2      1.13094850    -0.44780865  -130.28831785    -0.00026835    -0.01223283  0.96D-04  0.50D-03  2  2     0.45     0.17
   3      1.13726615    -0.44819641  -130.28870561    -0.00038776    -0.00294686  0.52D-04  0.49D-04  3  3     0.60     0.17
   4      1.14004570    -0.44820624  -130.28871544    -0.00000983    -0.00094787  0.40D-05  0.89D-05  4  4     0.74     0.17
   5      1.14104974    -0.44823358  -130.28874279    -0.00002734    -0.00021307  0.11D-05  0.16D-05  5  5     0.89     0.17
   6      1.14138209    -0.44821779  -130.28872699     0.00001580    -0.00004015  0.10D-06  0.39D-06  6  6     1.01     0.17
   7      1.14145817    -0.44821866  -130.28872786    -0.00000087    -0.00000219  0.20D-07  0.90D-07  6  1     1.15     0.17
   8      1.14148009    -0.44821942  -130.28872863    -0.00000077     0.00000134  0.37D-08  0.16D-07  6  2     1.31     0.17
   9      1.14148553    -0.44821898  -130.28872819     0.00000044     0.00000046  0.26D-08  0.17D-08  6  4     1.46     0.17
  10      1.14148772    -0.44821945  -130.28872866    -0.00000047    -0.00000068  0.42D-09  0.20D-09  6  3     1.60     0.17
  11      1.14148718    -0.44821948  -130.28872868    -0.00000003    -0.00000005  0.15D-09  0.31D-10  6  5     1.73     0.17
  12      1.14148614    -0.44821962  -130.28872883    -0.00000014     0.00000033  0.17D-10  0.10D-10  6  6     1.88     0.17
  13      1.14148532    -0.44821966  -130.28872886    -0.00000003     0.00000021  0.61D-11  0.20D-11  6  1     2.03     0.17
  14      1.14148480    -0.44821968  -130.28872889    -0.00000003     0.00000013  0.10D-11  0.63D-12  6  2     2.17     0.17
  15      1.14148459    -0.44821969  -130.28872889    -0.00000001     0.00000003  0.28D-12  0.20D-12  6  4     2.32     0.17
  16      1.14148447    -0.44821969  -130.28872890    -0.00000000     0.00000001  0.36D-13  0.24D-13  6  5     2.46     0.17
  17      1.14148444    -0.44821969  -130.28872890    -0.00000000     0.00000000  0.66D-15  0.17D-14  6  3     2.59     0.17
  18      1.14148444    -0.44821969  -130.28872890     0.00000000    -0.00000000  0.22D-15  0.24D-15  6  6     2.75     0.17
  19      1.14148444    -0.44821969  -130.28872890     0.00000000    -0.00000000  0.66D-16  0.34D-16  6  1     2.90     0.17
  20      1.14148444    -0.44821969  -130.28872890     0.00000000    -0.00000000  0.18D-16  0.59D-17  6  2     3.05     0.17
  21      1.14148444    -0.44821969  -130.28872890     0.00000000    -0.00000000  0.29D-17  0.16D-17  6  5     3.20     0.17
  22      1.14148444    -0.44821969  -130.28872890    -0.00000000     0.00000000  0.31D-18  0.18D-18  6  4     3.33     0.17
  23      1.14148444    -0.44821969  -130.28872890     0.00000000     0.00000000  0.11D-18  0.39D-19  6  3     3.47     0.17
  24      1.14148444    -0.44821969  -130.28872890     0.00000000     0.00000000  0.11D-19  0.55D-20  6  2     3.61     0.17
  25      1.14148444    -0.44821969  -130.28872890     0.00000000    -0.00000000  0.18D-20  0.89D-21  6  6     3.76     0.17
  26      1.14148444    -0.44821969  -130.28872890     0.00000000    -0.00000000  0.43D-21  0.22D-21  6  1     3.91     0.17

 Norm of t1 vector:      0.07713539      S-energy:     0.00000000      T1 diagnostic:  0.01574520
                                                                       D1 diagnostic:  0.04079169

 Doubles amplitudes (print threshold =  0.500E-01):

         I         J         SYM. A    SYM. B    A         B      T(IJ, AB)

         6         6         2         2         1         1     -0.10435580


 Total CPU time for triples:      1.18 sec


 RESULTS
 =======

  Reference energy                   -129.840509203729
  CCSD singlet pair energy             -0.307116327068
  CCSD triplet pair energy             -0.141103367355
  CCSD correlation energy              -0.448219694422

  Triples (T) contribution             -0.020640421042
  Total correlation energy             -0.468860115464

  CCSD total energy                  -130.288728898151
  CCSD[T] energy                     -130.310400203096
  CCSD-T energy                      -130.308972750635
 !CCSD(T) total energy               -130.309369319192

 Timing summary (sec):

 STEP                 CPU(USER)    SYS     CPU(TOT)    WALL
 Transformation          0.14      0.05      0.19      0.34
 CCSD iterations         3.77      0.55      4.32      4.32
 Triples                 1.18      0.05      1.23      1.23

 Program statistics:

 Available memory in ccsd:               994999756
 Min. memory needed in ccsd:                389120
 Max. memory used in ccsd:                  473124
 Max. memory used in cckext:                599488 (26 integral passes)



 **********************************************************************************************************************************
 DATASETS  * FILE   NREC   LENGTH (MB)   RECORD NAMES
              1      20      128.20       500      610      700      900      950      970     1000      129      960     1100   
                                          VAR    BASINP    GEOM    SYMINP    ZMAT    AOBASIS   BASIS     P2S    ABASIS      S 
                                         1400     1410     1200     1210     1080     1600     1650     1300     1700     1380   
                                           T        V       H0       H01     AOSYM     SMH    MOLCAS    ERIS     OPER     JKOP   

              2       4        2.94       700     1000      520     2100   
                                         GEOM     BASIS   MCVARS     RHF  

 PROGRAMS   *        TOTAL   CCSD(T)        HF       INT
 CPU TIMES  *         7.37      5.11      0.94      1.21
 REAL TIME  *         9.36 SEC
 DISK USED  *       327.55 MB      
 **********************************************************************************************************************************

 CCSD(T)/aug-cc-pVTZ energy=   -130.309369319192

        CCSD(T)         HF-SCF  
   -130.30936932   -129.84050920
 **********************************************************************************************************************************
 Molpro calculation terminated
 Variable memory released
