
 Primary working directories    : /tmp/r2666/282187.maple
 Secondary working directories  : /tmp/r2666/282187.maple
 Wavefunction directory         : /ddn/home4/r2666/wfu/
 Main file repository           : /tmp/r2666/282187.maple/

 SHA1      : d5ffa45e93fdbca01ffc919aa182cfdae0147319
 NAME      : 2015.1.35
 ARCHNAME  : linux/x86_64
 FC        : /opt/intel/composer_xe_2015.1.133/bin/intel64/ifort
 BLASLIB   : -Wl,-_start-group /opt/intel/mkl/lib/intel64/libmkl_intel_ilp64.a /opt/intel/mkl/lib/intel64/libmkl_intel_thread.a /opt/intel/mkl/lib/intel64/libmkl_core.a -Wl,-_end-group
 id        : olemiss

 Nodes     nprocs
 cn094        1

 Using customized tuning parameters: mindgm=1; mindgv=20; mindgc=4; mindgr=1; noblas=0; minvec=7
 default implementation of scratch files=df  

 ***,hno CCSD(T)/TZ-F12 QFF
 memory, 995, m;
 gthresh,energy=1.d-12,zero=1.d-22,oneint=1.d-22,twoint=1.d-22;
 gthresh,optgrad=1.d-8,optstep=1.d-8;
 nocompress;
 geomtyp=xyz
 bohr
 geometry={
 3
         84        84
 H        0.0000000000        1.6694828768       -1.9392661270
 N        0.0000000000       -0.1583018339       -1.1572360315
 O        0.0000000000        0.0305867471        1.1459125676
 }
 
 basis=avtz
   {hf,maxit=500;accu,20;}
 {ccsd(t),nocheck,maxit=250;orbital,IGNORE_ERROR;}

 Variables initialized (889), CPU time= 0.00 sec
 Commands  initialized (702), CPU time= 0.01 sec, 572 directives.
 Default parameters read. Elapsed time= 0.07 sec

 Checking input...
 Passed
1


                                         ***  PROGRAM SYSTEM MOLPRO  ***
                                       Copyright, TTI GmbH Stuttgart, 2015
                                    Version 2015.1 linked Jul  9 2018 13:16:40


 **********************************************************************************************************************************
 LABEL *   hno CCSD(T)/TZ-F12 QFF                                                        
  64 bit serial version                                                                  DATE: 04-Mar-20          TIME: 13:46:34  
 **********************************************************************************************************************************

 SHA1:             d5ffa45e93fdbca01ffc919aa182cfdae0147319
 **********************************************************************************************************************************

 THRESHOLDS:

 ZERO    =  1.00D-22  ONEINT  =  1.00D-22  TWOINT  =  1.00D-22  PREFAC  =  1.00D-14  LOCALI  =  1.00D-09  EORDER  =  1.00D-04
 ENERGY  =  1.00D-12  ETEST   =  0.00D+00  EDENS   =  0.00D+00  THRDEDEF=  1.00D-06  GRADIENT=  1.00D-02  STEP    =  1.00D-03
 ORBITAL =  1.00D-05  CIVEC   =  1.00D-05  COEFF   =  1.00D-04  PRINTCI =  5.00D-02  PUNCHCI =  9.90D+01  OPTGRAD =  3.00D-04
 OPTENERG=  1.00D-06  OPTSTEP =  3.00D-04  THRGRAD =  1.00D-10  COMPRESS=  1.00D-11  VARMIN  =  1.00D-07  VARMAX  =  1.00D-03
 THRDOUB =  0.00D+00  THRDIV  =  1.00D-05  THRRED  =  1.00D-07  THRPSP  =  1.00D+00  THRDC   =  1.00D-10  THRCS   =  1.00D-10
 THRNRM  =  1.00D-08  THREQ   =  0.00D+00  THRDE   =  1.00D+00  THRREF  =  1.00D-05  SPARFAC =  1.00D+00  THRDLP  =  1.00D-07
 THRDIA  =  1.00D-10  THRDLS  =  1.00D-07  THRGPS  =  0.00D+00  THRKEX  =  0.00D+00  THRDIS  =  2.00D-01  THRVAR  =  1.00D-10
 THRLOC  =  1.00D-06  THRGAP  =  1.00D-06  THRLOCT = -1.00D+00  THRGAPT = -1.00D+00  THRORB  =  1.00D-06  THRMLTP =  0.00D+00
 THRCPQCI=  1.00D-10  KEXTA   =  0.00D+00  THRCOARS=  0.00D+00  SYMTOL  =  1.00D-06  GRADTOL =  1.00D-06  THROVL  =  1.00D-08
 THRORTH =  1.00D-08  GRID    =  1.00D-06  GRIDMAX =  1.00D-03  DTMAX   =  0.00D+00  THROCCDE=  1.00D-01  THROCCDE=  1.00D-01



 THRESHOLDS:

 ZERO    =  1.00D-22  ONEINT  =  1.00D-22  TWOINT  =  1.00D-22  PREFAC  =  1.00D-14  LOCALI  =  1.00D-09  EORDER  =  1.00D-04
 ENERGY  =  1.00D-12  ETEST   =  0.00D+00  EDENS   =  0.00D+00  THRDEDEF=  1.00D-06  GRADIENT=  1.00D-02  STEP    =  1.00D-03
 ORBITAL =  1.00D-05  CIVEC   =  1.00D-05  COEFF   =  1.00D-04  PRINTCI =  5.00D-02  PUNCHCI =  9.90D+01  OPTGRAD =  1.00D-08
 OPTENERG=  1.00D-06  OPTSTEP =  1.00D-08  THRGRAD =  1.00D-10  COMPRESS=  1.00D-11  VARMIN  =  1.00D-07  VARMAX  =  1.00D-03
 THRDOUB =  0.00D+00  THRDIV  =  1.00D-05  THRRED  =  1.00D-07  THRPSP  =  1.00D+00  THRDC   =  1.00D-10  THRCS   =  1.00D-10
 THRNRM  =  1.00D-08  THREQ   =  0.00D+00  THRDE   =  1.00D+00  THRREF  =  1.00D-05  SPARFAC =  1.00D+00  THRDLP  =  1.00D-07
 THRDIA  =  1.00D-10  THRDLS  =  1.00D-07  THRGPS  =  0.00D+00  THRKEX  =  0.00D+00  THRDIS  =  2.00D-01  THRVAR  =  1.00D-10
 THRLOC  =  1.00D-06  THRGAP  =  1.00D-06  THRLOCT = -1.00D+00  THRGAPT = -1.00D+00  THRORB  =  1.00D-06  THRMLTP =  0.00D+00
 THRCPQCI=  1.00D-10  KEXTA   =  0.00D+00  THRCOARS=  0.00D+00  SYMTOL  =  1.00D-06  GRADTOL =  1.00D-06  THROVL  =  1.00D-08
 THRORTH =  1.00D-08  GRID    =  1.00D-06  GRIDMAX =  1.00D-03  DTMAX   =  0.00D+00  THROCCDE=  1.00D-01  THROCCDE=  1.00D-01



 Input parameters for SORTINT:

 COMPRESS =    0.000000
 C_FINAL  =    1.000000
 DEBUG    =   -1.000000
 C_SORT1  =    0.000000
 C_SEWARD =    0.000000
 THRESH   =    0.000000
 IO       =  molpro                                                          
 SPRI     =    0.000000
 SETTING GEOMTYP        =    XYZ
 ZUNIT=BOHR
 

 Variable memory set to  995000000 words,  buffer space   230000 words

 SETTING BASIS          =    AVTZ


 Recomputing integrals since basis changed


 Using spherical harmonics

 Library entry H      S aug-cc-pVTZ          selected for orbital group  1
 Library entry H      P aug-cc-pVTZ          selected for orbital group  1
 Library entry H      D aug-cc-pVTZ          selected for orbital group  1
 Library entry N      S aug-cc-pVTZ          selected for orbital group  2
 Library entry N      P aug-cc-pVTZ          selected for orbital group  2
 Library entry N      D aug-cc-pVTZ          selected for orbital group  2
 Library entry N      F aug-cc-pVTZ          selected for orbital group  2
 Library entry O      S aug-cc-pVTZ          selected for orbital group  3
 Library entry O      P aug-cc-pVTZ          selected for orbital group  3
 Library entry O      D aug-cc-pVTZ          selected for orbital group  3
 Library entry O      F aug-cc-pVTZ          selected for orbital group  3


 PROGRAM * SEWARD (Integral evaluation for generally contracted gaussian basis sets)     Author: Roland Lindh, 1990

 Geometry written to block  1 of record 700


 Point group  Cs  



 ATOMIC COORDINATES

 NR  ATOM    CHARGE       X              Y              Z

   1  H       1.00    0.000000000    1.669482877   -1.939266127
   2  N       7.00    0.000000000   -0.158301834   -1.157236032
   3  O       8.00    0.000000000    0.030586747    1.145912568

 Bond lengths in Bohr (Angstrom)

 1-2  1.988056342  2-3  2.310881296
     ( 1.052034110)     ( 1.222865719)

 Bond angles

  1-2-3  108.47547239

 NUCLEAR CHARGE:                   16
 NUMBER OF PRIMITIVE AOS:         161
 NUMBER OF SYMMETRY AOS:          141
 NUMBER OF CONTRACTIONS:          115   (  76A'  +  39A"  )
 NUMBER OF CORE ORBITALS:           2   (   2A'  +   0A"  )
 NUMBER OF VALENCE ORBITALS:        9   (   7A'  +   2A"  )


 NUCLEAR REPULSION ENERGY   30.04419498

 Eigenvalues of metric

         1 0.237E-03 0.505E-03 0.184E-02 0.217E-02 0.266E-02 0.381E-02 0.436E-02 0.522E-02
         2 0.412E-02 0.102E-01 0.269E-01 0.374E-01 0.515E-01 0.625E-01 0.840E-01 0.121E+00


 Contracted 2-electron integrals neglected if value below      1.0D-22

       10790064. INTEGRALS WRITTEN OUT IN    2635 BLOCKS ON RECORD 1290 OF FILE 1


 NUMBER OF SORTED TWO-ELECTRON INTEGRALS:   11433631.     BUFFER LENGTH:  32768
 NUMBER OF SEGMENTS:   1  SEGMENT LENGTH:   11433631      RECORD LENGTH: 524288

 Memory used in sort:      11.99 MW

 SORT1 READ    10790064. AND WROTE    10943632. INTEGRALS IN     32 RECORDS. CPU TIME:     0.15 SEC, REAL TIME:     0.22 SEC
 SORT2 READ    10943632. AND WROTE    11433631. INTEGRALS IN      1 RECORDS. CPU TIME:     0.18 SEC, REAL TIME:     0.26 SEC

 FILE SIZES:   FILE 1:   193.0 MBYTE,  FILE 4:   134.3 MBYTE,   TOTAL:    327.2 MBYTE

 OPERATOR DM      FOR CENTER  0  COORDINATES:    0.000000    0.000000    0.000000


 **********************************************************************************************************************************
 DATASETS  * FILE   NREC   LENGTH (MB)   RECORD NAMES
              1      19      111.05       500      610      700      900      950      970     1000      129      960     1100   
                                          VAR    BASINP    GEOM    SYMINP    ZMAT    AOBASIS   BASIS     P2S    ABASIS      S 
                                         1400     1410     1200     1210     1080     1600     1650     1300     1700   
                                           T        V       H0       H01     AOSYM     SMH    MOLCAS    ERIS     OPER   

 PROGRAMS   *        TOTAL       INT
 CPU TIMES  *         1.30      1.20
 REAL TIME  *         2.08 SEC
 DISK USED  *       327.55 MB      
 **********************************************************************************************************************************


 PROGRAM * RHF-SCF (CLOSED SHELL)       Authors: W. Meyer, H.-J. Werner


 NUMBER OF ELECTRONS:       8+    8-
 CONVERGENCE THRESHOLDS:    1.00E-10 (Density)    1.00E-13 (Energy)
 MAX. NUMBER OF ITERATIONS:      500
 INTERPOLATION TYPE:            DIIS
 INTERPOLATION STEPS:              2 (START)      1 (STEP)
 LEVEL SHIFTS:                  0.00 (CLOSED)  0.00 (OPEN) 



 Orbital guess generated from atomic densities. Full valence occupancy:    9   2

 Molecular orbital dump at record        2100.2

 Initial occupancy:   7   1

 ITERATION    DDIFF          GRAD             ENERGY        2-EL.EN.            DIPOLE MOMENTS         DIIS   ORB.
    1      0.000D+00      0.000D+00      -129.78385045    153.313597    0.00000    0.60111   -1.07023    0    start
    2      0.000D+00      0.109D-01      -129.81074638    154.550688    0.00000    0.61975   -0.20273    1    diag
    3      0.122D-01      0.864D-02      -129.83594878    154.696759    0.00000    0.56517   -0.61574    2    diag
    4      0.618D-02      0.130D-02      -129.83677237    154.396726    0.00000    0.57208   -0.55339    3    diag
    5      0.109D-02      0.430D-03      -129.83690404    154.492167    0.00000    0.57770   -0.55597    4    diag
    6      0.461D-03      0.124D-03      -129.83692507    154.476394    0.00000    0.57800   -0.55162    5    diag
    7      0.176D-03      0.623D-04      -129.83693135    154.478761    0.00000    0.57922   -0.54886    6    diag
    8      0.123D-03      0.222D-04      -129.83693211    154.478055    0.00000    0.57923   -0.54774    7    diag
    9      0.496D-04      0.428D-05      -129.83693214    154.477933    0.00000    0.57919   -0.54750    8    diag
   10      0.987D-05      0.948D-06      -129.83693215    154.477913    0.00000    0.57916   -0.54747    9    orth
   11      0.187D-05      0.185D-06      -129.83693215    154.477910    0.00000    0.57915   -0.54747    9    diag
   12      0.347D-06      0.393D-07      -129.83693215    154.477910    0.00000    0.57915   -0.54747    9    diag
   13      0.745D-07      0.104D-07      -129.83693215    154.477910    0.00000    0.57915   -0.54747    9    diag
   14      0.205D-07      0.214D-08      -129.83693215    154.477910    0.00000    0.57915   -0.54747    9    diag
   15      0.389D-08      0.589D-09      -129.83693215    154.477910    0.00000    0.57915   -0.54747    9    diag
   16      0.108D-08      0.154D-09      -129.83693215    154.477910    0.00000    0.57915   -0.54747    9    diag
   17      0.174D-09      0.416D-10      -129.83693215    154.477910    0.00000    0.57915   -0.54747    9    diag
   18      0.489D-10      0.145D-10      -129.83693215    154.477910    0.00000    0.57915   -0.54747    0    orth

 Final occupancy:   7   1

 !RHF STATE 1.1 Energy               -129.836932145272
 Nuclear energy                        30.04419498
 One-electron energy                 -237.12008193
 Two-electron energy                   77.23895480
 Virial quotient                       -1.00260087
 !RHF STATE 1.1 Dipole moment           0.00000000     0.57914782    -0.54747019
 Dipole moment /Debye                   0.00000000     1.47195051    -1.39143929

 Orbital energies:

         1.1          2.1          3.1          4.1          5.1          6.1          7.1          8.1          9.1
    -20.658069   -15.716991    -1.518608    -0.998712    -0.742814    -0.661900    -0.434764     0.028948     0.092091

         1.2          2.2          3.2
     -0.589229     0.060653     0.129838

 HOMO      7.1    -0.434764 =     -11.8305eV
 LUMO      8.1     0.028948 =       0.7877eV
 LUMO-HOMO         0.463712 =      12.6182eV


 **********************************************************************************************************************************
 DATASETS  * FILE   NREC   LENGTH (MB)   RECORD NAMES
              1      19      111.05       500      610      700      900      950      970     1000      129      960     1100   
                                          VAR    BASINP    GEOM    SYMINP    ZMAT    AOBASIS   BASIS     P2S    ABASIS      S 
                                         1400     1410     1200     1210     1080     1600     1650     1300     1700   
                                           T        V       H0       H01     AOSYM     SMH    MOLCAS    ERIS     OPER   

              2       4        2.94       700     1000      520     2100   
                                         GEOM     BASIS   MCVARS     RHF  

 PROGRAMS   *        TOTAL        HF       INT
 CPU TIMES  *         2.27      0.97      1.20
 REAL TIME  *         3.35 SEC
 DISK USED  *       327.55 MB      
 **********************************************************************************************************************************


 PROGRAM * CCSD (Closed-shell coupled cluster)     Authors: C. Hampel, H.-J. Werner, 1991, M. Deegan, P.J. Knowles, 1992


 Convergence thresholds:  THRVAR = 1.00D-08  THRDEN = 1.00D-12

 CCSD(T)     terms to be evaluated (factor= 1.000)


 Number of core orbitals:           2 (   2   0 )
 Number of closed-shell orbitals:   6 (   5   1 )
 Number of external orbitals:     107 (  69  38 )

 Molecular orbitals read from record     2100.2  Type=RHF/CANONICAL (state 1.1)

 Number of N-1 electron functions:               6
 Number of N-2 electron functions:              21
 Number of singly external CSFs:               383
 Number of doubly external CSFs:            107206
 Total number of CSFs:                      107590

 Length of J-op  integral file:               0.00 MB
 Length of K-op  integral file:               0.54 MB
 Length of 3-ext integral record:             0.00 MB

 Memory could be reduced to 5.94 Mwords without degradation in triples

 Integral transformation finished. Total CPU:   0.13 sec, npass=  1  Memory used:   1.65 MW

 Reference energy:                   -129.83693215

 MP2 singlet pair energy:              -0.28102776
 MP2 triplet pair energy:              -0.16624925
 MP2 correlation energy:               -0.44727701
 MP2 total energy:                   -130.28420916

 SCS-MP2 correlation energy:           -0.44067729   (PS=  1.200000  PT=  0.333333)
 SCS-MP2 total energy:               -130.27760944

 ITER.      SQ.NORM     CORR.ENERGY   TOTAL ENERGY   ENERGY CHANGE        DEN1      VAR(S)    VAR(P)  DIIS     TIME  TIME/IT
   1      1.12260345    -0.45079984  -130.28773199    -0.00352283     0.01319387  0.33D-02  0.33D-02  1  1     0.29     0.16
   2      1.13411356    -0.45087420  -130.28780635    -0.00007436    -0.01282188  0.11D-03  0.54D-03  2  2     0.43     0.16
   3      1.14094510    -0.45130184  -130.28823399    -0.00042764    -0.00310629  0.59D-04  0.55D-04  3  3     0.56     0.17
   4      1.14403128    -0.45131402  -130.28824616    -0.00001217    -0.00102891  0.47D-05  0.99D-05  4  4     0.71     0.17
   5      1.14518932    -0.45134600  -130.28827815    -0.00003199    -0.00024403  0.12D-05  0.17D-05  5  5     0.85     0.17
   6      1.14555974    -0.45132692  -130.28825907     0.00001908    -0.00004562  0.11D-06  0.41D-06  6  6     0.99     0.17
   7      1.14563573    -0.45132837  -130.28826052    -0.00000145    -0.00000131  0.18D-07  0.98D-07  6  1     1.14     0.17
   8      1.14565774    -0.45132892  -130.28826107    -0.00000055     0.00000154  0.35D-08  0.19D-07  6  2     1.28     0.17
   9      1.14566335    -0.45132842  -130.28826057     0.00000050     0.00000053  0.30D-08  0.22D-08  6  4     1.43     0.17
  10      1.14566595    -0.45132893  -130.28826108    -0.00000051    -0.00000081  0.52D-09  0.27D-09  6  3     1.58     0.17
  11      1.14566550    -0.45132895  -130.28826109    -0.00000002    -0.00000010  0.18D-09  0.40D-10  6  5     1.71     0.17
  12      1.14566437    -0.45132912  -130.28826127    -0.00000017     0.00000036  0.20D-10  0.12D-10  6  6     1.86     0.17
  13      1.14566343    -0.45132916  -130.28826130    -0.00000004     0.00000023  0.70D-11  0.26D-11  6  1     2.02     0.17
  14      1.14566281    -0.45132919  -130.28826134    -0.00000003     0.00000016  0.10D-11  0.84D-12  6  2     2.19     0.17
  15      1.14566254    -0.45132920  -130.28826135    -0.00000001     0.00000004  0.30D-12  0.26D-12  6  4     2.35     0.17
  16      1.14566243    -0.45132920  -130.28826135    -0.00000000     0.00000001  0.56D-13  0.91D-13  6  3     2.51     0.17
  17      1.14566236    -0.45132921  -130.28826135    -0.00000000     0.00000001  0.43D-14  0.22D-13  6  5     2.65     0.17
  18      1.14566236    -0.45132921  -130.28826135     0.00000000    -0.00000000  0.15D-14  0.48D-14  6  6     2.78     0.17
  19      1.14566236    -0.45132921  -130.28826135     0.00000000    -0.00000000  0.18D-15  0.31D-15  6  5     2.92     0.17
  20      1.14566236    -0.45132921  -130.28826135    -0.00000000     0.00000000  0.69D-16  0.52D-16  6  1     3.07     0.17
  21      1.14566236    -0.45132921  -130.28826135    -0.00000000     0.00000000  0.15D-16  0.11D-16  6  2     3.20     0.17
  22      1.14566235    -0.45132921  -130.28826135    -0.00000000     0.00000000  0.52D-17  0.12D-17  6  4     3.34     0.17
  23      1.14566235    -0.45132921  -130.28826135     0.00000000     0.00000000  0.15D-17  0.41D-18  6  3     3.49     0.17
  24      1.14566235    -0.45132921  -130.28826135    -0.00000000     0.00000000  0.41D-18  0.83D-19  6  6     3.64     0.17
  25      1.14566235    -0.45132921  -130.28826135     0.00000000    -0.00000000  0.58D-19  0.41D-19  6  5     3.78     0.17
  26      1.14566235    -0.45132921  -130.28826135     0.00000000    -0.00000000  0.88D-20  0.16D-19  6  1     3.94     0.17
  27      1.14566235    -0.45132921  -130.28826135    -0.00000000    -0.00000000  0.46D-21  0.23D-20  6  4     4.08     0.17
  28      1.14566235    -0.45132921  -130.28826135     0.00000000     0.00000000  0.92D-22  0.26D-21  6  2     4.23     0.17

 Norm of t1 vector:      0.08105621      S-energy:     0.00000000      T1 diagnostic:  0.01654553
                                                                       D1 diagnostic:  0.04417521

 Doubles amplitudes (print threshold =  0.500E-01):

         I         J         SYM. A    SYM. B    A         B      T(IJ, AB)

         6         6         2         2         1         1     -0.11542782


 Total CPU time for triples:      1.08 sec


 RESULTS
 =======

  Reference energy                   -129.836932145272
  CCSD singlet pair energy             -0.309799456833
  CCSD triplet pair energy             -0.141529750782
  CCSD correlation energy              -0.451329207612

  Triples (T) contribution             -0.021387212952
  Total correlation energy             -0.472716420564

  CCSD total energy                  -130.288261352884
  CCSD[T] energy                     -130.310784612638
  CCSD-T energy                      -130.309228271146
 !CCSD(T) total energy               -130.309648565836

 Timing summary (sec):

 STEP                 CPU(USER)    SYS     CPU(TOT)    WALL
 Transformation          0.13      0.04      0.17      0.17
 CCSD iterations         4.10      0.60      4.70      4.70
 Triples                 1.08      0.06      1.14      1.14

 Program statistics:

 Available memory in ccsd:               994999756
 Min. memory needed in ccsd:                389120
 Max. memory used in ccsd:                  473124
 Max. memory used in cckext:                599488 (28 integral passes)



 **********************************************************************************************************************************
 DATASETS  * FILE   NREC   LENGTH (MB)   RECORD NAMES
              1      20      128.20       500      610      700      900      950      970     1000      129      960     1100   
                                          VAR    BASINP    GEOM    SYMINP    ZMAT    AOBASIS   BASIS     P2S    ABASIS      S 
                                         1400     1410     1200     1210     1080     1600     1650     1300     1700     1380   
                                           T        V       H0       H01     AOSYM     SMH    MOLCAS    ERIS     OPER     JKOP   

              2       4        2.94       700     1000      520     2100   
                                         GEOM     BASIS   MCVARS     RHF  

 PROGRAMS   *        TOTAL   CCSD(T)        HF       INT
 CPU TIMES  *         7.62      5.35      0.97      1.20
 REAL TIME  *         9.45 SEC
 DISK USED  *       327.55 MB      
 **********************************************************************************************************************************

 CCSD(T)/aug-cc-pVTZ energy=   -130.309648565836

        CCSD(T)         HF-SCF  
   -130.30964857   -129.83693215
 **********************************************************************************************************************************
 Molpro calculation terminated
 Variable memory released
