
 Primary working directories    : /tmp/r2666/282127.maple
 Secondary working directories  : /tmp/r2666/282127.maple
 Wavefunction directory         : /ddn/home4/r2666/wfu/
 Main file repository           : /tmp/r2666/282127.maple/

 SHA1      : d5ffa45e93fdbca01ffc919aa182cfdae0147319
 NAME      : 2015.1.35
 ARCHNAME  : linux/x86_64
 FC        : /opt/intel/composer_xe_2015.1.133/bin/intel64/ifort
 BLASLIB   : -Wl,-_start-group /opt/intel/mkl/lib/intel64/libmkl_intel_ilp64.a /opt/intel/mkl/lib/intel64/libmkl_intel_thread.a /opt/intel/mkl/lib/intel64/libmkl_core.a -Wl,-_end-group
 id        : olemiss

 Nodes     nprocs
 cn086        1

 Using customized tuning parameters: mindgm=1; mindgv=20; mindgc=4; mindgr=1; noblas=0; minvec=7
 default implementation of scratch files=df  

 ***,hno CCSD(T)/TZ-F12 QFF
 memory, 995, m;
 gthresh,energy=1.d-12,zero=1.d-22,oneint=1.d-22,twoint=1.d-22;
 gthresh,optgrad=1.d-8,optstep=1.d-8;
 nocompress;
 geomtyp=xyz
 bohr
 geometry={
 3
         24        24
 H        0.0000000000        1.6608889763       -1.9247855000
 N        0.0000000000       -0.1556984120       -1.1406307072
 O        0.0000000000        0.0365772258        1.1148266162
 }
 
 basis=avtz
   {hf,maxit=500;accu,20;}
 {ccsd(t),nocheck,maxit=250;orbital,IGNORE_ERROR;}

 Variables initialized (889), CPU time= 0.00 sec
 Commands  initialized (702), CPU time= 0.01 sec, 572 directives.
 Default parameters read. Elapsed time= 0.08 sec

 Checking input...
 Passed
1


                                         ***  PROGRAM SYSTEM MOLPRO  ***
                                       Copyright, TTI GmbH Stuttgart, 2015
                                    Version 2015.1 linked Jul  9 2018 13:16:40


 **********************************************************************************************************************************
 LABEL *   hno CCSD(T)/TZ-F12 QFF                                                        
  64 bit serial version                                                                  DATE: 04-Mar-20          TIME: 13:45:58  
 **********************************************************************************************************************************

 SHA1:             d5ffa45e93fdbca01ffc919aa182cfdae0147319
 **********************************************************************************************************************************

 THRESHOLDS:

 ZERO    =  1.00D-22  ONEINT  =  1.00D-22  TWOINT  =  1.00D-22  PREFAC  =  1.00D-14  LOCALI  =  1.00D-09  EORDER  =  1.00D-04
 ENERGY  =  1.00D-12  ETEST   =  0.00D+00  EDENS   =  0.00D+00  THRDEDEF=  1.00D-06  GRADIENT=  1.00D-02  STEP    =  1.00D-03
 ORBITAL =  1.00D-05  CIVEC   =  1.00D-05  COEFF   =  1.00D-04  PRINTCI =  5.00D-02  PUNCHCI =  9.90D+01  OPTGRAD =  3.00D-04
 OPTENERG=  1.00D-06  OPTSTEP =  3.00D-04  THRGRAD =  1.00D-10  COMPRESS=  1.00D-11  VARMIN  =  1.00D-07  VARMAX  =  1.00D-03
 THRDOUB =  0.00D+00  THRDIV  =  1.00D-05  THRRED  =  1.00D-07  THRPSP  =  1.00D+00  THRDC   =  1.00D-10  THRCS   =  1.00D-10
 THRNRM  =  1.00D-08  THREQ   =  0.00D+00  THRDE   =  1.00D+00  THRREF  =  1.00D-05  SPARFAC =  1.00D+00  THRDLP  =  1.00D-07
 THRDIA  =  1.00D-10  THRDLS  =  1.00D-07  THRGPS  =  0.00D+00  THRKEX  =  0.00D+00  THRDIS  =  2.00D-01  THRVAR  =  1.00D-10
 THRLOC  =  1.00D-06  THRGAP  =  1.00D-06  THRLOCT = -1.00D+00  THRGAPT = -1.00D+00  THRORB  =  1.00D-06  THRMLTP =  0.00D+00
 THRCPQCI=  1.00D-10  KEXTA   =  0.00D+00  THRCOARS=  0.00D+00  SYMTOL  =  1.00D-06  GRADTOL =  1.00D-06  THROVL  =  1.00D-08
 THRORTH =  1.00D-08  GRID    =  1.00D-06  GRIDMAX =  1.00D-03  DTMAX   =  0.00D+00  THROCCDE=  1.00D-01  THROCCDE=  1.00D-01



 THRESHOLDS:

 ZERO    =  1.00D-22  ONEINT  =  1.00D-22  TWOINT  =  1.00D-22  PREFAC  =  1.00D-14  LOCALI  =  1.00D-09  EORDER  =  1.00D-04
 ENERGY  =  1.00D-12  ETEST   =  0.00D+00  EDENS   =  0.00D+00  THRDEDEF=  1.00D-06  GRADIENT=  1.00D-02  STEP    =  1.00D-03
 ORBITAL =  1.00D-05  CIVEC   =  1.00D-05  COEFF   =  1.00D-04  PRINTCI =  5.00D-02  PUNCHCI =  9.90D+01  OPTGRAD =  1.00D-08
 OPTENERG=  1.00D-06  OPTSTEP =  1.00D-08  THRGRAD =  1.00D-10  COMPRESS=  1.00D-11  VARMIN  =  1.00D-07  VARMAX  =  1.00D-03
 THRDOUB =  0.00D+00  THRDIV  =  1.00D-05  THRRED  =  1.00D-07  THRPSP  =  1.00D+00  THRDC   =  1.00D-10  THRCS   =  1.00D-10
 THRNRM  =  1.00D-08  THREQ   =  0.00D+00  THRDE   =  1.00D+00  THRREF  =  1.00D-05  SPARFAC =  1.00D+00  THRDLP  =  1.00D-07
 THRDIA  =  1.00D-10  THRDLS  =  1.00D-07  THRGPS  =  0.00D+00  THRKEX  =  0.00D+00  THRDIS  =  2.00D-01  THRVAR  =  1.00D-10
 THRLOC  =  1.00D-06  THRGAP  =  1.00D-06  THRLOCT = -1.00D+00  THRGAPT = -1.00D+00  THRORB  =  1.00D-06  THRMLTP =  0.00D+00
 THRCPQCI=  1.00D-10  KEXTA   =  0.00D+00  THRCOARS=  0.00D+00  SYMTOL  =  1.00D-06  GRADTOL =  1.00D-06  THROVL  =  1.00D-08
 THRORTH =  1.00D-08  GRID    =  1.00D-06  GRIDMAX =  1.00D-03  DTMAX   =  0.00D+00  THROCCDE=  1.00D-01  THROCCDE=  1.00D-01



 Input parameters for SORTINT:

 COMPRESS =    0.000000
 C_FINAL  =    1.000000
 DEBUG    =   -1.000000
 C_SORT1  =    0.000000
 C_SEWARD =    0.000000
 THRESH   =    0.000000
 IO       =  molpro                                                          
 SPRI     =    0.000000
 SETTING GEOMTYP        =    XYZ
 ZUNIT=BOHR
 

 Variable memory set to  995000000 words,  buffer space   230000 words

 SETTING BASIS          =    AVTZ


 Recomputing integrals since basis changed


 Using spherical harmonics

 Library entry H      S aug-cc-pVTZ          selected for orbital group  1
 Library entry H      P aug-cc-pVTZ          selected for orbital group  1
 Library entry H      D aug-cc-pVTZ          selected for orbital group  1
 Library entry N      S aug-cc-pVTZ          selected for orbital group  2
 Library entry N      P aug-cc-pVTZ          selected for orbital group  2
 Library entry N      D aug-cc-pVTZ          selected for orbital group  2
 Library entry N      F aug-cc-pVTZ          selected for orbital group  2
 Library entry O      S aug-cc-pVTZ          selected for orbital group  3
 Library entry O      P aug-cc-pVTZ          selected for orbital group  3
 Library entry O      D aug-cc-pVTZ          selected for orbital group  3
 Library entry O      F aug-cc-pVTZ          selected for orbital group  3


 PROGRAM * SEWARD (Integral evaluation for generally contracted gaussian basis sets)     Author: Roland Lindh, 1990

 Geometry written to block  1 of record 700


 Point group  Cs  



 ATOMIC COORDINATES

 NR  ATOM    CHARGE       X              Y              Z

   1  H       1.00    0.000000000    1.660888976   -1.924785500
   2  N       7.00    0.000000000   -0.155698412   -1.140630707
   3  O       8.00    0.000000000    0.036577226    1.114826616

 Bond lengths in Bohr (Angstrom)

 1-2  1.978607712  2-3  2.263638147
     ( 1.047034111)     ( 1.197865721)

 Bond angles

  1-2-3  108.47547239

 NUCLEAR CHARGE:                   16
 NUMBER OF PRIMITIVE AOS:         161
 NUMBER OF SYMMETRY AOS:          141
 NUMBER OF CONTRACTIONS:          115   (  76A'  +  39A"  )
 NUMBER OF CORE ORBITALS:           2   (   2A'  +   0A"  )
 NUMBER OF VALENCE ORBITALS:        9   (   7A'  +   2A"  )


 NUCLEAR REPULSION ENERGY   30.59804452

 Eigenvalues of metric

         1 0.228E-03 0.491E-03 0.178E-02 0.208E-02 0.245E-02 0.342E-02 0.427E-02 0.504E-02
         2 0.383E-02 0.994E-02 0.257E-01 0.367E-01 0.508E-01 0.617E-01 0.796E-01 0.118E+00


 Contracted 2-electron integrals neglected if value below      1.0D-22

       10790064. INTEGRALS WRITTEN OUT IN    2635 BLOCKS ON RECORD 1290 OF FILE 1


 NUMBER OF SORTED TWO-ELECTRON INTEGRALS:   11433631.     BUFFER LENGTH:  32768
 NUMBER OF SEGMENTS:   1  SEGMENT LENGTH:   11433631      RECORD LENGTH: 524288

 Memory used in sort:      11.99 MW

 SORT1 READ    10790064. AND WROTE    10943632. INTEGRALS IN     32 RECORDS. CPU TIME:     0.15 SEC, REAL TIME:     0.24 SEC
 SORT2 READ    10943632. AND WROTE    11433631. INTEGRALS IN      1 RECORDS. CPU TIME:     0.16 SEC, REAL TIME:     0.22 SEC

 FILE SIZES:   FILE 1:   193.0 MBYTE,  FILE 4:   134.3 MBYTE,   TOTAL:    327.2 MBYTE

 OPERATOR DM      FOR CENTER  0  COORDINATES:    0.000000    0.000000    0.000000


 **********************************************************************************************************************************
 DATASETS  * FILE   NREC   LENGTH (MB)   RECORD NAMES
              1      19      111.05       500      610      700      900      950      970     1000      129      960     1100   
                                          VAR    BASINP    GEOM    SYMINP    ZMAT    AOBASIS   BASIS     P2S    ABASIS      S 
                                         1400     1410     1200     1210     1080     1600     1650     1300     1700   
                                           T        V       H0       H01     AOSYM     SMH    MOLCAS    ERIS     OPER   

 PROGRAMS   *        TOTAL       INT
 CPU TIMES  *         1.31      1.20
 REAL TIME  *         2.01 SEC
 DISK USED  *       327.55 MB      
 **********************************************************************************************************************************


 PROGRAM * RHF-SCF (CLOSED SHELL)       Authors: W. Meyer, H.-J. Werner


 NUMBER OF ELECTRONS:       8+    8-
 CONVERGENCE THRESHOLDS:    1.00E-10 (Density)    1.00E-13 (Energy)
 MAX. NUMBER OF ITERATIONS:      500
 INTERPOLATION TYPE:            DIIS
 INTERPOLATION STEPS:              2 (START)      1 (STEP)
 LEVEL SHIFTS:                  0.00 (CLOSED)  0.00 (OPEN) 



 Orbital guess generated from atomic densities. Full valence occupancy:    9   2

 Molecular orbital dump at record        2100.2

 Initial occupancy:   7   1

 ITERATION    DDIFF          GRAD             ENERGY        2-EL.EN.            DIPOLE MOMENTS         DIIS   ORB.
    1      0.000D+00      0.000D+00      -129.79143593    154.308340    0.00000    0.59304   -0.98859    0    start
    2      0.000D+00      0.106D-01      -129.81916222    155.592029    0.00000    0.60480   -0.21720    1    diag
    3      0.116D-01      0.790D-02      -129.83994335    155.681879    0.00000    0.55536   -0.57909    2    diag
    4      0.573D-02      0.126D-02      -129.84071226    155.402108    0.00000    0.56296   -0.52078    3    diag
    5      0.106D-02      0.414D-03      -129.84083295    155.494838    0.00000    0.56849   -0.52377    4    diag
    6      0.440D-03      0.119D-03      -129.84085206    155.479491    0.00000    0.56893   -0.51989    5    diag
    7      0.168D-03      0.584D-04      -129.84085741    155.482069    0.00000    0.57019   -0.51748    6    diag
    8      0.115D-03      0.192D-04      -129.84085794    155.481454    0.00000    0.57022   -0.51657    7    diag
    9      0.409D-04      0.360D-05      -129.84085796    155.481356    0.00000    0.57018   -0.51637    8    diag
   10      0.771D-05      0.840D-06      -129.84085796    155.481337    0.00000    0.57015   -0.51634    9    orth
   11      0.165D-05      0.169D-06      -129.84085796    155.481335    0.00000    0.57014   -0.51634    9    diag
   12      0.326D-06      0.343D-07      -129.84085796    155.481334    0.00000    0.57014   -0.51634    9    diag
   13      0.701D-07      0.846D-08      -129.84085796    155.481334    0.00000    0.57014   -0.51634    9    diag
   14      0.178D-07      0.177D-08      -129.84085796    155.481334    0.00000    0.57014   -0.51634    9    diag
   15      0.364D-08      0.506D-09      -129.84085796    155.481334    0.00000    0.57014   -0.51634    9    diag
   16      0.991D-09      0.144D-09      -129.84085796    155.481334    0.00000    0.57014   -0.51634    9    diag
   17      0.188D-09      0.416D-10      -129.84085796    155.481334    0.00000    0.57014   -0.51634    9    diag
   18      0.535D-10      0.147D-10      -129.84085796    155.481334    0.00000    0.57014   -0.51634    9    diag
   19      0.266D-10      0.332D-11      -129.84085796    155.481334    0.00000    0.57014   -0.51634    0    orth

 Final occupancy:   7   1

 !RHF STATE 1.1 Energy               -129.840857964548
 Nuclear energy                        30.59804452
 One-electron energy                 -238.17956954
 Two-electron energy                   77.74066706
 Virial quotient                       -1.00178979
 !RHF STATE 1.1 Dipole moment           0.00000000     0.57014039    -0.51633503
 Dipole moment /Debye                   0.00000000     1.44905742    -1.31230678

 Orbital energies:

         1.1          2.1          3.1          4.1          5.1          6.1          7.1          8.1          9.1
    -20.655548   -15.711991    -1.539041    -0.994134    -0.750943    -0.669072    -0.427421     0.029303     0.092191

         1.2          2.2          3.2
     -0.600968     0.067618     0.130383

 HOMO      7.1    -0.427421 =     -11.6307eV
 LUMO      8.1     0.029303 =       0.7974eV
 LUMO-HOMO         0.456724 =      12.4281eV


 **********************************************************************************************************************************
 DATASETS  * FILE   NREC   LENGTH (MB)   RECORD NAMES
              1      19      111.05       500      610      700      900      950      970     1000      129      960     1100   
                                          VAR    BASINP    GEOM    SYMINP    ZMAT    AOBASIS   BASIS     P2S    ABASIS      S 
                                         1400     1410     1200     1210     1080     1600     1650     1300     1700   
                                           T        V       H0       H01     AOSYM     SMH    MOLCAS    ERIS     OPER   

              2       4        2.94       700     1000      520     2100   
                                         GEOM     BASIS   MCVARS     RHF  

 PROGRAMS   *        TOTAL        HF       INT
 CPU TIMES  *         2.26      0.95      1.20
 REAL TIME  *         3.23 SEC
 DISK USED  *       327.55 MB      
 **********************************************************************************************************************************


 PROGRAM * CCSD (Closed-shell coupled cluster)     Authors: C. Hampel, H.-J. Werner, 1991, M. Deegan, P.J. Knowles, 1992


 Convergence thresholds:  THRVAR = 1.00D-08  THRDEN = 1.00D-12

 CCSD(T)     terms to be evaluated (factor= 1.000)


 Number of core orbitals:           2 (   2   0 )
 Number of closed-shell orbitals:   6 (   5   1 )
 Number of external orbitals:     107 (  69  38 )

 Molecular orbitals read from record     2100.2  Type=RHF/CANONICAL (state 1.1)

 Number of N-1 electron functions:               6
 Number of N-2 electron functions:              21
 Number of singly external CSFs:               383
 Number of doubly external CSFs:            107206
 Total number of CSFs:                      107590

 Length of J-op  integral file:               0.00 MB
 Length of K-op  integral file:               0.54 MB
 Length of 3-ext integral record:             0.00 MB

 Memory could be reduced to 5.94 Mwords without degradation in triples

 Integral transformation finished. Total CPU:   0.13 sec, npass=  1  Memory used:   1.65 MW

 Reference energy:                   -129.84085796

 MP2 singlet pair energy:              -0.27826731
 MP2 triplet pair energy:              -0.16441329
 MP2 correlation energy:               -0.44268060
 MP2 total energy:                   -130.28353856

 SCS-MP2 correlation energy:           -0.43622237   (PS=  1.200000  PT=  0.333333)
 SCS-MP2 total energy:               -130.27708034

 ITER.      SQ.NORM     CORR.ENERGY   TOTAL ENERGY   ENERGY CHANGE        DEN1      VAR(S)    VAR(P)  DIIS     TIME  TIME/IT
   1      1.11968819    -0.44718598  -130.28804395    -0.00450539     0.01110958  0.30D-02  0.30D-02  1  1     0.29     0.15
   2      1.13053873    -0.44745977  -130.28831773    -0.00027378    -0.01217907  0.95D-04  0.49D-03  2  2     0.43     0.16
   3      1.13679591    -0.44784086  -130.28869883    -0.00038110    -0.00292482  0.50D-04  0.49D-04  3  3     0.57     0.16
   4      1.13955731    -0.44785222  -130.28871018    -0.00001136    -0.00094136  0.38D-05  0.88D-05  4  4     0.71     0.16
   5      1.14054521    -0.44787895  -130.28873692    -0.00002673    -0.00020938  0.10D-05  0.16D-05  5  5     0.86     0.16
   6      1.14087299    -0.44786331  -130.28872127     0.00001564    -0.00003970  0.93D-07  0.40D-06  6  6     1.01     0.16
   7      1.14094743    -0.44786439  -130.28872236    -0.00000108    -0.00000206  0.19D-07  0.90D-07  6  1     1.14     0.16
   8      1.14096861    -0.44786519  -130.28872315    -0.00000079     0.00000153  0.38D-08  0.16D-07  6  2     1.28     0.16
   9      1.14097375    -0.44786478  -130.28872275     0.00000041     0.00000040  0.26D-08  0.17D-08  6  4     1.42     0.16
  10      1.14097590    -0.44786524  -130.28872321    -0.00000046    -0.00000066  0.42D-09  0.19D-09  6  3     1.57     0.16
  11      1.14097537    -0.44786527  -130.28872323    -0.00000003    -0.00000005  0.14D-09  0.30D-10  6  5     1.72     0.16
  12      1.14097435    -0.44786541  -130.28872337    -0.00000014     0.00000033  0.17D-10  0.98D-11  6  6     1.87     0.16
  13      1.14097355    -0.44786544  -130.28872341    -0.00000003     0.00000021  0.58D-11  0.20D-11  6  1     2.00     0.16
  14      1.14097304    -0.44786547  -130.28872343    -0.00000003     0.00000013  0.94D-12  0.63D-12  6  2     2.14     0.16
  15      1.14097283    -0.44786548  -130.28872344    -0.00000001     0.00000003  0.25D-12  0.20D-12  6  4     2.29     0.16
  16      1.14097271    -0.44786548  -130.28872344    -0.00000000     0.00000001  0.34D-13  0.24D-13  6  5     2.44     0.16
  17      1.14097268    -0.44786548  -130.28872345    -0.00000000     0.00000000  0.65D-15  0.18D-14  6  3     2.59     0.16
  18      1.14097268    -0.44786548  -130.28872345     0.00000000    -0.00000000  0.23D-15  0.24D-15  6  6     2.74     0.16
  19      1.14097268    -0.44786548  -130.28872344     0.00000000    -0.00000000  0.69D-16  0.35D-16  6  1     2.89     0.16
  20      1.14097268    -0.44786548  -130.28872344     0.00000000    -0.00000000  0.18D-16  0.63D-17  6  2     3.03     0.16
  21      1.14097268    -0.44786548  -130.28872344     0.00000000    -0.00000000  0.32D-17  0.17D-17  6  5     3.17     0.16
  22      1.14097268    -0.44786548  -130.28872344    -0.00000000     0.00000000  0.33D-18  0.19D-18  6  4     3.32     0.16
  23      1.14097268    -0.44786548  -130.28872344     0.00000000     0.00000000  0.12D-18  0.39D-19  6  3     3.47     0.16
  24      1.14097268    -0.44786548  -130.28872344     0.00000000    -0.00000000  0.12D-19  0.53D-20  6  2     3.62     0.16
  25      1.14097268    -0.44786548  -130.28872344     0.00000000    -0.00000000  0.20D-20  0.82D-21  6  6     3.76     0.16
  26      1.14097268    -0.44786548  -130.28872344     0.00000000    -0.00000000  0.44D-21  0.20D-21  6  1     3.92     0.16

 Norm of t1 vector:      0.07667643      S-energy:     0.00000000      T1 diagnostic:  0.01565151
                                                                       D1 diagnostic:  0.04076983

 Doubles amplitudes (print threshold =  0.500E-01):

         I         J         SYM. A    SYM. B    A         B      T(IJ, AB)

         6         6         2         2         1         1     -0.10441385


 Total CPU time for triples:      1.09 sec


 RESULTS
 =======

  Reference energy                   -129.840857964548
  CCSD singlet pair energy             -0.306815656487
  CCSD triplet pair energy             -0.141049823874
  CCSD correlation energy              -0.447865480360

  Triples (T) contribution             -0.020573378829
  Total correlation energy             -0.468438859189

  CCSD total energy                  -130.288723444907
  CCSD[T] energy                     -130.310317146864
  CCSD-T energy                      -130.308904303892
 !CCSD(T) total energy               -130.309296823737

 Timing summary (sec):

 STEP                 CPU(USER)    SYS     CPU(TOT)    WALL
 Transformation          0.14      0.02      0.16      0.17
 CCSD iterations         3.79      0.47      4.26      4.23
 Triples                 1.09      0.03      1.12      1.13

 Program statistics:

 Available memory in ccsd:               994999756
 Min. memory needed in ccsd:                389120
 Max. memory used in ccsd:                  473124
 Max. memory used in cckext:                599488 (26 integral passes)



 **********************************************************************************************************************************
 DATASETS  * FILE   NREC   LENGTH (MB)   RECORD NAMES
              1      20      128.20       500      610      700      900      950      970     1000      129      960     1100   
                                          VAR    BASINP    GEOM    SYMINP    ZMAT    AOBASIS   BASIS     P2S    ABASIS      S 
                                         1400     1410     1200     1210     1080     1600     1650     1300     1700     1380   
                                           T        V       H0       H01     AOSYM     SMH    MOLCAS    ERIS     OPER     JKOP   

              2       4        2.94       700     1000      520     2100   
                                         GEOM     BASIS   MCVARS     RHF  

 PROGRAMS   *        TOTAL   CCSD(T)        HF       INT
 CPU TIMES  *         7.30      5.04      0.95      1.20
 REAL TIME  *         8.81 SEC
 DISK USED  *       327.55 MB      
 **********************************************************************************************************************************

 CCSD(T)/aug-cc-pVTZ energy=   -130.309296823737

        CCSD(T)         HF-SCF  
   -130.30929682   -129.84085796
 **********************************************************************************************************************************
 Molpro calculation terminated
 Variable memory released
