
 Primary working directories    : /tmp/r2666/282158.maple
 Secondary working directories  : /tmp/r2666/282158.maple
 Wavefunction directory         : /ddn/home4/r2666/wfu/
 Main file repository           : /tmp/r2666/282158.maple/

 SHA1      : d5ffa45e93fdbca01ffc919aa182cfdae0147319
 NAME      : 2015.1.35
 ARCHNAME  : linux/x86_64
 FC        : /opt/intel/composer_xe_2015.1.133/bin/intel64/ifort
 BLASLIB   : -Wl,-_start-group /opt/intel/mkl/lib/intel64/libmkl_intel_ilp64.a /opt/intel/mkl/lib/intel64/libmkl_intel_thread.a /opt/intel/mkl/lib/intel64/libmkl_core.a -Wl,-_end-group
 id        : olemiss

 Nodes     nprocs
 cn075        1

 Using customized tuning parameters: mindgm=1; mindgv=20; mindgc=4; mindgr=1; noblas=0; minvec=7
 default implementation of scratch files=df  

 ***,hno CCSD(T)/TZ-F12 QFF
 memory, 995, m;
 gthresh,energy=1.d-12,zero=1.d-22,oneint=1.d-22,twoint=1.d-22;
 gthresh,optgrad=1.d-8,optstep=1.d-8;
 nocompress;
 geomtyp=xyz
 bohr
 geometry={
 3
         55        55
 H        0.0000000000        1.6653754404       -1.9163403877
 N        0.0000000000       -0.1684785890       -1.1486507251
 O        0.0000000000        0.0448709386        1.1144015219
 }
 
 basis=avtz
   {hf,maxit=500;accu,20;}
 {ccsd(t),nocheck,maxit=250;orbital,IGNORE_ERROR;}

 Variables initialized (889), CPU time= 0.01 sec
 Commands  initialized (702), CPU time= 0.01 sec, 572 directives.
 Default parameters read. Elapsed time= 0.05 sec

 Checking input...
 Passed
1


                                         ***  PROGRAM SYSTEM MOLPRO  ***
                                       Copyright, TTI GmbH Stuttgart, 2015
                                    Version 2015.1 linked Jul  9 2018 13:16:40


 **********************************************************************************************************************************
 LABEL *   hno CCSD(T)/TZ-F12 QFF                                                        
  64 bit serial version                                                                  DATE: 04-Mar-20          TIME: 13:46:21  
 **********************************************************************************************************************************

 SHA1:             d5ffa45e93fdbca01ffc919aa182cfdae0147319
 **********************************************************************************************************************************

 THRESHOLDS:

 ZERO    =  1.00D-22  ONEINT  =  1.00D-22  TWOINT  =  1.00D-22  PREFAC  =  1.00D-14  LOCALI  =  1.00D-09  EORDER  =  1.00D-04
 ENERGY  =  1.00D-12  ETEST   =  0.00D+00  EDENS   =  0.00D+00  THRDEDEF=  1.00D-06  GRADIENT=  1.00D-02  STEP    =  1.00D-03
 ORBITAL =  1.00D-05  CIVEC   =  1.00D-05  COEFF   =  1.00D-04  PRINTCI =  5.00D-02  PUNCHCI =  9.90D+01  OPTGRAD =  3.00D-04
 OPTENERG=  1.00D-06  OPTSTEP =  3.00D-04  THRGRAD =  1.00D-10  COMPRESS=  1.00D-11  VARMIN  =  1.00D-07  VARMAX  =  1.00D-03
 THRDOUB =  0.00D+00  THRDIV  =  1.00D-05  THRRED  =  1.00D-07  THRPSP  =  1.00D+00  THRDC   =  1.00D-10  THRCS   =  1.00D-10
 THRNRM  =  1.00D-08  THREQ   =  0.00D+00  THRDE   =  1.00D+00  THRREF  =  1.00D-05  SPARFAC =  1.00D+00  THRDLP  =  1.00D-07
 THRDIA  =  1.00D-10  THRDLS  =  1.00D-07  THRGPS  =  0.00D+00  THRKEX  =  0.00D+00  THRDIS  =  2.00D-01  THRVAR  =  1.00D-10
 THRLOC  =  1.00D-06  THRGAP  =  1.00D-06  THRLOCT = -1.00D+00  THRGAPT = -1.00D+00  THRORB  =  1.00D-06  THRMLTP =  0.00D+00
 THRCPQCI=  1.00D-10  KEXTA   =  0.00D+00  THRCOARS=  0.00D+00  SYMTOL  =  1.00D-06  GRADTOL =  1.00D-06  THROVL  =  1.00D-08
 THRORTH =  1.00D-08  GRID    =  1.00D-06  GRIDMAX =  1.00D-03  DTMAX   =  0.00D+00  THROCCDE=  1.00D-01  THROCCDE=  1.00D-01



 THRESHOLDS:

 ZERO    =  1.00D-22  ONEINT  =  1.00D-22  TWOINT  =  1.00D-22  PREFAC  =  1.00D-14  LOCALI  =  1.00D-09  EORDER  =  1.00D-04
 ENERGY  =  1.00D-12  ETEST   =  0.00D+00  EDENS   =  0.00D+00  THRDEDEF=  1.00D-06  GRADIENT=  1.00D-02  STEP    =  1.00D-03
 ORBITAL =  1.00D-05  CIVEC   =  1.00D-05  COEFF   =  1.00D-04  PRINTCI =  5.00D-02  PUNCHCI =  9.90D+01  OPTGRAD =  1.00D-08
 OPTENERG=  1.00D-06  OPTSTEP =  1.00D-08  THRGRAD =  1.00D-10  COMPRESS=  1.00D-11  VARMIN  =  1.00D-07  VARMAX  =  1.00D-03
 THRDOUB =  0.00D+00  THRDIV  =  1.00D-05  THRRED  =  1.00D-07  THRPSP  =  1.00D+00  THRDC   =  1.00D-10  THRCS   =  1.00D-10
 THRNRM  =  1.00D-08  THREQ   =  0.00D+00  THRDE   =  1.00D+00  THRREF  =  1.00D-05  SPARFAC =  1.00D+00  THRDLP  =  1.00D-07
 THRDIA  =  1.00D-10  THRDLS  =  1.00D-07  THRGPS  =  0.00D+00  THRKEX  =  0.00D+00  THRDIS  =  2.00D-01  THRVAR  =  1.00D-10
 THRLOC  =  1.00D-06  THRGAP  =  1.00D-06  THRLOCT = -1.00D+00  THRGAPT = -1.00D+00  THRORB  =  1.00D-06  THRMLTP =  0.00D+00
 THRCPQCI=  1.00D-10  KEXTA   =  0.00D+00  THRCOARS=  0.00D+00  SYMTOL  =  1.00D-06  GRADTOL =  1.00D-06  THROVL  =  1.00D-08
 THRORTH =  1.00D-08  GRID    =  1.00D-06  GRIDMAX =  1.00D-03  DTMAX   =  0.00D+00  THROCCDE=  1.00D-01  THROCCDE=  1.00D-01



 Input parameters for SORTINT:

 COMPRESS =    0.000000
 C_FINAL  =    1.000000
 DEBUG    =   -1.000000
 C_SORT1  =    0.000000
 C_SEWARD =    0.000000
 THRESH   =    0.000000
 IO       =  molpro                                                          
 SPRI     =    0.000000
 SETTING GEOMTYP        =    XYZ
 ZUNIT=BOHR
 

 Variable memory set to  995000000 words,  buffer space   230000 words

 SETTING BASIS          =    AVTZ


 Recomputing integrals since basis changed


 Using spherical harmonics

 Library entry H      S aug-cc-pVTZ          selected for orbital group  1
 Library entry H      P aug-cc-pVTZ          selected for orbital group  1
 Library entry H      D aug-cc-pVTZ          selected for orbital group  1
 Library entry N      S aug-cc-pVTZ          selected for orbital group  2
 Library entry N      P aug-cc-pVTZ          selected for orbital group  2
 Library entry N      D aug-cc-pVTZ          selected for orbital group  2
 Library entry N      F aug-cc-pVTZ          selected for orbital group  2
 Library entry O      S aug-cc-pVTZ          selected for orbital group  3
 Library entry O      P aug-cc-pVTZ          selected for orbital group  3
 Library entry O      D aug-cc-pVTZ          selected for orbital group  3
 Library entry O      F aug-cc-pVTZ          selected for orbital group  3


 PROGRAM * SEWARD (Integral evaluation for generally contracted gaussian basis sets)     Author: Roland Lindh, 1990

 Geometry written to block  1 of record 700


 Point group  Cs  



 ATOMIC COORDINATES

 NR  ATOM    CHARGE       X              Y              Z

   1  H       1.00    0.000000000    1.665375440   -1.916340388
   2  N       7.00    0.000000000   -0.168478589   -1.148650725
   3  O       8.00    0.000000000    0.044870939    1.114401522

 Bond lengths in Bohr (Angstrom)

 1-2  1.988056342  2-3  2.273086777
     ( 1.052034110)     ( 1.202865721)

 Bond angles

  1-2-3  107.32955680

 NUCLEAR CHARGE:                   16
 NUMBER OF PRIMITIVE AOS:         161
 NUMBER OF SYMMETRY AOS:          141
 NUMBER OF CONTRACTIONS:          115   (  76A'  +  39A"  )
 NUMBER OF CORE ORBITALS:           2   (   2A'  +   0A"  )
 NUMBER OF VALENCE ORBITALS:        9   (   7A'  +   2A"  )


 NUCLEAR REPULSION ENERGY   30.48489278

 Eigenvalues of metric

         1 0.230E-03 0.500E-03 0.178E-02 0.210E-02 0.249E-02 0.351E-02 0.428E-02 0.515E-02
         2 0.390E-02 0.101E-01 0.260E-01 0.371E-01 0.513E-01 0.621E-01 0.813E-01 0.118E+00


 Contracted 2-electron integrals neglected if value below      1.0D-22

       10790064. INTEGRALS WRITTEN OUT IN    2635 BLOCKS ON RECORD 1290 OF FILE 1


 NUMBER OF SORTED TWO-ELECTRON INTEGRALS:   11433631.     BUFFER LENGTH:  32768
 NUMBER OF SEGMENTS:   1  SEGMENT LENGTH:   11433631      RECORD LENGTH: 524288

 Memory used in sort:      11.99 MW

 SORT1 READ    10790064. AND WROTE    10943632. INTEGRALS IN     32 RECORDS. CPU TIME:     0.15 SEC, REAL TIME:     0.23 SEC
 SORT2 READ    10943632. AND WROTE    11433631. INTEGRALS IN      1 RECORDS. CPU TIME:     0.19 SEC, REAL TIME:     0.25 SEC

 FILE SIZES:   FILE 1:   193.0 MBYTE,  FILE 4:   134.3 MBYTE,   TOTAL:    327.2 MBYTE

 OPERATOR DM      FOR CENTER  0  COORDINATES:    0.000000    0.000000    0.000000


 **********************************************************************************************************************************
 DATASETS  * FILE   NREC   LENGTH (MB)   RECORD NAMES
              1      19      111.05       500      610      700      900      950      970     1000      129      960     1100   
                                          VAR    BASINP    GEOM    SYMINP    ZMAT    AOBASIS   BASIS     P2S    ABASIS      S 
                                         1400     1410     1200     1210     1080     1600     1650     1300     1700   
                                           T        V       H0       H01     AOSYM     SMH    MOLCAS    ERIS     OPER   

 PROGRAMS   *        TOTAL       INT
 CPU TIMES  *         1.37      1.28
 REAL TIME  *         2.09 SEC
 DISK USED  *       327.55 MB      
 **********************************************************************************************************************************


 PROGRAM * RHF-SCF (CLOSED SHELL)       Authors: W. Meyer, H.-J. Werner


 NUMBER OF ELECTRONS:       8+    8-
 CONVERGENCE THRESHOLDS:    1.00E-10 (Density)    1.00E-13 (Energy)
 MAX. NUMBER OF ITERATIONS:      500
 INTERPOLATION TYPE:            DIIS
 INTERPOLATION STEPS:              2 (START)      1 (STEP)
 LEVEL SHIFTS:                  0.00 (CLOSED)  0.00 (OPEN) 



 Orbital guess generated from atomic densities. Full valence occupancy:    9   2

 Molecular orbital dump at record        2100.2

 Initial occupancy:   7   1

 ITERATION    DDIFF          GRAD             ENERGY        2-EL.EN.            DIPOLE MOMENTS         DIIS   ORB.
    1      0.000D+00      0.000D+00      -129.78962793    154.107250    0.00000    0.58233   -1.00267    0    start
    2      0.000D+00      0.107D-01      -129.81725769    155.382149    0.00000    0.60814   -0.20856    1    diag
    3      0.118D-01      0.809D-02      -129.83912427    155.483018    0.00000    0.55158   -0.58160    2    diag
    4      0.585D-02      0.127D-02      -129.83990258    155.199068    0.00000    0.55958   -0.52277    3    diag
    5      0.106D-02      0.419D-03      -129.84002655    155.292312    0.00000    0.56508   -0.52559    4    diag
    6      0.446D-03      0.121D-03      -129.84004633    155.276802    0.00000    0.56546   -0.52160    5    diag
    7      0.171D-03      0.596D-04      -129.84005194    155.279361    0.00000    0.56672   -0.51910    6    diag
    8      0.117D-03      0.199D-04      -129.84005252    155.278719    0.00000    0.56674   -0.51814    7    diag
    9      0.427D-04      0.374D-05      -129.84005254    155.278616    0.00000    0.56671   -0.51794    8    diag
   10      0.812D-05      0.857D-06      -129.84005254    155.278598    0.00000    0.56668   -0.51791    9    orth
   11      0.167D-05      0.172D-06      -129.84005254    155.278595    0.00000    0.56667   -0.51791    9    diag
   12      0.329D-06      0.354D-07      -129.84005254    155.278594    0.00000    0.56667   -0.51791    9    diag
   13      0.718D-07      0.886D-08      -129.84005254    155.278594    0.00000    0.56667   -0.51791    9    diag
   14      0.186D-07      0.184D-08      -129.84005254    155.278594    0.00000    0.56667   -0.51791    9    diag
   15      0.372D-08      0.521D-09      -129.84005254    155.278594    0.00000    0.56667   -0.51791    9    diag
   16      0.102D-08      0.146D-09      -129.84005254    155.278594    0.00000    0.56667   -0.51791    9    diag
   17      0.189D-09      0.427D-10      -129.84005254    155.278594    0.00000    0.56667   -0.51791    9    diag
   18      0.545D-10      0.152D-10      -129.84005254    155.278594    0.00000    0.56667   -0.51791    9    diag
   19      0.271D-10      0.339D-11      -129.84005254    155.278594    0.00000    0.56667   -0.51791    0    orth

 Final occupancy:   7   1

 !RHF STATE 1.1 Energy               -129.840052544437
 Nuclear energy                        30.48489278
 One-electron energy                 -237.96424245
 Two-electron energy                   77.63929713
 Virial quotient                       -1.00197346
 !RHF STATE 1.1 Dipole moment           0.00000000     0.56666661    -0.51790552
 Dipole moment /Debye                   0.00000000     1.44022852    -1.31629832

 Orbital energies:

         1.1          2.1          3.1          4.1          5.1          6.1          7.1          8.1          9.1
    -20.655841   -15.713737    -1.535416    -0.993311    -0.748927    -0.667379    -0.429439     0.029326     0.092233

         1.2          2.2          3.2
     -0.598774     0.066420     0.130360

 HOMO      7.1    -0.429439 =     -11.6856eV
 LUMO      8.1     0.029326 =       0.7980eV
 LUMO-HOMO         0.458764 =      12.4836eV


 **********************************************************************************************************************************
 DATASETS  * FILE   NREC   LENGTH (MB)   RECORD NAMES
              1      19      111.05       500      610      700      900      950      970     1000      129      960     1100   
                                          VAR    BASINP    GEOM    SYMINP    ZMAT    AOBASIS   BASIS     P2S    ABASIS      S 
                                         1400     1410     1200     1210     1080     1600     1650     1300     1700   
                                           T        V       H0       H01     AOSYM     SMH    MOLCAS    ERIS     OPER   

              2       4        2.94       700     1000      520     2100   
                                         GEOM     BASIS   MCVARS     RHF  

 PROGRAMS   *        TOTAL        HF       INT
 CPU TIMES  *         2.35      0.98      1.28
 REAL TIME  *         3.45 SEC
 DISK USED  *       327.55 MB      
 **********************************************************************************************************************************


 PROGRAM * CCSD (Closed-shell coupled cluster)     Authors: C. Hampel, H.-J. Werner, 1991, M. Deegan, P.J. Knowles, 1992


 Convergence thresholds:  THRVAR = 1.00D-08  THRDEN = 1.00D-12

 CCSD(T)     terms to be evaluated (factor= 1.000)


 Number of core orbitals:           2 (   2   0 )
 Number of closed-shell orbitals:   6 (   5   1 )
 Number of external orbitals:     107 (  69  38 )

 Molecular orbitals read from record     2100.2  Type=RHF/CANONICAL (state 1.1)

 Number of N-1 electron functions:               6
 Number of N-2 electron functions:              21
 Number of singly external CSFs:               383
 Number of doubly external CSFs:            107206
 Total number of CSFs:                      107590

 Length of J-op  integral file:               0.00 MB
 Length of K-op  integral file:               0.54 MB
 Length of 3-ext integral record:             0.00 MB

 Memory could be reduced to 5.94 Mwords without degradation in triples

 Integral transformation finished. Total CPU:   0.15 sec, npass=  1  Memory used:   1.65 MW

 Reference energy:                   -129.84005254

 MP2 singlet pair energy:              -0.27890661
 MP2 triplet pair energy:              -0.16482431
 MP2 correlation energy:               -0.44373092
 MP2 total energy:                   -130.28378347

 SCS-MP2 correlation energy:           -0.43724528   (PS=  1.200000  PT=  0.333333)
 SCS-MP2 total energy:               -130.27729783

 ITER.      SQ.NORM     CORR.ENERGY   TOTAL ENERGY   ENERGY CHANGE        DEN1      VAR(S)    VAR(P)  DIIS     TIME  TIME/IT
   1      1.12036673    -0.44803705  -130.28808960    -0.00430613     0.01153073  0.31D-02  0.31D-02  1  1     0.29     0.16
   2      1.13135198    -0.44827626  -130.28832881    -0.00023921    -0.01231249  0.98D-04  0.50D-03  2  2     0.44     0.17
   3      1.13772131    -0.44866593  -130.28871848    -0.00038967    -0.00296653  0.51D-04  0.50D-04  3  3     0.58     0.17
   4      1.14053647    -0.44867762  -130.28873016    -0.00001169    -0.00095750  0.40D-05  0.89D-05  4  4     0.73     0.17
   5      1.14154537    -0.44870529  -130.28875783    -0.00002767    -0.00021403  0.11D-05  0.16D-05  5  5     0.87     0.17
   6      1.14187615    -0.44868902  -130.28874156     0.00001627    -0.00004043  0.97D-07  0.39D-06  6  6     1.02     0.17
   7      1.14194903    -0.44869012  -130.28874267    -0.00000111    -0.00000181  0.19D-07  0.89D-07  6  1     1.16     0.17
   8      1.14197005    -0.44869081  -130.28874335    -0.00000069     0.00000152  0.35D-08  0.16D-07  6  2     1.32     0.17
   9      1.14197521    -0.44869039  -130.28874293     0.00000042     0.00000039  0.26D-08  0.17D-08  6  4     1.47     0.17
  10      1.14197742    -0.44869085  -130.28874340    -0.00000046    -0.00000067  0.42D-09  0.20D-09  6  3     1.60     0.17
  11      1.14197692    -0.44869088  -130.28874342    -0.00000002    -0.00000006  0.14D-09  0.30D-10  6  5     1.76     0.17
  12      1.14197590    -0.44869102  -130.28874356    -0.00000014     0.00000033  0.16D-10  0.98D-11  6  6     1.92     0.17
  13      1.14197509    -0.44869105  -130.28874360    -0.00000003     0.00000021  0.58D-11  0.20D-11  6  1     2.07     0.17
  14      1.14197458    -0.44869108  -130.28874363    -0.00000003     0.00000013  0.92D-12  0.63D-12  6  2     2.21     0.17
  15      1.14197437    -0.44869109  -130.28874363    -0.00000001     0.00000003  0.26D-12  0.20D-12  6  4     2.34     0.17
  16      1.14197428    -0.44869109  -130.28874363    -0.00000000     0.00000001  0.48D-13  0.71D-13  6  3     2.49     0.17
  17      1.14197422    -0.44869109  -130.28874364    -0.00000000     0.00000001  0.36D-14  0.17D-13  6  5     2.63     0.17
  18      1.14197422    -0.44869109  -130.28874364     0.00000000    -0.00000000  0.12D-14  0.34D-14  6  6     2.77     0.17
  19      1.14197421    -0.44869109  -130.28874364    -0.00000000     0.00000000  0.99D-15  0.60D-15  6  1     2.93     0.17
  20      1.14197422    -0.44869109  -130.28874364     0.00000000    -0.00000000  0.20D-15  0.11D-15  6  2     3.08     0.17
  21      1.14197422    -0.44869109  -130.28874364     0.00000000    -0.00000000  0.49D-16  0.27D-16  6  3     3.23     0.17
  22      1.14197422    -0.44869109  -130.28874364     0.00000000     0.00000000  0.55D-17  0.24D-17  6  4     3.38     0.17
  23      1.14197422    -0.44869109  -130.28874364     0.00000000    -0.00000000  0.20D-17  0.51D-18  6  5     3.53     0.17
  24      1.14197422    -0.44869109  -130.28874364     0.00000000     0.00000000  0.13D-18  0.44D-19  6  2     3.68     0.17
  25      1.14197422    -0.44869109  -130.28874364    -0.00000000    -0.00000000  0.19D-19  0.11D-19  6  6     3.83     0.17
  26      1.14197422    -0.44869109  -130.28874364     0.00000000    -0.00000000  0.30D-20  0.19D-20  6  1     3.96     0.17
  27      1.14197422    -0.44869109  -130.28874364    -0.00000000    -0.00000000  0.43D-21  0.43D-21  6  4     4.11     0.17

 Norm of t1 vector:      0.07737158      S-energy:     0.00000000      T1 diagnostic:  0.01579341
                                                                       D1 diagnostic:  0.04133583

 Doubles amplitudes (print threshold =  0.500E-01):

         I         J         SYM. A    SYM. B    A         B      T(IJ, AB)

         6         6         2         2         1         1     -0.10664467


 Total CPU time for triples:      1.28 sec


 RESULTS
 =======

  Reference energy                   -129.840052544436
  CCSD singlet pair energy             -0.307524498981
  CCSD triplet pair energy             -0.141166593013
  CCSD correlation energy              -0.448691091993

  Triples (T) contribution             -0.020746006670
  Total correlation energy             -0.469437098663

  CCSD total energy                  -130.288743636429
  CCSD[T] energy                     -130.310529807016
  CCSD-T energy                      -130.309091601844
 !CCSD(T) total energy               -130.309489643100

 Timing summary (sec):

 STEP                 CPU(USER)    SYS     CPU(TOT)    WALL
 Transformation          0.15      0.04      0.19      0.18
 CCSD iterations         3.96      0.74      4.70      4.73
 Triples                 1.28      0.06      1.34      1.33

 Program statistics:

 Available memory in ccsd:               994999756
 Min. memory needed in ccsd:                389120
 Max. memory used in ccsd:                  473124
 Max. memory used in cckext:                599488 (27 integral passes)



 **********************************************************************************************************************************
 DATASETS  * FILE   NREC   LENGTH (MB)   RECORD NAMES
              1      20      128.20       500      610      700      900      950      970     1000      129      960     1100   
                                          VAR    BASINP    GEOM    SYMINP    ZMAT    AOBASIS   BASIS     P2S    ABASIS      S 
                                         1400     1410     1200     1210     1080     1600     1650     1300     1700     1380   
                                           T        V       H0       H01     AOSYM     SMH    MOLCAS    ERIS     OPER     JKOP   

              2       4        2.94       700     1000      520     2100   
                                         GEOM     BASIS   MCVARS     RHF  

 PROGRAMS   *        TOTAL   CCSD(T)        HF       INT
 CPU TIMES  *         7.77      5.42      0.98      1.28
 REAL TIME  *         9.75 SEC
 DISK USED  *       327.55 MB      
 **********************************************************************************************************************************

 CCSD(T)/aug-cc-pVTZ energy=   -130.309489643100

        CCSD(T)         HF-SCF  
   -130.30948964   -129.84005254
 **********************************************************************************************************************************
 Molpro calculation terminated
 Variable memory released
