
 Primary working directories    : /tmp/r2666/282195.maple
 Secondary working directories  : /tmp/r2666/282195.maple
 Wavefunction directory         : /ddn/home4/r2666/wfu/
 Main file repository           : /tmp/r2666/282195.maple/

 SHA1      : d5ffa45e93fdbca01ffc919aa182cfdae0147319
 NAME      : 2015.1.35
 ARCHNAME  : linux/x86_64
 FC        : /opt/intel/composer_xe_2015.1.133/bin/intel64/ifort
 BLASLIB   : -Wl,-_start-group /opt/intel/mkl/lib/intel64/libmkl_intel_ilp64.a /opt/intel/mkl/lib/intel64/libmkl_intel_thread.a /opt/intel/mkl/lib/intel64/libmkl_core.a -Wl,-_end-group
 id        : olemiss

 Nodes     nprocs
 cn080        1

 Using customized tuning parameters: mindgm=1; mindgv=20; mindgc=4; mindgr=1; noblas=0; minvec=7
 default implementation of scratch files=df  

 ***,hno CCSD(T)/TZ-F12 QFF
 memory, 995, m;
 gthresh,energy=1.d-12,zero=1.d-22,oneint=1.d-22,twoint=1.d-22;
 gthresh,optgrad=1.d-8,optstep=1.d-8;
 nocompress;
 geomtyp=xyz
 bohr
 geometry={
 3
         92        92
 H        0.0000000000        1.6705962001       -1.9306174031
 N        0.0000000000       -0.1646864892       -1.1420975471
 O        0.0000000000        0.0358580791        1.1221253592
 }
 
 basis=avtz
   {hf,maxit=500;accu,20;}
 {ccsd(t),nocheck,maxit=250;orbital,IGNORE_ERROR;}

 Variables initialized (889), CPU time= 0.01 sec
 Commands  initialized (702), CPU time= 0.01 sec, 572 directives.
 Default parameters read. Elapsed time= 0.04 sec

 Checking input...
 Passed
1


                                         ***  PROGRAM SYSTEM MOLPRO  ***
                                       Copyright, TTI GmbH Stuttgart, 2015
                                    Version 2015.1 linked Jul  9 2018 13:16:40


 **********************************************************************************************************************************
 LABEL *   hno CCSD(T)/TZ-F12 QFF                                                        
  64 bit serial version                                                                  DATE: 04-Mar-20          TIME: 13:46:36  
 **********************************************************************************************************************************

 SHA1:             d5ffa45e93fdbca01ffc919aa182cfdae0147319
 **********************************************************************************************************************************

 THRESHOLDS:

 ZERO    =  1.00D-22  ONEINT  =  1.00D-22  TWOINT  =  1.00D-22  PREFAC  =  1.00D-14  LOCALI  =  1.00D-09  EORDER  =  1.00D-04
 ENERGY  =  1.00D-12  ETEST   =  0.00D+00  EDENS   =  0.00D+00  THRDEDEF=  1.00D-06  GRADIENT=  1.00D-02  STEP    =  1.00D-03
 ORBITAL =  1.00D-05  CIVEC   =  1.00D-05  COEFF   =  1.00D-04  PRINTCI =  5.00D-02  PUNCHCI =  9.90D+01  OPTGRAD =  3.00D-04
 OPTENERG=  1.00D-06  OPTSTEP =  3.00D-04  THRGRAD =  1.00D-10  COMPRESS=  1.00D-11  VARMIN  =  1.00D-07  VARMAX  =  1.00D-03
 THRDOUB =  0.00D+00  THRDIV  =  1.00D-05  THRRED  =  1.00D-07  THRPSP  =  1.00D+00  THRDC   =  1.00D-10  THRCS   =  1.00D-10
 THRNRM  =  1.00D-08  THREQ   =  0.00D+00  THRDE   =  1.00D+00  THRREF  =  1.00D-05  SPARFAC =  1.00D+00  THRDLP  =  1.00D-07
 THRDIA  =  1.00D-10  THRDLS  =  1.00D-07  THRGPS  =  0.00D+00  THRKEX  =  0.00D+00  THRDIS  =  2.00D-01  THRVAR  =  1.00D-10
 THRLOC  =  1.00D-06  THRGAP  =  1.00D-06  THRLOCT = -1.00D+00  THRGAPT = -1.00D+00  THRORB  =  1.00D-06  THRMLTP =  0.00D+00
 THRCPQCI=  1.00D-10  KEXTA   =  0.00D+00  THRCOARS=  0.00D+00  SYMTOL  =  1.00D-06  GRADTOL =  1.00D-06  THROVL  =  1.00D-08
 THRORTH =  1.00D-08  GRID    =  1.00D-06  GRIDMAX =  1.00D-03  DTMAX   =  0.00D+00  THROCCDE=  1.00D-01  THROCCDE=  1.00D-01



 THRESHOLDS:

 ZERO    =  1.00D-22  ONEINT  =  1.00D-22  TWOINT  =  1.00D-22  PREFAC  =  1.00D-14  LOCALI  =  1.00D-09  EORDER  =  1.00D-04
 ENERGY  =  1.00D-12  ETEST   =  0.00D+00  EDENS   =  0.00D+00  THRDEDEF=  1.00D-06  GRADIENT=  1.00D-02  STEP    =  1.00D-03
 ORBITAL =  1.00D-05  CIVEC   =  1.00D-05  COEFF   =  1.00D-04  PRINTCI =  5.00D-02  PUNCHCI =  9.90D+01  OPTGRAD =  1.00D-08
 OPTENERG=  1.00D-06  OPTSTEP =  1.00D-08  THRGRAD =  1.00D-10  COMPRESS=  1.00D-11  VARMIN  =  1.00D-07  VARMAX  =  1.00D-03
 THRDOUB =  0.00D+00  THRDIV  =  1.00D-05  THRRED  =  1.00D-07  THRPSP  =  1.00D+00  THRDC   =  1.00D-10  THRCS   =  1.00D-10
 THRNRM  =  1.00D-08  THREQ   =  0.00D+00  THRDE   =  1.00D+00  THRREF  =  1.00D-05  SPARFAC =  1.00D+00  THRDLP  =  1.00D-07
 THRDIA  =  1.00D-10  THRDLS  =  1.00D-07  THRGPS  =  0.00D+00  THRKEX  =  0.00D+00  THRDIS  =  2.00D-01  THRVAR  =  1.00D-10
 THRLOC  =  1.00D-06  THRGAP  =  1.00D-06  THRLOCT = -1.00D+00  THRGAPT = -1.00D+00  THRORB  =  1.00D-06  THRMLTP =  0.00D+00
 THRCPQCI=  1.00D-10  KEXTA   =  0.00D+00  THRCOARS=  0.00D+00  SYMTOL  =  1.00D-06  GRADTOL =  1.00D-06  THROVL  =  1.00D-08
 THRORTH =  1.00D-08  GRID    =  1.00D-06  GRIDMAX =  1.00D-03  DTMAX   =  0.00D+00  THROCCDE=  1.00D-01  THROCCDE=  1.00D-01



 Input parameters for SORTINT:

 COMPRESS =    0.000000
 C_FINAL  =    1.000000
 DEBUG    =   -1.000000
 C_SORT1  =    0.000000
 C_SEWARD =    0.000000
 THRESH   =    0.000000
 IO       =  molpro                                                          
 SPRI     =    0.000000
 SETTING GEOMTYP        =    XYZ
 ZUNIT=BOHR
 

 Variable memory set to  995000000 words,  buffer space   230000 words

 SETTING BASIS          =    AVTZ


 Recomputing integrals since basis changed


 Using spherical harmonics

 Library entry H      S aug-cc-pVTZ          selected for orbital group  1
 Library entry H      P aug-cc-pVTZ          selected for orbital group  1
 Library entry H      D aug-cc-pVTZ          selected for orbital group  1
 Library entry N      S aug-cc-pVTZ          selected for orbital group  2
 Library entry N      P aug-cc-pVTZ          selected for orbital group  2
 Library entry N      D aug-cc-pVTZ          selected for orbital group  2
 Library entry N      F aug-cc-pVTZ          selected for orbital group  2
 Library entry O      S aug-cc-pVTZ          selected for orbital group  3
 Library entry O      P aug-cc-pVTZ          selected for orbital group  3
 Library entry O      D aug-cc-pVTZ          selected for orbital group  3
 Library entry O      F aug-cc-pVTZ          selected for orbital group  3


 PROGRAM * SEWARD (Integral evaluation for generally contracted gaussian basis sets)     Author: Roland Lindh, 1990

 Geometry written to block  1 of record 700


 Point group  Cs  



 ATOMIC COORDINATES

 NR  ATOM    CHARGE       X              Y              Z

   1  H       1.00    0.000000000    1.670596200   -1.930617403
   2  N       7.00    0.000000000   -0.164686489   -1.142097547
   3  O       8.00    0.000000000    0.035858079    1.122125359

 Bond lengths in Bohr (Angstrom)

 1-2  1.997504972  2-3  2.273086776
     ( 1.057034110)     ( 1.202865721)

 Bond angles

  1-2-3  108.18899349

 NUCLEAR CHARGE:                   16
 NUMBER OF PRIMITIVE AOS:         161
 NUMBER OF SYMMETRY AOS:          141
 NUMBER OF CONTRACTIONS:          115   (  76A'  +  39A"  )
 NUMBER OF CORE ORBITALS:           2   (   2A'  +   0A"  )
 NUMBER OF VALENCE ORBITALS:        9   (   7A'  +   2A"  )


 NUCLEAR REPULSION ENERGY   30.45068388

 Eigenvalues of metric

         1 0.231E-03 0.500E-03 0.180E-02 0.213E-02 0.249E-02 0.350E-02 0.432E-02 0.517E-02
         2 0.389E-02 0.102E-01 0.260E-01 0.371E-01 0.511E-01 0.623E-01 0.811E-01 0.119E+00


 Contracted 2-electron integrals neglected if value below      1.0D-22

       10790064. INTEGRALS WRITTEN OUT IN    2635 BLOCKS ON RECORD 1290 OF FILE 1


 NUMBER OF SORTED TWO-ELECTRON INTEGRALS:   11433631.     BUFFER LENGTH:  32768
 NUMBER OF SEGMENTS:   1  SEGMENT LENGTH:   11433631      RECORD LENGTH: 524288

 Memory used in sort:      11.99 MW

 SORT1 READ    10790064. AND WROTE    10943632. INTEGRALS IN     32 RECORDS. CPU TIME:     0.14 SEC, REAL TIME:     0.24 SEC
 SORT2 READ    10943632. AND WROTE    11433631. INTEGRALS IN      1 RECORDS. CPU TIME:     0.17 SEC, REAL TIME:     0.23 SEC

 FILE SIZES:   FILE 1:   193.0 MBYTE,  FILE 4:   134.3 MBYTE,   TOTAL:    327.2 MBYTE

 OPERATOR DM      FOR CENTER  0  COORDINATES:    0.000000    0.000000    0.000000


 **********************************************************************************************************************************
 DATASETS  * FILE   NREC   LENGTH (MB)   RECORD NAMES
              1      19      111.05       500      610      700      900      950      970     1000      129      960     1100   
                                          VAR    BASINP    GEOM    SYMINP    ZMAT    AOBASIS   BASIS     P2S    ABASIS      S 
                                         1400     1410     1200     1210     1080     1600     1650     1300     1700   
                                           T        V       H0       H01     AOSYM     SMH    MOLCAS    ERIS     OPER   

 PROGRAMS   *        TOTAL       INT
 CPU TIMES  *         1.26      1.18
 REAL TIME  *         2.01 SEC
 DISK USED  *       327.55 MB      
 **********************************************************************************************************************************


 PROGRAM * RHF-SCF (CLOSED SHELL)       Authors: W. Meyer, H.-J. Werner


 NUMBER OF ELECTRONS:       8+    8-
 CONVERGENCE THRESHOLDS:    1.00E-10 (Density)    1.00E-13 (Energy)
 MAX. NUMBER OF ITERATIONS:      500
 INTERPOLATION TYPE:            DIIS
 INTERPOLATION STEPS:              2 (START)      1 (STEP)
 LEVEL SHIFTS:                  0.00 (CLOSED)  0.00 (OPEN) 



 Orbital guess generated from atomic densities. Full valence occupancy:    9   2

 Molecular orbital dump at record        2100.2

 Initial occupancy:   7   1

 ITERATION    DDIFF          GRAD             ENERGY        2-EL.EN.            DIPOLE MOMENTS         DIIS   ORB.
    1      0.000D+00      0.000D+00      -129.78934814    154.037390    0.00000    0.58636   -1.00497    0    start
    2      0.000D+00      0.107D-01      -129.81695749    155.322933    0.00000    0.60710   -0.20998    1    diag
    3      0.118D-01      0.812D-02      -129.83896896    155.421274    0.00000    0.55309   -0.58431    2    diag
    4      0.586D-02      0.127D-02      -129.83975030    155.136173    0.00000    0.56064   -0.52524    3    diag
    5      0.107D-02      0.419D-03      -129.83987500    155.230093    0.00000    0.56629   -0.52818    4    diag
    6      0.447D-03      0.121D-03      -129.83989491    155.214542    0.00000    0.56670   -0.52418    5    diag
    7      0.171D-03      0.597D-04      -129.83990055    155.217124    0.00000    0.56798   -0.52170    6    diag
    8      0.118D-03      0.200D-04      -129.83990113    155.216484    0.00000    0.56801   -0.52074    7    diag
    9      0.429D-04      0.377D-05      -129.83990116    155.216378    0.00000    0.56797   -0.52054    8    diag
   10      0.819D-05      0.870D-06      -129.83990116    155.216359    0.00000    0.56794   -0.52051    9    orth
   11      0.171D-05      0.175D-06      -129.83990116    155.216356    0.00000    0.56793   -0.52050    9    diag
   12      0.335D-06      0.357D-07      -129.83990116    155.216355    0.00000    0.56793   -0.52050    9    diag
   13      0.726D-07      0.895D-08      -129.83990116    155.216355    0.00000    0.56793   -0.52050    9    diag
   14      0.188D-07      0.187D-08      -129.83990116    155.216355    0.00000    0.56793   -0.52050    9    diag
   15      0.380D-08      0.529D-09      -129.83990116    155.216355    0.00000    0.56793   -0.52050    9    diag
   16      0.103D-08      0.148D-09      -129.83990116    155.216355    0.00000    0.56793   -0.52050    9    diag
   17      0.190D-09      0.431D-10      -129.83990116    155.216355    0.00000    0.56793   -0.52050    9    diag
   18      0.548D-10      0.154D-10      -129.83990116    155.216355    0.00000    0.56793   -0.52050    9    diag
   19      0.277D-10      0.344D-11      -129.83990116    155.216355    0.00000    0.56793   -0.52050    9    fixocc
   20      0.676D-11      0.572D-12      -129.83990116    155.216355    0.00000    0.56793   -0.52050    9    orth
   21      0.166D-11      0.190D-12      -129.83990116    155.216355    0.00000    0.56793   -0.52050    9    diag
   22      0.206D-11      0.784D-13      -129.83990116    155.216355    0.00000    0.56793   -0.52050    9    diag
   23      0.989D-12      0.412D-13      -129.83990116    155.216355    0.00000    0.56793   -0.52050    9    diag
   24      0.382D-12      0.504D-13      -129.83990116    155.216355    0.00000    0.56793   -0.52050    9    diag
   25      0.197D-12      0.301D-13      -129.83990116    155.216355    0.00000    0.56793   -0.52050    9    diag
   26      0.112D-12      0.347D-13      -129.83990116    155.216355    0.00000    0.56793   -0.52050    9    diag
   27      0.900D-13      0.378D-13      -129.83990116    155.216355    0.00000    0.56793   -0.52050    9    diag
   28      0.138D-12      0.321D-13      -129.83990116    155.216355    0.00000    0.56793   -0.52050    0    orth

 Final occupancy:   7   1

 !RHF STATE 1.1 Energy               -129.839901156783
 Nuclear energy                        30.45068388
 One-electron energy                 -237.89876260
 Two-electron energy                   77.60817756
 Virial quotient                       -1.00205952
 !RHF STATE 1.1 Dipole moment           0.00000000     0.56792704    -0.52050292
 Dipole moment /Debye                   0.00000000     1.44343201    -1.32289980

 Orbital energies:

         1.1          2.1          3.1          4.1          5.1          6.1          7.1          8.1          9.1
    -20.656174   -15.714272    -1.534927    -0.992603    -0.748328    -0.667571    -0.428586     0.029251     0.092185

         1.2          2.2          3.2
     -0.598745     0.066291     0.130427

 HOMO      7.1    -0.428586 =     -11.6624eV
 LUMO      8.1     0.029251 =       0.7960eV
 LUMO-HOMO         0.457836 =      12.4584eV


 **********************************************************************************************************************************
 DATASETS  * FILE   NREC   LENGTH (MB)   RECORD NAMES
              1      19      111.05       500      610      700      900      950      970     1000      129      960     1100   
                                          VAR    BASINP    GEOM    SYMINP    ZMAT    AOBASIS   BASIS     P2S    ABASIS      S 
                                         1400     1410     1200     1210     1080     1600     1650     1300     1700   
                                           T        V       H0       H01     AOSYM     SMH    MOLCAS    ERIS     OPER   

              2       4        2.94       700     1000      520     2100   
                                         GEOM     BASIS   MCVARS     RHF  

 PROGRAMS   *        TOTAL        HF       INT
 CPU TIMES  *         2.79      1.53      1.18
 REAL TIME  *         3.89 SEC
 DISK USED  *       327.55 MB      
 **********************************************************************************************************************************


 PROGRAM * CCSD (Closed-shell coupled cluster)     Authors: C. Hampel, H.-J. Werner, 1991, M. Deegan, P.J. Knowles, 1992


 Convergence thresholds:  THRVAR = 1.00D-08  THRDEN = 1.00D-12

 CCSD(T)     terms to be evaluated (factor= 1.000)


 Number of core orbitals:           2 (   2   0 )
 Number of closed-shell orbitals:   6 (   5   1 )
 Number of external orbitals:     107 (  69  38 )

 Molecular orbitals read from record     2100.2  Type=RHF/CANONICAL (state 1.1)

 Number of N-1 electron functions:               6
 Number of N-2 electron functions:              21
 Number of singly external CSFs:               383
 Number of doubly external CSFs:            107206
 Total number of CSFs:                      107590

 Length of J-op  integral file:               0.00 MB
 Length of K-op  integral file:               0.54 MB
 Length of 3-ext integral record:             0.00 MB

 Memory could be reduced to 5.94 Mwords without degradation in triples

 Integral transformation finished. Total CPU:   0.15 sec, npass=  1  Memory used:   1.65 MW

 Reference energy:                   -129.83990116

 MP2 singlet pair energy:              -0.27902600
 MP2 triplet pair energy:              -0.16489768
 MP2 correlation energy:               -0.44392368
 MP2 total energy:                   -130.28382483

 SCS-MP2 correlation energy:           -0.43743420   (PS=  1.200000  PT=  0.333333)
 SCS-MP2 total energy:               -130.27733535

 ITER.      SQ.NORM     CORR.ENERGY   TOTAL ENERGY   ENERGY CHANGE        DEN1      VAR(S)    VAR(P)  DIIS     TIME  TIME/IT
   1      1.12056482    -0.44821679  -130.28811795    -0.00429311     0.01160575  0.31D-02  0.31D-02  1  1     0.32     0.17
   2      1.13159660    -0.44844962  -130.28835078    -0.00023283    -0.01234858  0.99D-04  0.51D-03  2  2     0.49     0.17
   3      1.13801326    -0.44884489  -130.28874605    -0.00039527    -0.00297970  0.53D-04  0.50D-04  3  3     0.64     0.17
   4      1.14084881    -0.44885522  -130.28875638    -0.00001033    -0.00096327  0.41D-05  0.91D-05  4  4     0.79     0.17
   5      1.14187804    -0.44888340  -130.28878455    -0.00002817    -0.00021825  0.11D-05  0.16D-05  5  5     0.93     0.17
   6      1.14221589    -0.44886699  -130.28876815     0.00001640    -0.00004105  0.10D-06  0.39D-06  6  6     1.08     0.17
   7      1.14229137    -0.44886796  -130.28876912    -0.00000097    -0.00000199  0.20D-07  0.91D-07  6  1     1.21     0.17
   8      1.14231322    -0.44886868  -130.28876983    -0.00000071     0.00000138  0.37D-08  0.16D-07  6  2     1.37     0.17
   9      1.14231867    -0.44886823  -130.28876938     0.00000045     0.00000047  0.27D-08  0.18D-08  6  4     1.52     0.17
  10      1.14232094    -0.44886870  -130.28876986    -0.00000048    -0.00000070  0.43D-09  0.21D-09  6  3     1.67     0.17
  11      1.14232043    -0.44886873  -130.28876988    -0.00000003    -0.00000006  0.15D-09  0.32D-10  6  5     1.82     0.17
  12      1.14231937    -0.44886887  -130.28877003    -0.00000015     0.00000033  0.18D-10  0.10D-10  6  6     1.97     0.17
  13      1.14231853    -0.44886891  -130.28877007    -0.00000004     0.00000021  0.62D-11  0.21D-11  6  1     2.12     0.17
  14      1.14231800    -0.44886894  -130.28877009    -0.00000003     0.00000014  0.10D-11  0.66D-12  6  2     2.26     0.17
  15      1.14231778    -0.44886894  -130.28877010    -0.00000001     0.00000003  0.28D-12  0.21D-12  6  4     2.41     0.17
  16      1.14231769    -0.44886895  -130.28877010    -0.00000000     0.00000001  0.53D-13  0.74D-13  6  3     2.55     0.17
  17      1.14231763    -0.44886895  -130.28877011    -0.00000000     0.00000001  0.37D-14  0.18D-13  6  5     2.69     0.17
  18      1.14231762    -0.44886895  -130.28877011     0.00000000    -0.00000000  0.13D-14  0.37D-14  6  6     2.83     0.17
  19      1.14231762    -0.44886895  -130.28877011    -0.00000000     0.00000000  0.11D-14  0.67D-15  6  1     2.98     0.17
  20      1.14231762    -0.44886895  -130.28877011     0.00000000    -0.00000000  0.22D-15  0.12D-15  6  2     3.14     0.17
  21      1.14231762    -0.44886895  -130.28877011     0.00000000    -0.00000000  0.52D-16  0.31D-16  6  3     3.29     0.17
  22      1.14231762    -0.44886895  -130.28877011     0.00000000     0.00000000  0.60D-17  0.27D-17  6  4     3.42     0.17
  23      1.14231762    -0.44886895  -130.28877011     0.00000000    -0.00000000  0.22D-17  0.56D-18  6  5     3.59     0.17
  24      1.14231762    -0.44886895  -130.28877011     0.00000000     0.00000000  0.14D-18  0.47D-19  6  2     3.73     0.17
  25      1.14231762    -0.44886895  -130.28877011    -0.00000000    -0.00000000  0.21D-19  0.12D-19  6  6     3.89     0.17
  26      1.14231762    -0.44886895  -130.28877011     0.00000000    -0.00000000  0.34D-20  0.20D-20  6  1     4.04     0.17
  27      1.14231762    -0.44886895  -130.28877011    -0.00000000    -0.00000000  0.48D-21  0.46D-21  6  4     4.20     0.17

 Norm of t1 vector:      0.07784424      S-energy:    -0.00000000      T1 diagnostic:  0.01588989
                                                                       D1 diagnostic:  0.04142370

 Doubles amplitudes (print threshold =  0.500E-01):

         I         J         SYM. A    SYM. B    A         B      T(IJ, AB)

         6         6         2         2         1         1     -0.10661978


 Total CPU time for triples:      1.17 sec


 RESULTS
 =======

  Reference energy                   -129.839901156783
  CCSD singlet pair energy             -0.307676089069
  CCSD triplet pair energy             -0.141192859859
  CCSD correlation energy              -0.448868948928

  Triples (T) contribution             -0.020789394147
  Total correlation energy             -0.469658343075

  CCSD total energy                  -130.288770105711
  CCSD[T] energy                     -130.310609709814
  CCSD-T energy                      -130.309158231311
 !CCSD(T) total energy               -130.309559499858

 Timing summary (sec):

 STEP                 CPU(USER)    SYS     CPU(TOT)    WALL
 Transformation          0.16      0.03      0.19      0.21
 CCSD iterations         4.05      0.58      4.63      4.62
 Triples                 1.17      0.03      1.20      1.22

 Program statistics:

 Available memory in ccsd:               994999756
 Min. memory needed in ccsd:                389120
 Max. memory used in ccsd:                  473124
 Max. memory used in cckext:                599488 (27 integral passes)



 **********************************************************************************************************************************
 DATASETS  * FILE   NREC   LENGTH (MB)   RECORD NAMES
              1      20      128.20       500      610      700      900      950      970     1000      129      960     1100   
                                          VAR    BASINP    GEOM    SYMINP    ZMAT    AOBASIS   BASIS     P2S    ABASIS      S 
                                         1400     1410     1200     1210     1080     1600     1650     1300     1700     1380   
                                           T        V       H0       H01     AOSYM     SMH    MOLCAS    ERIS     OPER     JKOP   

              2       4        2.94       700     1000      520     2100   
                                         GEOM     BASIS   MCVARS     RHF  

 PROGRAMS   *        TOTAL   CCSD(T)        HF       INT
 CPU TIMES  *         8.20      5.40      1.53      1.18
 REAL TIME  *        10.00 SEC
 DISK USED  *       327.55 MB      
 **********************************************************************************************************************************

 CCSD(T)/aug-cc-pVTZ energy=   -130.309559499858

        CCSD(T)         HF-SCF  
   -130.30955950   -129.83990116
 **********************************************************************************************************************************
 Molpro calculation terminated
 Variable memory released
