
 Primary working directories    : /tmp/r2666/282222.maple
 Secondary working directories  : /tmp/r2666/282222.maple
 Wavefunction directory         : /ddn/home4/r2666/wfu/
 Main file repository           : /tmp/r2666/282222.maple/

 SHA1      : d5ffa45e93fdbca01ffc919aa182cfdae0147319
 NAME      : 2015.1.35
 ARCHNAME  : linux/x86_64
 FC        : /opt/intel/composer_xe_2015.1.133/bin/intel64/ifort
 BLASLIB   : -Wl,-_start-group /opt/intel/mkl/lib/intel64/libmkl_intel_ilp64.a /opt/intel/mkl/lib/intel64/libmkl_intel_thread.a /opt/intel/mkl/lib/intel64/libmkl_core.a -Wl,-_end-group
 id        : olemiss

 Nodes     nprocs
 cn003        1

 Using customized tuning parameters: mindgm=1; mindgv=20; mindgc=4; mindgr=1; noblas=0; minvec=7
 default implementation of scratch files=df  

 ***,hno CCSD(T)/TZ-F12 QFF
 memory, 995, m;
 gthresh,energy=1.d-12,zero=1.d-22,oneint=1.d-22,twoint=1.d-22;
 gthresh,optgrad=1.d-8,optstep=1.d-8;
 nocompress;
 geomtyp=xyz
 bohr
 geometry={
 3
        119       119
 H        0.0000000000        1.6763576861       -1.9435007866
 N        0.0000000000       -0.1630747152       -1.1407858922
 O        0.0000000000        0.0284848191        1.1336970878
 }
 
 basis=avtz
   {hf,maxit=500;accu,20;}
 {ccsd(t),nocheck,maxit=250;orbital,IGNORE_ERROR;}

 Variables initialized (889), CPU time= 0.01 sec
 Commands  initialized (702), CPU time= 0.01 sec, 572 directives.
 Default parameters read. Elapsed time= 0.10 sec

 Checking input...
 Passed
1


                                         ***  PROGRAM SYSTEM MOLPRO  ***
                                       Copyright, TTI GmbH Stuttgart, 2015
                                    Version 2015.1 linked Jul  9 2018 13:16:40


 **********************************************************************************************************************************
 LABEL *   hno CCSD(T)/TZ-F12 QFF                                                        
  64 bit serial version                                                                  DATE: 04-Mar-20          TIME: 13:46:46  
 **********************************************************************************************************************************

 SHA1:             d5ffa45e93fdbca01ffc919aa182cfdae0147319
 **********************************************************************************************************************************

 THRESHOLDS:

 ZERO    =  1.00D-22  ONEINT  =  1.00D-22  TWOINT  =  1.00D-22  PREFAC  =  1.00D-14  LOCALI  =  1.00D-09  EORDER  =  1.00D-04
 ENERGY  =  1.00D-12  ETEST   =  0.00D+00  EDENS   =  0.00D+00  THRDEDEF=  1.00D-06  GRADIENT=  1.00D-02  STEP    =  1.00D-03
 ORBITAL =  1.00D-05  CIVEC   =  1.00D-05  COEFF   =  1.00D-04  PRINTCI =  5.00D-02  PUNCHCI =  9.90D+01  OPTGRAD =  3.00D-04
 OPTENERG=  1.00D-06  OPTSTEP =  3.00D-04  THRGRAD =  1.00D-10  COMPRESS=  1.00D-11  VARMIN  =  1.00D-07  VARMAX  =  1.00D-03
 THRDOUB =  0.00D+00  THRDIV  =  1.00D-05  THRRED  =  1.00D-07  THRPSP  =  1.00D+00  THRDC   =  1.00D-10  THRCS   =  1.00D-10
 THRNRM  =  1.00D-08  THREQ   =  0.00D+00  THRDE   =  1.00D+00  THRREF  =  1.00D-05  SPARFAC =  1.00D+00  THRDLP  =  1.00D-07
 THRDIA  =  1.00D-10  THRDLS  =  1.00D-07  THRGPS  =  0.00D+00  THRKEX  =  0.00D+00  THRDIS  =  2.00D-01  THRVAR  =  1.00D-10
 THRLOC  =  1.00D-06  THRGAP  =  1.00D-06  THRLOCT = -1.00D+00  THRGAPT = -1.00D+00  THRORB  =  1.00D-06  THRMLTP =  0.00D+00
 THRCPQCI=  1.00D-10  KEXTA   =  0.00D+00  THRCOARS=  0.00D+00  SYMTOL  =  1.00D-06  GRADTOL =  1.00D-06  THROVL  =  1.00D-08
 THRORTH =  1.00D-08  GRID    =  1.00D-06  GRIDMAX =  1.00D-03  DTMAX   =  0.00D+00  THROCCDE=  1.00D-01  THROCCDE=  1.00D-01



 THRESHOLDS:

 ZERO    =  1.00D-22  ONEINT  =  1.00D-22  TWOINT  =  1.00D-22  PREFAC  =  1.00D-14  LOCALI  =  1.00D-09  EORDER  =  1.00D-04
 ENERGY  =  1.00D-12  ETEST   =  0.00D+00  EDENS   =  0.00D+00  THRDEDEF=  1.00D-06  GRADIENT=  1.00D-02  STEP    =  1.00D-03
 ORBITAL =  1.00D-05  CIVEC   =  1.00D-05  COEFF   =  1.00D-04  PRINTCI =  5.00D-02  PUNCHCI =  9.90D+01  OPTGRAD =  1.00D-08
 OPTENERG=  1.00D-06  OPTSTEP =  1.00D-08  THRGRAD =  1.00D-10  COMPRESS=  1.00D-11  VARMIN  =  1.00D-07  VARMAX  =  1.00D-03
 THRDOUB =  0.00D+00  THRDIV  =  1.00D-05  THRRED  =  1.00D-07  THRPSP  =  1.00D+00  THRDC   =  1.00D-10  THRCS   =  1.00D-10
 THRNRM  =  1.00D-08  THREQ   =  0.00D+00  THRDE   =  1.00D+00  THRREF  =  1.00D-05  SPARFAC =  1.00D+00  THRDLP  =  1.00D-07
 THRDIA  =  1.00D-10  THRDLS  =  1.00D-07  THRGPS  =  0.00D+00  THRKEX  =  0.00D+00  THRDIS  =  2.00D-01  THRVAR  =  1.00D-10
 THRLOC  =  1.00D-06  THRGAP  =  1.00D-06  THRLOCT = -1.00D+00  THRGAPT = -1.00D+00  THRORB  =  1.00D-06  THRMLTP =  0.00D+00
 THRCPQCI=  1.00D-10  KEXTA   =  0.00D+00  THRCOARS=  0.00D+00  SYMTOL  =  1.00D-06  GRADTOL =  1.00D-06  THROVL  =  1.00D-08
 THRORTH =  1.00D-08  GRID    =  1.00D-06  GRIDMAX =  1.00D-03  DTMAX   =  0.00D+00  THROCCDE=  1.00D-01  THROCCDE=  1.00D-01



 Input parameters for SORTINT:

 COMPRESS =    0.000000
 C_FINAL  =    1.000000
 DEBUG    =   -1.000000
 C_SORT1  =    0.000000
 C_SEWARD =    0.000000
 THRESH   =    0.000000
 IO       =  molpro                                                          
 SPRI     =    0.000000
 SETTING GEOMTYP        =    XYZ
 ZUNIT=BOHR
 

 Variable memory set to  995000000 words,  buffer space   230000 words

 SETTING BASIS          =    AVTZ


 Recomputing integrals since basis changed


 Using spherical harmonics

 Library entry H      S aug-cc-pVTZ          selected for orbital group  1
 Library entry H      P aug-cc-pVTZ          selected for orbital group  1
 Library entry H      D aug-cc-pVTZ          selected for orbital group  1
 Library entry N      S aug-cc-pVTZ          selected for orbital group  2
 Library entry N      P aug-cc-pVTZ          selected for orbital group  2
 Library entry N      D aug-cc-pVTZ          selected for orbital group  2
 Library entry N      F aug-cc-pVTZ          selected for orbital group  2
 Library entry O      S aug-cc-pVTZ          selected for orbital group  3
 Library entry O      P aug-cc-pVTZ          selected for orbital group  3
 Library entry O      D aug-cc-pVTZ          selected for orbital group  3
 Library entry O      F aug-cc-pVTZ          selected for orbital group  3


 PROGRAM * SEWARD (Integral evaluation for generally contracted gaussian basis sets)     Author: Roland Lindh, 1990

 Geometry written to block  1 of record 700


 Point group  Cs  



 ATOMIC COORDINATES

 NR  ATOM    CHARGE       X              Y              Z

   1  H       1.00    0.000000000    1.676357686   -1.943500787
   2  N       7.00    0.000000000   -0.163074715   -1.140785892
   3  O       8.00    0.000000000    0.028484819    1.133697088

 Bond lengths in Bohr (Angstrom)

 1-2  2.006953602  2-3  2.282535406
     ( 1.062034110)     ( 1.207865720)

 Bond angles

  1-2-3  108.76195128

 NUCLEAR CHARGE:                   16
 NUMBER OF PRIMITIVE AOS:         161
 NUMBER OF SYMMETRY AOS:          141
 NUMBER OF CONTRACTIONS:          115   (  76A'  +  39A"  )
 NUMBER OF CORE ORBITALS:           2   (   2A'  +   0A"  )
 NUMBER OF VALENCE ORBITALS:        9   (   7A'  +   2A"  )


 NUCLEAR REPULSION ENERGY   30.31383172

 Eigenvalues of metric

         1 0.234E-03 0.503E-03 0.182E-02 0.216E-02 0.254E-02 0.358E-02 0.436E-02 0.524E-02
         2 0.395E-02 0.103E-01 0.263E-01 0.373E-01 0.511E-01 0.627E-01 0.819E-01 0.121E+00


 Contracted 2-electron integrals neglected if value below      1.0D-22

       10790060. INTEGRALS WRITTEN OUT IN    2635 BLOCKS ON RECORD 1290 OF FILE 1


 NUMBER OF SORTED TWO-ELECTRON INTEGRALS:   11433631.     BUFFER LENGTH:  32768
 NUMBER OF SEGMENTS:   1  SEGMENT LENGTH:   11433631      RECORD LENGTH: 524288

 Memory used in sort:      11.99 MW

 SORT1 READ    10790060. AND WROTE    10943631. INTEGRALS IN     32 RECORDS. CPU TIME:     0.23 SEC, REAL TIME:     0.31 SEC
 SORT2 READ    10943631. AND WROTE    11433631. INTEGRALS IN      1 RECORDS. CPU TIME:     0.30 SEC, REAL TIME:     0.37 SEC

 FILE SIZES:   FILE 1:   193.0 MBYTE,  FILE 4:   134.3 MBYTE,   TOTAL:    327.2 MBYTE

 OPERATOR DM      FOR CENTER  0  COORDINATES:    0.000000    0.000000    0.000000


 **********************************************************************************************************************************
 DATASETS  * FILE   NREC   LENGTH (MB)   RECORD NAMES
              1      19      111.05       500      610      700      900      950      970     1000      129      960     1100   
                                          VAR    BASINP    GEOM    SYMINP    ZMAT    AOBASIS   BASIS     P2S    ABASIS      S 
                                         1400     1410     1200     1210     1080     1600     1650     1300     1700   
                                           T        V       H0       H01     AOSYM     SMH    MOLCAS    ERIS     OPER   

 PROGRAMS   *        TOTAL       INT
 CPU TIMES  *         1.73      1.62
 REAL TIME  *         2.84 SEC
 DISK USED  *       327.55 MB      
 **********************************************************************************************************************************


 PROGRAM * RHF-SCF (CLOSED SHELL)       Authors: W. Meyer, H.-J. Werner


 NUMBER OF ELECTRONS:       8+    8-
 CONVERGENCE THRESHOLDS:    1.00E-10 (Density)    1.00E-13 (Energy)
 MAX. NUMBER OF ITERATIONS:      500
 INTERPOLATION TYPE:            DIIS
 INTERPOLATION STEPS:              2 (START)      1 (STEP)
 LEVEL SHIFTS:                  0.00 (CLOSED)  0.00 (OPEN) 



 Orbital guess generated from atomic densities. Full valence occupancy:    9   2

 Molecular orbital dump at record        2100.2

 Initial occupancy:   7   1

 ITERATION    DDIFF          GRAD             ENERGY        2-EL.EN.            DIPOLE MOMENTS         DIIS   ORB.
    1      0.000D+00      0.000D+00      -129.78757480    153.785753    0.00000    0.59037   -1.02293    0    start
    2      0.000D+00      0.108D-01      -129.81501724    155.070212    0.00000    0.60944   -0.20817    1    diag
    3      0.119D-01      0.828D-02      -129.83801804    155.177754    0.00000    0.55594   -0.59356    2    diag
    4      0.596D-02      0.128D-02      -129.83881268    154.887670    0.00000    0.56303   -0.53352    3    diag
    5      0.107D-02      0.422D-03      -129.83894023    154.982647    0.00000    0.56882   -0.53646    4    diag
    6      0.452D-03      0.122D-03      -129.83896066    154.966971    0.00000    0.56921   -0.53235    5    diag
    7      0.174D-03      0.605D-04      -129.83896650    154.969528    0.00000    0.57050   -0.52981    6    diag
    8      0.119D-03      0.206D-04      -129.83896713    154.968870    0.00000    0.57053   -0.52881    7    diag
    9      0.447D-04      0.393D-05      -129.83896716    154.968759    0.00000    0.57049   -0.52859    8    diag
   10      0.866D-05      0.902D-06      -129.83896716    154.968738    0.00000    0.57046   -0.52856    9    orth
   11      0.178D-05      0.180D-06      -129.83896716    154.968735    0.00000    0.57045   -0.52856    9    diag
   12      0.345D-06      0.368D-07      -129.83896716    154.968734    0.00000    0.57045   -0.52856    9    diag
   13      0.741D-07      0.934D-08      -129.83896716    154.968734    0.00000    0.57045   -0.52856    9    diag
   14      0.195D-07      0.195D-08      -129.83896716    154.968734    0.00000    0.57045   -0.52856    9    diag
   15      0.388D-08      0.543D-09      -129.83896716    154.968734    0.00000    0.57045   -0.52856    9    diag
   16      0.105D-08      0.148D-09      -129.83896716    154.968734    0.00000    0.57045   -0.52856    9    diag
   17      0.186D-09      0.423D-10      -129.83896716    154.968734    0.00000    0.57045   -0.52856    9    diag
   18      0.526D-10      0.152D-10      -129.83896716    154.968734    0.00000    0.57045   -0.52856    9    diag
   19      0.277D-10      0.337D-11      -129.83896716    154.968734    0.00000    0.57045   -0.52856    9    fixocc
   20      0.650D-11      0.586D-12      -129.83896716    154.968734    0.00000    0.57045   -0.52856    0    orth

 Final occupancy:   7   1

 !RHF STATE 1.1 Energy               -129.838967157575
 Nuclear energy                        30.31383172
 One-electron energy                 -237.63716593
 Two-electron energy                   77.48436705
 Virial quotient                       -1.00228838
 !RHF STATE 1.1 Dipole moment           0.00000000     0.57044670    -0.52856053
 Dipole moment /Debye                   0.00000000     1.44983591    -1.34337887

 Orbital energies:

         1.1          2.1          3.1          4.1          5.1          6.1          7.1          8.1          9.1
    -20.656905   -15.715701    -1.530472    -0.992884    -0.746209    -0.666243    -0.429444     0.029126     0.092133

         1.2          2.2          3.2
     -0.596357     0.064824     0.130366

 HOMO      7.1    -0.429444 =     -11.6858eV
 LUMO      8.1     0.029126 =       0.7926eV
 LUMO-HOMO         0.458570 =      12.4783eV


 **********************************************************************************************************************************
 DATASETS  * FILE   NREC   LENGTH (MB)   RECORD NAMES
              1      19      111.05       500      610      700      900      950      970     1000      129      960     1100   
                                          VAR    BASINP    GEOM    SYMINP    ZMAT    AOBASIS   BASIS     P2S    ABASIS      S 
                                         1400     1410     1200     1210     1080     1600     1650     1300     1700   
                                           T        V       H0       H01     AOSYM     SMH    MOLCAS    ERIS     OPER   

              2       4        2.94       700     1000      520     2100   
                                         GEOM     BASIS   MCVARS     RHF  

 PROGRAMS   *        TOTAL        HF       INT
 CPU TIMES  *         3.02      1.29      1.62
 REAL TIME  *         4.55 SEC
 DISK USED  *       327.55 MB      
 **********************************************************************************************************************************


 PROGRAM * CCSD (Closed-shell coupled cluster)     Authors: C. Hampel, H.-J. Werner, 1991, M. Deegan, P.J. Knowles, 1992


 Convergence thresholds:  THRVAR = 1.00D-08  THRDEN = 1.00D-12

 CCSD(T)     terms to be evaluated (factor= 1.000)


 Number of core orbitals:           2 (   2   0 )
 Number of closed-shell orbitals:   6 (   5   1 )
 Number of external orbitals:     107 (  69  38 )

 Molecular orbitals read from record     2100.2  Type=RHF/CANONICAL (state 1.1)

 Number of N-1 electron functions:               6
 Number of N-2 electron functions:              21
 Number of singly external CSFs:               383
 Number of doubly external CSFs:            107206
 Total number of CSFs:                      107590

 Length of J-op  integral file:               0.00 MB
 Length of K-op  integral file:               0.54 MB
 Length of 3-ext integral record:             0.00 MB

 Memory could be reduced to 5.94 Mwords without degradation in triples

 Integral transformation finished. Total CPU:   0.18 sec, npass=  1  Memory used:   1.65 MW

 Reference energy:                   -129.83896716

 MP2 singlet pair energy:              -0.27967199
 MP2 triplet pair energy:              -0.16532212
 MP2 correlation energy:               -0.44499411
 MP2 total energy:                   -130.28396127

 SCS-MP2 correlation energy:           -0.43847349   (PS=  1.200000  PT=  0.333333)
 SCS-MP2 total energy:               -130.27744064

 ITER.      SQ.NORM     CORR.ENERGY   TOTAL ENERGY   ENERGY CHANGE        DEN1      VAR(S)    VAR(P)  DIIS     TIME  TIME/IT
   1      1.12130144    -0.44908275  -130.28804991    -0.00408864     0.01207512  0.32D-02  0.32D-02  1  1     0.40     0.25
   2      1.13249895    -0.44927195  -130.28823911    -0.00018920    -0.01250333  0.10D-03  0.52D-03  2  2     0.64     0.26
   3      1.13906537    -0.44968078  -130.28864793    -0.00040882    -0.00302623  0.56D-04  0.52D-04  3  3     0.86     0.26
   4      1.14197978    -0.44969022  -130.28865737    -0.00000944    -0.00098497  0.44D-05  0.94D-05  4  4     1.08     0.26
   5      1.14305703    -0.44971979  -130.28868694    -0.00002957    -0.00022813  0.12D-05  0.16D-05  5  5     1.31     0.26
   6      1.14340822    -0.44970262  -130.28866978     0.00001716    -0.00004265  0.11D-06  0.40D-06  6  6     1.54     0.26
   7      1.14348589    -0.44970355  -130.28867071    -0.00000093    -0.00000198  0.21D-07  0.93D-07  6  1     1.78     0.26
   8      1.14350853    -0.44970424  -130.28867140    -0.00000069     0.00000126  0.37D-08  0.17D-07  6  2     2.00     0.26
   9      1.14351431    -0.44970374  -130.28867090     0.00000049     0.00000055  0.28D-08  0.19D-08  6  4     2.24     0.26
  10      1.14351673    -0.44970424  -130.28867140    -0.00000050    -0.00000075  0.46D-09  0.23D-09  6  3     2.48     0.26
  11      1.14351621    -0.44970427  -130.28867142    -0.00000003    -0.00000006  0.16D-09  0.35D-10  6  5     2.71     0.26
  12      1.14351511    -0.44970442  -130.28867158    -0.00000016     0.00000035  0.19D-10  0.11D-10  6  6     2.94     0.26
  13      1.14351422    -0.44970446  -130.28867162    -0.00000004     0.00000022  0.68D-11  0.23D-11  6  1     3.18     0.26
  14      1.14351365    -0.44970449  -130.28867164    -0.00000003     0.00000014  0.11D-11  0.71D-12  6  2     3.42     0.26
  15      1.14351342    -0.44970450  -130.28867165    -0.00000001     0.00000003  0.31D-12  0.22D-12  6  4     3.67     0.26
  16      1.14351332    -0.44970450  -130.28867165    -0.00000000     0.00000001  0.59D-13  0.80D-13  6  3     3.90     0.26
  17      1.14351326    -0.44970450  -130.28867166    -0.00000000     0.00000001  0.40D-14  0.19D-13  6  5     4.15     0.26
  18      1.14351325    -0.44970450  -130.28867166     0.00000000    -0.00000000  0.13D-14  0.41D-14  6  6     4.37     0.26
  19      1.14351325    -0.44970450  -130.28867166    -0.00000000     0.00000000  0.11D-14  0.76D-15  6  1     4.62     0.26
  20      1.14351325    -0.44970450  -130.28867166     0.00000000    -0.00000000  0.24D-15  0.14D-15  6  2     4.87     0.26
  21      1.14351325    -0.44970450  -130.28867166     0.00000000    -0.00000000  0.56D-16  0.34D-16  6  3     5.11     0.26
  22      1.14351325    -0.44970450  -130.28867166     0.00000000     0.00000000  0.66D-17  0.31D-17  6  4     5.35     0.26
  23      1.14351325    -0.44970450  -130.28867166     0.00000000    -0.00000000  0.24D-17  0.63D-18  6  5     5.58     0.26
  24      1.14351325    -0.44970450  -130.28867166     0.00000000     0.00000000  0.17D-18  0.54D-19  6  2     5.81     0.26
  25      1.14351325    -0.44970450  -130.28867166    -0.00000000    -0.00000000  0.25D-19  0.13D-19  6  6     6.04     0.26
  26      1.14351325    -0.44970450  -130.28867166     0.00000000    -0.00000000  0.40D-20  0.23D-20  6  1     6.26     0.26
  27      1.14351325    -0.44970450  -130.28867166    -0.00000000    -0.00000000  0.54D-21  0.54D-21  6  4     6.50     0.26

 Norm of t1 vector:      0.07905644      S-energy:     0.00000000      T1 diagnostic:  0.01613733
                                                                       D1 diagnostic:  0.04215854

 Doubles amplitudes (print threshold =  0.500E-01):

         I         J         SYM. A    SYM. B    A         B      T(IJ, AB)

         6         6         2         2         1         1     -0.10881933


 Total CPU time for triples:      1.79 sec


 RESULTS
 =======

  Reference energy                   -129.838967157574
  CCSD singlet pair energy             -0.308393395367
  CCSD triplet pair energy             -0.141311104554
  CCSD correlation energy              -0.449704499921

  Triples (T) contribution             -0.020984608993
  Total correlation energy             -0.470689108913

  CCSD total energy                  -130.288671657495
  CCSD[T] energy                     -130.310736771511
  CCSD-T energy                      -130.309246982187
 !CCSD(T) total energy               -130.309656266488

 Timing summary (sec):

 STEP                 CPU(USER)    SYS     CPU(TOT)    WALL
 Transformation          0.18      0.08      0.26      0.27
 CCSD iterations         6.32      0.78      7.10      7.12
 Triples                 1.79      0.05      1.84      1.83

 Program statistics:

 Available memory in ccsd:               994999756
 Min. memory needed in ccsd:                389120
 Max. memory used in ccsd:                  473124
 Max. memory used in cckext:                599488 (27 integral passes)



 **********************************************************************************************************************************
 DATASETS  * FILE   NREC   LENGTH (MB)   RECORD NAMES
              1      20      128.20       500      610      700      900      950      970     1000      129      960     1100   
                                          VAR    BASINP    GEOM    SYMINP    ZMAT    AOBASIS   BASIS     P2S    ABASIS      S 
                                         1400     1410     1200     1210     1080     1600     1650     1300     1700     1380   
                                           T        V       H0       H01     AOSYM     SMH    MOLCAS    ERIS     OPER     JKOP   

              2       4        2.94       700     1000      520     2100   
                                         GEOM     BASIS   MCVARS     RHF  

 PROGRAMS   *        TOTAL   CCSD(T)        HF       INT
 CPU TIMES  *        11.34      8.32      1.29      1.62
 REAL TIME  *        13.84 SEC
 DISK USED  *       327.55 MB      
 **********************************************************************************************************************************

 CCSD(T)/aug-cc-pVTZ energy=   -130.309656266488

        CCSD(T)         HF-SCF  
   -130.30965627   -129.83896716
 **********************************************************************************************************************************
 Molpro calculation terminated
 Variable memory released
