
 Primary working directories    : /tmp/r2666/282130.maple
 Secondary working directories  : /tmp/r2666/282130.maple
 Wavefunction directory         : /ddn/home4/r2666/wfu/
 Main file repository           : /tmp/r2666/282130.maple/

 SHA1      : d5ffa45e93fdbca01ffc919aa182cfdae0147319
 NAME      : 2015.1.35
 ARCHNAME  : linux/x86_64
 FC        : /opt/intel/composer_xe_2015.1.133/bin/intel64/ifort
 BLASLIB   : -Wl,-_start-group /opt/intel/mkl/lib/intel64/libmkl_intel_ilp64.a /opt/intel/mkl/lib/intel64/libmkl_intel_thread.a /opt/intel/mkl/lib/intel64/libmkl_core.a -Wl,-_end-group
 id        : olemiss

 Nodes     nprocs
 cn089        1

 Using customized tuning parameters: mindgm=1; mindgv=20; mindgc=4; mindgr=1; noblas=0; minvec=7
 default implementation of scratch files=df  

 ***,hno CCSD(T)/TZ-F12 QFF
 memory, 995, m;
 gthresh,energy=1.d-12,zero=1.d-22,oneint=1.d-22,twoint=1.d-22;
 gthresh,optgrad=1.d-8,optstep=1.d-8;
 nocompress;
 geomtyp=xyz
 bohr
 geometry={
 3
         27        27
 H        0.0000000000        1.6614904962       -1.9234229422
 N        0.0000000000       -0.1579397074       -1.1458869541
 O        0.0000000000        0.0382170011        1.1187203053
 }
 
 basis=avtz
   {hf,maxit=500;accu,20;}
 {ccsd(t),nocheck,maxit=250;orbital,IGNORE_ERROR;}

 Variables initialized (889), CPU time= 0.00 sec
 Commands  initialized (702), CPU time= 0.01 sec, 572 directives.
 Default parameters read. Elapsed time= 0.05 sec

 Checking input...
 Passed
1


                                         ***  PROGRAM SYSTEM MOLPRO  ***
                                       Copyright, TTI GmbH Stuttgart, 2015
                                    Version 2015.1 linked Jul  9 2018 13:16:40


 **********************************************************************************************************************************
 LABEL *   hno CCSD(T)/TZ-F12 QFF                                                        
  64 bit serial version                                                                  DATE: 04-Mar-20          TIME: 13:46:01  
 **********************************************************************************************************************************

 SHA1:             d5ffa45e93fdbca01ffc919aa182cfdae0147319
 **********************************************************************************************************************************

 THRESHOLDS:

 ZERO    =  1.00D-22  ONEINT  =  1.00D-22  TWOINT  =  1.00D-22  PREFAC  =  1.00D-14  LOCALI  =  1.00D-09  EORDER  =  1.00D-04
 ENERGY  =  1.00D-12  ETEST   =  0.00D+00  EDENS   =  0.00D+00  THRDEDEF=  1.00D-06  GRADIENT=  1.00D-02  STEP    =  1.00D-03
 ORBITAL =  1.00D-05  CIVEC   =  1.00D-05  COEFF   =  1.00D-04  PRINTCI =  5.00D-02  PUNCHCI =  9.90D+01  OPTGRAD =  3.00D-04
 OPTENERG=  1.00D-06  OPTSTEP =  3.00D-04  THRGRAD =  1.00D-10  COMPRESS=  1.00D-11  VARMIN  =  1.00D-07  VARMAX  =  1.00D-03
 THRDOUB =  0.00D+00  THRDIV  =  1.00D-05  THRRED  =  1.00D-07  THRPSP  =  1.00D+00  THRDC   =  1.00D-10  THRCS   =  1.00D-10
 THRNRM  =  1.00D-08  THREQ   =  0.00D+00  THRDE   =  1.00D+00  THRREF  =  1.00D-05  SPARFAC =  1.00D+00  THRDLP  =  1.00D-07
 THRDIA  =  1.00D-10  THRDLS  =  1.00D-07  THRGPS  =  0.00D+00  THRKEX  =  0.00D+00  THRDIS  =  2.00D-01  THRVAR  =  1.00D-10
 THRLOC  =  1.00D-06  THRGAP  =  1.00D-06  THRLOCT = -1.00D+00  THRGAPT = -1.00D+00  THRORB  =  1.00D-06  THRMLTP =  0.00D+00
 THRCPQCI=  1.00D-10  KEXTA   =  0.00D+00  THRCOARS=  0.00D+00  SYMTOL  =  1.00D-06  GRADTOL =  1.00D-06  THROVL  =  1.00D-08
 THRORTH =  1.00D-08  GRID    =  1.00D-06  GRIDMAX =  1.00D-03  DTMAX   =  0.00D+00  THROCCDE=  1.00D-01  THROCCDE=  1.00D-01



 THRESHOLDS:

 ZERO    =  1.00D-22  ONEINT  =  1.00D-22  TWOINT  =  1.00D-22  PREFAC  =  1.00D-14  LOCALI  =  1.00D-09  EORDER  =  1.00D-04
 ENERGY  =  1.00D-12  ETEST   =  0.00D+00  EDENS   =  0.00D+00  THRDEDEF=  1.00D-06  GRADIENT=  1.00D-02  STEP    =  1.00D-03
 ORBITAL =  1.00D-05  CIVEC   =  1.00D-05  COEFF   =  1.00D-04  PRINTCI =  5.00D-02  PUNCHCI =  9.90D+01  OPTGRAD =  1.00D-08
 OPTENERG=  1.00D-06  OPTSTEP =  1.00D-08  THRGRAD =  1.00D-10  COMPRESS=  1.00D-11  VARMIN  =  1.00D-07  VARMAX  =  1.00D-03
 THRDOUB =  0.00D+00  THRDIV  =  1.00D-05  THRRED  =  1.00D-07  THRPSP  =  1.00D+00  THRDC   =  1.00D-10  THRCS   =  1.00D-10
 THRNRM  =  1.00D-08  THREQ   =  0.00D+00  THRDE   =  1.00D+00  THRREF  =  1.00D-05  SPARFAC =  1.00D+00  THRDLP  =  1.00D-07
 THRDIA  =  1.00D-10  THRDLS  =  1.00D-07  THRGPS  =  0.00D+00  THRKEX  =  0.00D+00  THRDIS  =  2.00D-01  THRVAR  =  1.00D-10
 THRLOC  =  1.00D-06  THRGAP  =  1.00D-06  THRLOCT = -1.00D+00  THRGAPT = -1.00D+00  THRORB  =  1.00D-06  THRMLTP =  0.00D+00
 THRCPQCI=  1.00D-10  KEXTA   =  0.00D+00  THRCOARS=  0.00D+00  SYMTOL  =  1.00D-06  GRADTOL =  1.00D-06  THROVL  =  1.00D-08
 THRORTH =  1.00D-08  GRID    =  1.00D-06  GRIDMAX =  1.00D-03  DTMAX   =  0.00D+00  THROCCDE=  1.00D-01  THROCCDE=  1.00D-01



 Input parameters for SORTINT:

 COMPRESS =    0.000000
 C_FINAL  =    1.000000
 DEBUG    =   -1.000000
 C_SORT1  =    0.000000
 C_SEWARD =    0.000000
 THRESH   =    0.000000
 IO       =  molpro                                                          
 SPRI     =    0.000000
 SETTING GEOMTYP        =    XYZ
 ZUNIT=BOHR
 

 Variable memory set to  995000000 words,  buffer space   230000 words

 SETTING BASIS          =    AVTZ


 Recomputing integrals since basis changed


 Using spherical harmonics

 Library entry H      S aug-cc-pVTZ          selected for orbital group  1
 Library entry H      P aug-cc-pVTZ          selected for orbital group  1
 Library entry H      D aug-cc-pVTZ          selected for orbital group  1
 Library entry N      S aug-cc-pVTZ          selected for orbital group  2
 Library entry N      P aug-cc-pVTZ          selected for orbital group  2
 Library entry N      D aug-cc-pVTZ          selected for orbital group  2
 Library entry N      F aug-cc-pVTZ          selected for orbital group  2
 Library entry O      S aug-cc-pVTZ          selected for orbital group  3
 Library entry O      P aug-cc-pVTZ          selected for orbital group  3
 Library entry O      D aug-cc-pVTZ          selected for orbital group  3
 Library entry O      F aug-cc-pVTZ          selected for orbital group  3


 PROGRAM * SEWARD (Integral evaluation for generally contracted gaussian basis sets)     Author: Roland Lindh, 1990

 Geometry written to block  1 of record 700


 Point group  Cs  



 ATOMIC COORDINATES

 NR  ATOM    CHARGE       X              Y              Z

   1  H       1.00    0.000000000    1.661490496   -1.923422942
   2  N       7.00    0.000000000   -0.157939707   -1.145886954
   3  O       8.00    0.000000000    0.038217001    1.118720305

 Bond lengths in Bohr (Angstrom)

 1-2  1.978607712  2-3  2.273086777
     ( 1.047034111)     ( 1.202865721)

 Bond angles

  1-2-3  108.18899349

 NUCLEAR CHARGE:                   16
 NUMBER OF PRIMITIVE AOS:         161
 NUMBER OF SYMMETRY AOS:          141
 NUMBER OF CONTRACTIONS:          115   (  76A'  +  39A"  )
 NUMBER OF CORE ORBITALS:           2   (   2A'  +   0A"  )
 NUMBER OF VALENCE ORBITALS:        9   (   7A'  +   2A"  )


 NUCLEAR REPULSION ENERGY   30.49403736

 Eigenvalues of metric

         1 0.229E-03 0.494E-03 0.179E-02 0.209E-02 0.249E-02 0.350E-02 0.427E-02 0.507E-02
         2 0.389E-02 0.997E-02 0.259E-01 0.368E-01 0.510E-01 0.618E-01 0.806E-01 0.119E+00


 Contracted 2-electron integrals neglected if value below      1.0D-22

       10790064. INTEGRALS WRITTEN OUT IN    2635 BLOCKS ON RECORD 1290 OF FILE 1


 NUMBER OF SORTED TWO-ELECTRON INTEGRALS:   11433631.     BUFFER LENGTH:  32768
 NUMBER OF SEGMENTS:   1  SEGMENT LENGTH:   11433631      RECORD LENGTH: 524288

 Memory used in sort:      11.99 MW

 SORT1 READ    10790064. AND WROTE    10943632. INTEGRALS IN     32 RECORDS. CPU TIME:     0.17 SEC, REAL TIME:     0.24 SEC
 SORT2 READ    10943632. AND WROTE    11433631. INTEGRALS IN      1 RECORDS. CPU TIME:     0.18 SEC, REAL TIME:     0.24 SEC

 FILE SIZES:   FILE 1:   193.0 MBYTE,  FILE 4:   134.3 MBYTE,   TOTAL:    327.2 MBYTE

 OPERATOR DM      FOR CENTER  0  COORDINATES:    0.000000    0.000000    0.000000


 **********************************************************************************************************************************
 DATASETS  * FILE   NREC   LENGTH (MB)   RECORD NAMES
              1      19      111.05       500      610      700      900      950      970     1000      129      960     1100   
                                          VAR    BASINP    GEOM    SYMINP    ZMAT    AOBASIS   BASIS     P2S    ABASIS      S 
                                         1400     1410     1200     1210     1080     1600     1650     1300     1700   
                                           T        V       H0       H01     AOSYM     SMH    MOLCAS    ERIS     OPER   

 PROGRAMS   *        TOTAL       INT
 CPU TIMES  *         1.32      1.21
 REAL TIME  *         2.01 SEC
 DISK USED  *       327.55 MB      
 **********************************************************************************************************************************


 PROGRAM * RHF-SCF (CLOSED SHELL)       Authors: W. Meyer, H.-J. Werner


 NUMBER OF ELECTRONS:       8+    8-
 CONVERGENCE THRESHOLDS:    1.00E-10 (Density)    1.00E-13 (Energy)
 MAX. NUMBER OF ITERATIONS:      500
 INTERPOLATION TYPE:            DIIS
 INTERPOLATION STEPS:              2 (START)      1 (STEP)
 LEVEL SHIFTS:                  0.00 (CLOSED)  0.00 (OPEN) 



 Orbital guess generated from atomic densities. Full valence occupancy:    9   2

 Molecular orbital dump at record        2100.2

 Initial occupancy:   7   1

 ITERATION    DDIFF          GRAD             ENERGY        2-EL.EN.            DIPOLE MOMENTS         DIIS   ORB.
    1      0.000D+00      0.000D+00      -129.79014354    154.123404    0.00000    0.59291   -1.00399    0    start
    2      0.000D+00      0.107D-01      -129.81775678    155.396435    0.00000    0.60808   -0.21419    1    diag
    3      0.117D-01      0.804D-02      -129.83933158    155.497748    0.00000    0.55662   -0.58555    2    diag
    4      0.582D-02      0.127D-02      -129.84011096    155.214103    0.00000    0.56423   -0.52648    3    diag
    5      0.107D-02      0.417D-03      -129.84023376    155.307200    0.00000    0.56974   -0.52935    4    diag
    6      0.444D-03      0.120D-03      -129.84025324    155.291775    0.00000    0.57014   -0.52538    5    diag
    7      0.169D-03      0.592D-04      -129.84025878    155.294307    0.00000    0.57139   -0.52289    6    diag
    8      0.116D-03      0.198D-04      -129.84025935    155.293674    0.00000    0.57141   -0.52194    7    diag
    9      0.425D-04      0.372D-05      -129.84025937    155.293572    0.00000    0.57138   -0.52173    8    diag
   10      0.808D-05      0.857D-06      -129.84025937    155.293554    0.00000    0.57134   -0.52170    9    orth
   11      0.168D-05      0.172D-06      -129.84025937    155.293551    0.00000    0.57134   -0.52170    9    diag
   12      0.328D-06      0.350D-07      -129.84025937    155.293551    0.00000    0.57134   -0.52170    9    diag
   13      0.706D-07      0.871D-08      -129.84025937    155.293551    0.00000    0.57134   -0.52170    9    diag
   14      0.182D-07      0.181D-08      -129.84025937    155.293551    0.00000    0.57134   -0.52170    9    diag
   15      0.364D-08      0.510D-09      -129.84025937    155.293551    0.00000    0.57134   -0.52170    9    diag
   16      0.994D-09      0.142D-09      -129.84025937    155.293551    0.00000    0.57134   -0.52170    9    diag
   17      0.183D-09      0.406D-10      -129.84025937    155.293551    0.00000    0.57134   -0.52170    9    diag
   18      0.512D-10      0.145D-10      -129.84025937    155.293551    0.00000    0.57134   -0.52170    9    diag
   19      0.259D-10      0.323D-11      -129.84025937    155.293551    0.00000    0.57134   -0.52170    9    fixocc
   20      0.637D-11      0.550D-12      -129.84025937    155.293551    0.00000    0.57134   -0.52170    0    orth

 Final occupancy:   7   1

 !RHF STATE 1.1 Energy               -129.840259371405
 Nuclear energy                        30.49403736
 One-electron energy                 -237.98107214
 Two-electron energy                   77.64677542
 Virial quotient                       -1.00193902
 !RHF STATE 1.1 Dipole moment           0.00000000     0.57133543    -0.52170046
 Dipole moment /Debye                   0.00000000     1.45209469    -1.32594346

 Orbital energies:

         1.1          2.1          3.1          4.1          5.1          6.1          7.1          8.1          9.1
    -20.655965   -15.712906    -1.535030    -0.995120    -0.749414    -0.667562    -0.429176     0.029256     0.092189

         1.2          2.2          3.2
     -0.598588     0.066283     0.130242

 HOMO      7.1    -0.429176 =     -11.6785eV
 LUMO      8.1     0.029256 =       0.7961eV
 LUMO-HOMO         0.458432 =      12.4746eV


 **********************************************************************************************************************************
 DATASETS  * FILE   NREC   LENGTH (MB)   RECORD NAMES
              1      19      111.05       500      610      700      900      950      970     1000      129      960     1100   
                                          VAR    BASINP    GEOM    SYMINP    ZMAT    AOBASIS   BASIS     P2S    ABASIS      S 
                                         1400     1410     1200     1210     1080     1600     1650     1300     1700   
                                           T        V       H0       H01     AOSYM     SMH    MOLCAS    ERIS     OPER   

              2       4        2.94       700     1000      520     2100   
                                         GEOM     BASIS   MCVARS     RHF  

 PROGRAMS   *        TOTAL        HF       INT
 CPU TIMES  *         2.31      0.98      1.21
 REAL TIME  *         3.31 SEC
 DISK USED  *       327.55 MB      
 **********************************************************************************************************************************


 PROGRAM * CCSD (Closed-shell coupled cluster)     Authors: C. Hampel, H.-J. Werner, 1991, M. Deegan, P.J. Knowles, 1992


 Convergence thresholds:  THRVAR = 1.00D-08  THRDEN = 1.00D-12

 CCSD(T)     terms to be evaluated (factor= 1.000)


 Number of core orbitals:           2 (   2   0 )
 Number of closed-shell orbitals:   6 (   5   1 )
 Number of external orbitals:     107 (  69  38 )

 Molecular orbitals read from record     2100.2  Type=RHF/CANONICAL (state 1.1)

 Number of N-1 electron functions:               6
 Number of N-2 electron functions:              21
 Number of singly external CSFs:               383
 Number of doubly external CSFs:            107206
 Total number of CSFs:                      107590

 Length of J-op  integral file:               0.00 MB
 Length of K-op  integral file:               0.54 MB
 Length of 3-ext integral record:             0.00 MB

 Memory could be reduced to 5.94 Mwords without degradation in triples

 Integral transformation finished. Total CPU:   0.14 sec, npass=  1  Memory used:   1.65 MW

 Reference energy:                   -129.84025937

 MP2 singlet pair energy:              -0.27878803
 MP2 triplet pair energy:              -0.16475793
 MP2 correlation energy:               -0.44354597
 MP2 total energy:                   -130.28380534

 SCS-MP2 correlation energy:           -0.43706169   (PS=  1.200000  PT=  0.333333)
 SCS-MP2 total energy:               -130.27732106

 ITER.      SQ.NORM     CORR.ENERGY   TOTAL ENERGY   ENERGY CHANGE        DEN1      VAR(S)    VAR(P)  DIIS     TIME  TIME/IT
   1      1.12022150    -0.44786334  -130.28812271    -0.00431737     0.01149466  0.31D-02  0.31D-02  1  1     0.27     0.15
   2      1.13118852    -0.44810178  -130.28836115    -0.00023845    -0.01229491  0.98D-04  0.50D-03  2  2     0.42     0.16
   3      1.13754479    -0.44849034  -130.28874971    -0.00038856    -0.00295767  0.52D-04  0.50D-04  3  3     0.55     0.16
   4      1.14036223    -0.44850218  -130.28876155    -0.00001184    -0.00095676  0.40D-05  0.90D-05  4  4     0.70     0.16
   5      1.14137527    -0.44852972  -130.28878910    -0.00002755    -0.00021455  0.11D-05  0.16D-05  5  5     0.85     0.16
   6      1.14170852    -0.44851348  -130.28877285     0.00001625    -0.00004059  0.94D-07  0.40D-06  6  6     1.00     0.16
   7      1.14178238    -0.44851466  -130.28877403    -0.00000118    -0.00000185  0.18D-07  0.91D-07  6  1     1.14     0.16
   8      1.14180350    -0.44851540  -130.28877477    -0.00000074     0.00000157  0.37D-08  0.16D-07  6  2     1.28     0.16
   9      1.14180867    -0.44851498  -130.28877435     0.00000042     0.00000040  0.27D-08  0.18D-08  6  4     1.43     0.16
  10      1.14181089    -0.44851545  -130.28877482    -0.00000047    -0.00000068  0.43D-09  0.20D-09  6  3     1.57     0.16
  11      1.14181038    -0.44851547  -130.28877484    -0.00000002    -0.00000006  0.15D-09  0.31D-10  6  5     1.71     0.16
  12      1.14180935    -0.44851562  -130.28877499    -0.00000015     0.00000033  0.17D-10  0.10D-10  6  6     1.85     0.16
  13      1.14180853    -0.44851565  -130.28877502    -0.00000003     0.00000021  0.59D-11  0.21D-11  6  1     1.99     0.16
  14      1.14180801    -0.44851568  -130.28877505    -0.00000003     0.00000013  0.93D-12  0.66D-12  6  2     2.14     0.16
  15      1.14180779    -0.44851569  -130.28877506    -0.00000001     0.00000003  0.25D-12  0.21D-12  6  4     2.29     0.16
  16      1.14180767    -0.44851569  -130.28877506    -0.00000000     0.00000002  0.35D-13  0.24D-13  6  5     2.44     0.16
  17      1.14180763    -0.44851569  -130.28877506    -0.00000000     0.00000000  0.63D-15  0.18D-14  6  3     2.59     0.16
  18      1.14180763    -0.44851569  -130.28877506     0.00000000    -0.00000000  0.21D-15  0.24D-15  6  6     2.73     0.16
  19      1.14180764    -0.44851569  -130.28877506     0.00000000    -0.00000000  0.62D-16  0.32D-16  6  1     2.89     0.16
  20      1.14180764    -0.44851569  -130.28877506     0.00000000    -0.00000000  0.16D-16  0.56D-17  6  2     3.03     0.16
  21      1.14180764    -0.44851569  -130.28877506     0.00000000    -0.00000000  0.30D-17  0.15D-17  6  5     3.17     0.16
  22      1.14180764    -0.44851569  -130.28877506    -0.00000000     0.00000000  0.29D-18  0.17D-18  6  4     3.32     0.16
  23      1.14180764    -0.44851569  -130.28877506     0.00000000     0.00000000  0.10D-18  0.34D-19  6  3     3.46     0.16
  24      1.14180764    -0.44851569  -130.28877506     0.00000000     0.00000000  0.10D-19  0.46D-20  6  2     3.61     0.16
  25      1.14180764    -0.44851569  -130.28877506     0.00000000    -0.00000000  0.18D-20  0.75D-21  6  6     3.76     0.16
  26      1.14180764    -0.44851569  -130.28877506     0.00000000    -0.00000000  0.41D-21  0.19D-21  6  1     3.90     0.16

 Norm of t1 vector:      0.07739155      S-energy:     0.00000000      T1 diagnostic:  0.01579748
                                                                       D1 diagnostic:  0.04139999

 Doubles amplitudes (print threshold =  0.500E-01):

         I         J         SYM. A    SYM. B    A         B      T(IJ, AB)

         6         6         2         2         1         1     -0.10668427


 Total CPU time for triples:      1.13 sec


 RESULTS
 =======

  Reference energy                   -129.840259371404
  CCSD singlet pair energy             -0.307375732173
  CCSD triplet pair energy             -0.141139959810
  CCSD correlation energy              -0.448515691983

  Triples (T) contribution             -0.020722683566
  Total correlation energy             -0.469238375549

  CCSD total energy                  -130.288775063388
  CCSD[T] energy                     -130.310537403618
  CCSD-T energy                      -130.309100501637
 !CCSD(T) total energy               -130.309497746953

 Timing summary (sec):

 STEP                 CPU(USER)    SYS     CPU(TOT)    WALL
 Transformation          0.14      0.03      0.17      0.18
 CCSD iterations         3.77      0.54      4.31      4.30
 Triples                 1.13      0.02      1.15      1.15

 Program statistics:

 Available memory in ccsd:               994999756
 Min. memory needed in ccsd:                389120
 Max. memory used in ccsd:                  473124
 Max. memory used in cckext:                599488 (26 integral passes)



 **********************************************************************************************************************************
 DATASETS  * FILE   NREC   LENGTH (MB)   RECORD NAMES
              1      20      128.20       500      610      700      900      950      970     1000      129      960     1100   
                                          VAR    BASINP    GEOM    SYMINP    ZMAT    AOBASIS   BASIS     P2S    ABASIS      S 
                                         1400     1410     1200     1210     1080     1600     1650     1300     1700     1380   
                                           T        V       H0       H01     AOSYM     SMH    MOLCAS    ERIS     OPER     JKOP   

              2       4        2.94       700     1000      520     2100   
                                         GEOM     BASIS   MCVARS     RHF  

 PROGRAMS   *        TOTAL   CCSD(T)        HF       INT
 CPU TIMES  *         7.38      5.08      0.98      1.21
 REAL TIME  *         8.99 SEC
 DISK USED  *       327.55 MB      
 **********************************************************************************************************************************

 CCSD(T)/aug-cc-pVTZ energy=   -130.309497746953

        CCSD(T)         HF-SCF  
   -130.30949775   -129.84025937
 **********************************************************************************************************************************
 Molpro calculation terminated
 Variable memory released
