
 Primary working directories    : /tmp/r2666/282218.maple
 Secondary working directories  : /tmp/r2666/282218.maple
 Wavefunction directory         : /ddn/home4/r2666/wfu/
 Main file repository           : /tmp/r2666/282218.maple/

 SHA1      : d5ffa45e93fdbca01ffc919aa182cfdae0147319
 NAME      : 2015.1.35
 ARCHNAME  : linux/x86_64
 FC        : /opt/intel/composer_xe_2015.1.133/bin/intel64/ifort
 BLASLIB   : -Wl,-_start-group /opt/intel/mkl/lib/intel64/libmkl_intel_ilp64.a /opt/intel/mkl/lib/intel64/libmkl_intel_thread.a /opt/intel/mkl/lib/intel64/libmkl_core.a -Wl,-_end-group
 id        : olemiss

 Nodes     nprocs
 cn095        1

 Using customized tuning parameters: mindgm=1; mindgv=20; mindgc=4; mindgr=1; noblas=0; minvec=7
 default implementation of scratch files=df  

 ***,hno CCSD(T)/TZ-F12 QFF
 memory, 995, m;
 gthresh,energy=1.d-12,zero=1.d-22,oneint=1.d-22,twoint=1.d-22;
 gthresh,optgrad=1.d-8,optstep=1.d-8;
 nocompress;
 geomtyp=xyz
 bohr
 geometry={
 3
        115       115
 H        0.0000000000        1.6755207386       -1.9292183510
 N        0.0000000000       -0.1727349890       -1.1470332540
 O        0.0000000000        0.0389820404        1.1256620140
 }
 
 basis=avtz
   {hf,maxit=500;accu,20;}
 {ccsd(t),nocheck,maxit=250;orbital,IGNORE_ERROR;}

 Variables initialized (889), CPU time= 0.01 sec
 Commands  initialized (702), CPU time= 0.01 sec, 572 directives.
 Default parameters read. Elapsed time= 0.05 sec

 Checking input...
 Passed
1


                                         ***  PROGRAM SYSTEM MOLPRO  ***
                                       Copyright, TTI GmbH Stuttgart, 2015
                                    Version 2015.1 linked Jul  9 2018 13:16:40


 **********************************************************************************************************************************
 LABEL *   hno CCSD(T)/TZ-F12 QFF                                                        
  64 bit serial version                                                                  DATE: 04-Mar-20          TIME: 13:46:46  
 **********************************************************************************************************************************

 SHA1:             d5ffa45e93fdbca01ffc919aa182cfdae0147319
 **********************************************************************************************************************************

 THRESHOLDS:

 ZERO    =  1.00D-22  ONEINT  =  1.00D-22  TWOINT  =  1.00D-22  PREFAC  =  1.00D-14  LOCALI  =  1.00D-09  EORDER  =  1.00D-04
 ENERGY  =  1.00D-12  ETEST   =  0.00D+00  EDENS   =  0.00D+00  THRDEDEF=  1.00D-06  GRADIENT=  1.00D-02  STEP    =  1.00D-03
 ORBITAL =  1.00D-05  CIVEC   =  1.00D-05  COEFF   =  1.00D-04  PRINTCI =  5.00D-02  PUNCHCI =  9.90D+01  OPTGRAD =  3.00D-04
 OPTENERG=  1.00D-06  OPTSTEP =  3.00D-04  THRGRAD =  1.00D-10  COMPRESS=  1.00D-11  VARMIN  =  1.00D-07  VARMAX  =  1.00D-03
 THRDOUB =  0.00D+00  THRDIV  =  1.00D-05  THRRED  =  1.00D-07  THRPSP  =  1.00D+00  THRDC   =  1.00D-10  THRCS   =  1.00D-10
 THRNRM  =  1.00D-08  THREQ   =  0.00D+00  THRDE   =  1.00D+00  THRREF  =  1.00D-05  SPARFAC =  1.00D+00  THRDLP  =  1.00D-07
 THRDIA  =  1.00D-10  THRDLS  =  1.00D-07  THRGPS  =  0.00D+00  THRKEX  =  0.00D+00  THRDIS  =  2.00D-01  THRVAR  =  1.00D-10
 THRLOC  =  1.00D-06  THRGAP  =  1.00D-06  THRLOCT = -1.00D+00  THRGAPT = -1.00D+00  THRORB  =  1.00D-06  THRMLTP =  0.00D+00
 THRCPQCI=  1.00D-10  KEXTA   =  0.00D+00  THRCOARS=  0.00D+00  SYMTOL  =  1.00D-06  GRADTOL =  1.00D-06  THROVL  =  1.00D-08
 THRORTH =  1.00D-08  GRID    =  1.00D-06  GRIDMAX =  1.00D-03  DTMAX   =  0.00D+00  THROCCDE=  1.00D-01  THROCCDE=  1.00D-01



 THRESHOLDS:

 ZERO    =  1.00D-22  ONEINT  =  1.00D-22  TWOINT  =  1.00D-22  PREFAC  =  1.00D-14  LOCALI  =  1.00D-09  EORDER  =  1.00D-04
 ENERGY  =  1.00D-12  ETEST   =  0.00D+00  EDENS   =  0.00D+00  THRDEDEF=  1.00D-06  GRADIENT=  1.00D-02  STEP    =  1.00D-03
 ORBITAL =  1.00D-05  CIVEC   =  1.00D-05  COEFF   =  1.00D-04  PRINTCI =  5.00D-02  PUNCHCI =  9.90D+01  OPTGRAD =  1.00D-08
 OPTENERG=  1.00D-06  OPTSTEP =  1.00D-08  THRGRAD =  1.00D-10  COMPRESS=  1.00D-11  VARMIN  =  1.00D-07  VARMAX  =  1.00D-03
 THRDOUB =  0.00D+00  THRDIV  =  1.00D-05  THRRED  =  1.00D-07  THRPSP  =  1.00D+00  THRDC   =  1.00D-10  THRCS   =  1.00D-10
 THRNRM  =  1.00D-08  THREQ   =  0.00D+00  THRDE   =  1.00D+00  THRREF  =  1.00D-05  SPARFAC =  1.00D+00  THRDLP  =  1.00D-07
 THRDIA  =  1.00D-10  THRDLS  =  1.00D-07  THRGPS  =  0.00D+00  THRKEX  =  0.00D+00  THRDIS  =  2.00D-01  THRVAR  =  1.00D-10
 THRLOC  =  1.00D-06  THRGAP  =  1.00D-06  THRLOCT = -1.00D+00  THRGAPT = -1.00D+00  THRORB  =  1.00D-06  THRMLTP =  0.00D+00
 THRCPQCI=  1.00D-10  KEXTA   =  0.00D+00  THRCOARS=  0.00D+00  SYMTOL  =  1.00D-06  GRADTOL =  1.00D-06  THROVL  =  1.00D-08
 THRORTH =  1.00D-08  GRID    =  1.00D-06  GRIDMAX =  1.00D-03  DTMAX   =  0.00D+00  THROCCDE=  1.00D-01  THROCCDE=  1.00D-01



 Input parameters for SORTINT:

 COMPRESS =    0.000000
 C_FINAL  =    1.000000
 DEBUG    =   -1.000000
 C_SORT1  =    0.000000
 C_SEWARD =    0.000000
 THRESH   =    0.000000
 IO       =  molpro                                                          
 SPRI     =    0.000000
 SETTING GEOMTYP        =    XYZ
 ZUNIT=BOHR
 

 Variable memory set to  995000000 words,  buffer space   230000 words

 SETTING BASIS          =    AVTZ


 Recomputing integrals since basis changed


 Using spherical harmonics

 Library entry H      S aug-cc-pVTZ          selected for orbital group  1
 Library entry H      P aug-cc-pVTZ          selected for orbital group  1
 Library entry H      D aug-cc-pVTZ          selected for orbital group  1
 Library entry N      S aug-cc-pVTZ          selected for orbital group  2
 Library entry N      P aug-cc-pVTZ          selected for orbital group  2
 Library entry N      D aug-cc-pVTZ          selected for orbital group  2
 Library entry N      F aug-cc-pVTZ          selected for orbital group  2
 Library entry O      S aug-cc-pVTZ          selected for orbital group  3
 Library entry O      P aug-cc-pVTZ          selected for orbital group  3
 Library entry O      D aug-cc-pVTZ          selected for orbital group  3
 Library entry O      F aug-cc-pVTZ          selected for orbital group  3


 PROGRAM * SEWARD (Integral evaluation for generally contracted gaussian basis sets)     Author: Roland Lindh, 1990

 Geometry written to block  1 of record 700


 Point group  Cs  



 ATOMIC COORDINATES

 NR  ATOM    CHARGE       X              Y              Z

   1  H       1.00    0.000000000    1.675520739   -1.929218351
   2  N       7.00    0.000000000   -0.172734989   -1.147033254
   3  O       8.00    0.000000000    0.038982040    1.125662014

 Bond lengths in Bohr (Angstrom)

 1-2  2.006953602  2-3  2.282535406
     ( 1.062034110)     ( 1.207865720)

 Bond angles

  1-2-3  107.61603569

 NUCLEAR CHARGE:                   16
 NUMBER OF PRIMITIVE AOS:         161
 NUMBER OF SYMMETRY AOS:          141
 NUMBER OF CONTRACTIONS:          115   (  76A'  +  39A"  )
 NUMBER OF CORE ORBITALS:           2   (   2A'  +   0A"  )
 NUMBER OF VALENCE ORBITALS:        9   (   7A'  +   2A"  )


 NUCLEAR REPULSION ENERGY   30.33038071

 Eigenvalues of metric

         1 0.233E-03 0.507E-03 0.181E-02 0.215E-02 0.254E-02 0.359E-02 0.435E-02 0.527E-02
         2 0.396E-02 0.104E-01 0.263E-01 0.375E-01 0.514E-01 0.627E-01 0.826E-01 0.120E+00


 Contracted 2-electron integrals neglected if value below      1.0D-22

       10790064. INTEGRALS WRITTEN OUT IN    2635 BLOCKS ON RECORD 1290 OF FILE 1


 NUMBER OF SORTED TWO-ELECTRON INTEGRALS:   11433631.     BUFFER LENGTH:  32768
 NUMBER OF SEGMENTS:   1  SEGMENT LENGTH:   11433631      RECORD LENGTH: 524288

 Memory used in sort:      11.99 MW

 SORT1 READ    10790064. AND WROTE    10943632. INTEGRALS IN     32 RECORDS. CPU TIME:     0.17 SEC, REAL TIME:     0.26 SEC
 SORT2 READ    10943632. AND WROTE    11433631. INTEGRALS IN      1 RECORDS. CPU TIME:     0.20 SEC, REAL TIME:     0.25 SEC

 FILE SIZES:   FILE 1:   193.0 MBYTE,  FILE 4:   134.3 MBYTE,   TOTAL:    327.2 MBYTE

 OPERATOR DM      FOR CENTER  0  COORDINATES:    0.000000    0.000000    0.000000


 **********************************************************************************************************************************
 DATASETS  * FILE   NREC   LENGTH (MB)   RECORD NAMES
              1      19      111.05       500      610      700      900      950      970     1000      129      960     1100   
                                          VAR    BASINP    GEOM    SYMINP    ZMAT    AOBASIS   BASIS     P2S    ABASIS      S 
                                         1400     1410     1200     1210     1080     1600     1650     1300     1700   
                                           T        V       H0       H01     AOSYM     SMH    MOLCAS    ERIS     OPER   

 PROGRAMS   *        TOTAL       INT
 CPU TIMES  *         1.46      1.36
 REAL TIME  *         2.26 SEC
 DISK USED  *       327.55 MB      
 **********************************************************************************************************************************


 PROGRAM * RHF-SCF (CLOSED SHELL)       Authors: W. Meyer, H.-J. Werner


 NUMBER OF ELECTRONS:       8+    8-
 CONVERGENCE THRESHOLDS:    1.00E-10 (Density)    1.00E-13 (Energy)
 MAX. NUMBER OF ITERATIONS:      500
 INTERPOLATION TYPE:            DIIS
 INTERPOLATION STEPS:              2 (START)      1 (STEP)
 LEVEL SHIFTS:                  0.00 (CLOSED)  0.00 (OPEN) 



 Orbital guess generated from atomic densities. Full valence occupancy:    9   2

 Molecular orbital dump at record        2100.2

 Initial occupancy:   7   1

 ITERATION    DDIFF          GRAD             ENERGY        2-EL.EN.            DIPOLE MOMENTS         DIIS   ORB.
    1      0.000D+00      0.000D+00      -129.78746127    153.821051    0.00000    0.58036   -1.02046    0    start
    2      0.000D+00      0.108D-01      -129.81492637    155.099818    0.00000    0.61034   -0.20334    1    diag
    3      0.120D-01      0.830D-02      -129.83803255    155.208621    0.00000    0.55155   -0.58901    2    diag
    4      0.597D-02      0.127D-02      -129.83882441    154.919135    0.00000    0.55921   -0.52929    3    diag
    5      0.107D-02      0.423D-03      -129.83895229    155.013747    0.00000    0.56488   -0.53211    4    diag
    6      0.453D-03      0.123D-03      -129.83897284    154.998039    0.00000    0.56525   -0.52800    5    diag
    7      0.174D-03      0.608D-04      -129.83897873    155.000597    0.00000    0.56653   -0.52544    6    diag
    8      0.120D-03      0.207D-04      -129.83897936    154.999932    0.00000    0.56656   -0.52444    7    diag
    9      0.448D-04      0.392D-05      -129.83897939    154.999821    0.00000    0.56652   -0.52422    8    diag
   10      0.864D-05      0.892D-06      -129.83897939    154.999801    0.00000    0.56648   -0.52419    9    orth
   11      0.175D-05      0.179D-06      -129.83897939    154.999798    0.00000    0.56648   -0.52419    9    diag
   12      0.341D-06      0.369D-07      -129.83897939    154.999798    0.00000    0.56647   -0.52419    9    diag
   13      0.742D-07      0.937D-08      -129.83897939    154.999798    0.00000    0.56647   -0.52419    9    diag
   14      0.196D-07      0.194D-08      -129.83897939    154.999797    0.00000    0.56647   -0.52419    9    diag
   15      0.388D-08      0.544D-09      -129.83897939    154.999798    0.00000    0.56647   -0.52419    9    diag
   16      0.106D-08      0.149D-09      -129.83897939    154.999798    0.00000    0.56647   -0.52419    9    diag
   17      0.189D-09      0.434D-10      -129.83897939    154.999798    0.00000    0.56647   -0.52419    9    diag
   18      0.546D-10      0.156D-10      -129.83897939    154.999798    0.00000    0.56647   -0.52419    9    diag
   19      0.282D-10      0.345D-11      -129.83897939    154.999798    0.00000    0.56647   -0.52419    0    orth

 Final occupancy:   7   1

 !RHF STATE 1.1 Energy               -129.838979391294
 Nuclear energy                        30.33038071
 One-electron energy                 -237.66925886
 Two-electron energy                   77.49989876
 Virial quotient                       -1.00225468
 !RHF STATE 1.1 Dipole moment           0.00000000     0.56647327    -0.52418863
 Dipole moment /Debye                   0.00000000     1.43973715    -1.33226735

 Orbital energies:

         1.1          2.1          3.1          4.1          5.1          6.1          7.1          8.1          9.1
    -20.656607   -15.715907    -1.531038    -0.992199    -0.746264    -0.666018    -0.430199     0.029224     0.092196

         1.2          2.2          3.2
     -0.596499     0.064996     0.130396

 HOMO      7.1    -0.430199 =     -11.7063eV
 LUMO      8.1     0.029224 =       0.7952eV
 LUMO-HOMO         0.459423 =      12.5015eV


 **********************************************************************************************************************************
 DATASETS  * FILE   NREC   LENGTH (MB)   RECORD NAMES
              1      19      111.05       500      610      700      900      950      970     1000      129      960     1100   
                                          VAR    BASINP    GEOM    SYMINP    ZMAT    AOBASIS   BASIS     P2S    ABASIS      S 
                                         1400     1410     1200     1210     1080     1600     1650     1300     1700   
                                           T        V       H0       H01     AOSYM     SMH    MOLCAS    ERIS     OPER   

              2       4        2.94       700     1000      520     2100   
                                         GEOM     BASIS   MCVARS     RHF  

 PROGRAMS   *        TOTAL        HF       INT
 CPU TIMES  *         2.64      1.18      1.36
 REAL TIME  *         3.73 SEC
 DISK USED  *       327.55 MB      
 **********************************************************************************************************************************


 PROGRAM * CCSD (Closed-shell coupled cluster)     Authors: C. Hampel, H.-J. Werner, 1991, M. Deegan, P.J. Knowles, 1992


 Convergence thresholds:  THRVAR = 1.00D-08  THRDEN = 1.00D-12

 CCSD(T)     terms to be evaluated (factor= 1.000)


 Number of core orbitals:           2 (   2   0 )
 Number of closed-shell orbitals:   6 (   5   1 )
 Number of external orbitals:     107 (  69  38 )

 Molecular orbitals read from record     2100.2  Type=RHF/CANONICAL (state 1.1)

 Number of N-1 electron functions:               6
 Number of N-2 electron functions:              21
 Number of singly external CSFs:               383
 Number of doubly external CSFs:            107206
 Total number of CSFs:                      107590

 Length of J-op  integral file:               0.00 MB
 Length of K-op  integral file:               0.54 MB
 Length of 3-ext integral record:             0.00 MB

 Memory could be reduced to 5.94 Mwords without degradation in triples

 Integral transformation finished. Total CPU:   0.18 sec, npass=  1  Memory used:   1.65 MW

 Reference energy:                   -129.83897939

 MP2 singlet pair energy:              -0.27967102
 MP2 triplet pair energy:              -0.16531576
 MP2 correlation energy:               -0.44498678
 MP2 total energy:                   -130.28396618

 SCS-MP2 correlation energy:           -0.43846837   (PS=  1.200000  PT=  0.333333)
 SCS-MP2 total energy:               -130.27744776

 ITER.      SQ.NORM     CORR.ENERGY   TOTAL ENERGY   ENERGY CHANGE        DEN1      VAR(S)    VAR(P)  DIIS     TIME  TIME/IT
   1      1.12126611    -0.44907672  -130.28805611    -0.00408994     0.01204831  0.32D-02  0.32D-02  1  1     0.36     0.19
   2      1.13244468    -0.44927102  -130.28825041    -0.00019430    -0.01249076  0.10D-03  0.52D-03  2  2     0.54     0.19
   3      1.13898777    -0.44967674  -130.28865613    -0.00040572    -0.00302338  0.55D-04  0.51D-04  3  3     0.72     0.19
   4      1.14188675    -0.44968703  -130.28866642    -0.00001030    -0.00098156  0.43D-05  0.92D-05  4  4     0.89     0.19
   5      1.14294681    -0.44971635  -130.28869574    -0.00002932    -0.00022480  0.12D-05  0.16D-05  5  5     1.07     0.20
   6      1.14329142    -0.44969927  -130.28867866     0.00001708    -0.00004211  0.11D-06  0.39D-06  6  6     1.24     0.20
   7      1.14336663    -0.44970024  -130.28867963    -0.00000097    -0.00000182  0.20D-07  0.90D-07  6  1     1.41     0.20
   8      1.14338863    -0.44970087  -130.28868026    -0.00000063     0.00000134  0.35D-08  0.17D-07  6  2     1.59     0.20
   9      1.14339420    -0.44970039  -130.28867979     0.00000047     0.00000049  0.27D-08  0.19D-08  6  4     1.76     0.20
  10      1.14339656    -0.44970088  -130.28868027    -0.00000048    -0.00000072  0.44D-09  0.22D-09  6  3     1.95     0.20
  11      1.14339607    -0.44970090  -130.28868029    -0.00000002    -0.00000007  0.15D-09  0.33D-10  6  5     2.13     0.20
  12      1.14339500    -0.44970105  -130.28868044    -0.00000015     0.00000034  0.18D-10  0.11D-10  6  6     2.31     0.20
  13      1.14339415    -0.44970109  -130.28868048    -0.00000004     0.00000022  0.64D-11  0.21D-11  6  1     2.50     0.20
  14      1.14339360    -0.44970112  -130.28868051    -0.00000003     0.00000014  0.10D-11  0.67D-12  6  2     2.68     0.20
  15      1.14339337    -0.44970112  -130.28868052    -0.00000001     0.00000003  0.29D-12  0.21D-12  6  4     2.86     0.20
  16      1.14339327    -0.44970113  -130.28868052    -0.00000000     0.00000001  0.55D-13  0.74D-13  6  3     3.03     0.20
  17      1.14339321    -0.44970113  -130.28868052    -0.00000000     0.00000001  0.38D-14  0.18D-13  6  5     3.21     0.20
  18      1.14339321    -0.44970113  -130.28868052     0.00000000    -0.00000000  0.12D-14  0.37D-14  6  6     3.38     0.20
  19      1.14339320    -0.44970113  -130.28868052    -0.00000000     0.00000000  0.10D-14  0.67D-15  6  1     3.54     0.20
  20      1.14339320    -0.44970113  -130.28868052     0.00000000    -0.00000000  0.21D-15  0.12D-15  6  2     3.72     0.20
  21      1.14339320    -0.44970113  -130.28868052     0.00000000    -0.00000000  0.52D-16  0.30D-16  6  3     3.90     0.20
  22      1.14339320    -0.44970113  -130.28868052     0.00000000     0.00000000  0.60D-17  0.27D-17  6  4     4.06     0.20
  23      1.14339320    -0.44970113  -130.28868052     0.00000000    -0.00000000  0.22D-17  0.57D-18  6  5     4.24     0.20
  24      1.14339320    -0.44970113  -130.28868052     0.00000000     0.00000000  0.15D-18  0.49D-19  6  2     4.42     0.20
  25      1.14339320    -0.44970113  -130.28868052    -0.00000000    -0.00000000  0.22D-19  0.12D-19  6  6     4.57     0.20
  26      1.14339320    -0.44970113  -130.28868052     0.00000000    -0.00000000  0.35D-20  0.21D-20  6  1     4.71     0.20
  27      1.14339320    -0.44970113  -130.28868052    -0.00000000    -0.00000000  0.49D-21  0.49D-21  6  4     4.83     0.20

 Norm of t1 vector:      0.07871552      S-energy:     0.00000000      T1 diagnostic:  0.01606774
                                                                       D1 diagnostic:  0.04205100

 Doubles amplitudes (print threshold =  0.500E-01):

         I         J         SYM. A    SYM. B    A         B      T(IJ, AB)

         6         6         2         2         1         1     -0.10882084


 Total CPU time for triples:      1.37 sec


 RESULTS
 =======

  Reference energy                   -129.838979391294
  CCSD singlet pair energy             -0.308391513544
  CCSD triplet pair energy             -0.141309614667
  CCSD correlation energy              -0.449701128210

  Triples (T) contribution             -0.020970800211
  Total correlation energy             -0.470671928421

  CCSD total energy                  -130.288680519504
  CCSD[T] energy                     -130.310725144742
  CCSD-T energy                      -130.309243692352
 !CCSD(T) total energy               -130.309651319715

 Timing summary (sec):

 STEP                 CPU(USER)    SYS     CPU(TOT)    WALL
 Transformation          0.18      0.03      0.21      0.21
 CCSD iterations         4.65      0.62      5.27      5.28
 Triples                 1.37      0.06      1.43      1.43

 Program statistics:

 Available memory in ccsd:               994999756
 Min. memory needed in ccsd:                389120
 Max. memory used in ccsd:                  473124
 Max. memory used in cckext:                599488 (27 integral passes)



 **********************************************************************************************************************************
 DATASETS  * FILE   NREC   LENGTH (MB)   RECORD NAMES
              1      20      128.20       500      610      700      900      950      970     1000      129      960     1100   
                                          VAR    BASINP    GEOM    SYMINP    ZMAT    AOBASIS   BASIS     P2S    ABASIS      S 
                                         1400     1410     1200     1210     1080     1600     1650     1300     1700     1380   
                                           T        V       H0       H01     AOSYM     SMH    MOLCAS    ERIS     OPER     JKOP   

              2       4        2.94       700     1000      520     2100   
                                         GEOM     BASIS   MCVARS     RHF  

 PROGRAMS   *        TOTAL   CCSD(T)        HF       INT
 CPU TIMES  *         8.86      6.21      1.18      1.36
 REAL TIME  *        10.68 SEC
 DISK USED  *       327.55 MB      
 **********************************************************************************************************************************

 CCSD(T)/aug-cc-pVTZ energy=   -130.309651319715

        CCSD(T)         HF-SCF  
   -130.30965132   -129.83897939
 **********************************************************************************************************************************
 Molpro calculation terminated
 Variable memory released
