
 Primary working directories    : /tmp/r2666/282220.maple
 Secondary working directories  : /tmp/r2666/282220.maple
 Wavefunction directory         : /ddn/home4/r2666/wfu/
 Main file repository           : /tmp/r2666/282220.maple/

 SHA1      : d5ffa45e93fdbca01ffc919aa182cfdae0147319
 NAME      : 2015.1.35
 ARCHNAME  : linux/x86_64
 FC        : /opt/intel/composer_xe_2015.1.133/bin/intel64/ifort
 BLASLIB   : -Wl,-_start-group /opt/intel/mkl/lib/intel64/libmkl_intel_ilp64.a /opt/intel/mkl/lib/intel64/libmkl_intel_thread.a /opt/intel/mkl/lib/intel64/libmkl_core.a -Wl,-_end-group
 id        : olemiss

 Nodes     nprocs
 cn076        1

 Using customized tuning parameters: mindgm=1; mindgv=20; mindgc=4; mindgr=1; noblas=0; minvec=7
 default implementation of scratch files=df  

 ***,hno CCSD(T)/TZ-F12 QFF
 memory, 995, m;
 gthresh,energy=1.d-12,zero=1.d-22,oneint=1.d-22,twoint=1.d-22;
 gthresh,optgrad=1.d-8,optstep=1.d-8;
 nocompress;
 geomtyp=xyz
 bohr
 geometry={
 3
        117       117
 H        0.0000000000        1.6759560788       -1.9363765767
 N        0.0000000000       -0.1679156208       -1.1439121195
 O        0.0000000000        0.0337273320        1.1296991052
 }
 
 basis=avtz
   {hf,maxit=500;accu,20;}
 {ccsd(t),nocheck,maxit=250;orbital,IGNORE_ERROR;}

 Variables initialized (889), CPU time= 0.01 sec
 Commands  initialized (702), CPU time= 0.00 sec, 572 directives.
 Default parameters read. Elapsed time= 0.04 sec

 Checking input...
 Passed
1


                                         ***  PROGRAM SYSTEM MOLPRO  ***
                                       Copyright, TTI GmbH Stuttgart, 2015
                                    Version 2015.1 linked Jul  9 2018 13:16:40


 **********************************************************************************************************************************
 LABEL *   hno CCSD(T)/TZ-F12 QFF                                                        
  64 bit serial version                                                                  DATE: 04-Mar-20          TIME: 13:46:45  
 **********************************************************************************************************************************

 SHA1:             d5ffa45e93fdbca01ffc919aa182cfdae0147319
 **********************************************************************************************************************************

 THRESHOLDS:

 ZERO    =  1.00D-22  ONEINT  =  1.00D-22  TWOINT  =  1.00D-22  PREFAC  =  1.00D-14  LOCALI  =  1.00D-09  EORDER  =  1.00D-04
 ENERGY  =  1.00D-12  ETEST   =  0.00D+00  EDENS   =  0.00D+00  THRDEDEF=  1.00D-06  GRADIENT=  1.00D-02  STEP    =  1.00D-03
 ORBITAL =  1.00D-05  CIVEC   =  1.00D-05  COEFF   =  1.00D-04  PRINTCI =  5.00D-02  PUNCHCI =  9.90D+01  OPTGRAD =  3.00D-04
 OPTENERG=  1.00D-06  OPTSTEP =  3.00D-04  THRGRAD =  1.00D-10  COMPRESS=  1.00D-11  VARMIN  =  1.00D-07  VARMAX  =  1.00D-03
 THRDOUB =  0.00D+00  THRDIV  =  1.00D-05  THRRED  =  1.00D-07  THRPSP  =  1.00D+00  THRDC   =  1.00D-10  THRCS   =  1.00D-10
 THRNRM  =  1.00D-08  THREQ   =  0.00D+00  THRDE   =  1.00D+00  THRREF  =  1.00D-05  SPARFAC =  1.00D+00  THRDLP  =  1.00D-07
 THRDIA  =  1.00D-10  THRDLS  =  1.00D-07  THRGPS  =  0.00D+00  THRKEX  =  0.00D+00  THRDIS  =  2.00D-01  THRVAR  =  1.00D-10
 THRLOC  =  1.00D-06  THRGAP  =  1.00D-06  THRLOCT = -1.00D+00  THRGAPT = -1.00D+00  THRORB  =  1.00D-06  THRMLTP =  0.00D+00
 THRCPQCI=  1.00D-10  KEXTA   =  0.00D+00  THRCOARS=  0.00D+00  SYMTOL  =  1.00D-06  GRADTOL =  1.00D-06  THROVL  =  1.00D-08
 THRORTH =  1.00D-08  GRID    =  1.00D-06  GRIDMAX =  1.00D-03  DTMAX   =  0.00D+00  THROCCDE=  1.00D-01  THROCCDE=  1.00D-01



 THRESHOLDS:

 ZERO    =  1.00D-22  ONEINT  =  1.00D-22  TWOINT  =  1.00D-22  PREFAC  =  1.00D-14  LOCALI  =  1.00D-09  EORDER  =  1.00D-04
 ENERGY  =  1.00D-12  ETEST   =  0.00D+00  EDENS   =  0.00D+00  THRDEDEF=  1.00D-06  GRADIENT=  1.00D-02  STEP    =  1.00D-03
 ORBITAL =  1.00D-05  CIVEC   =  1.00D-05  COEFF   =  1.00D-04  PRINTCI =  5.00D-02  PUNCHCI =  9.90D+01  OPTGRAD =  1.00D-08
 OPTENERG=  1.00D-06  OPTSTEP =  1.00D-08  THRGRAD =  1.00D-10  COMPRESS=  1.00D-11  VARMIN  =  1.00D-07  VARMAX  =  1.00D-03
 THRDOUB =  0.00D+00  THRDIV  =  1.00D-05  THRRED  =  1.00D-07  THRPSP  =  1.00D+00  THRDC   =  1.00D-10  THRCS   =  1.00D-10
 THRNRM  =  1.00D-08  THREQ   =  0.00D+00  THRDE   =  1.00D+00  THRREF  =  1.00D-05  SPARFAC =  1.00D+00  THRDLP  =  1.00D-07
 THRDIA  =  1.00D-10  THRDLS  =  1.00D-07  THRGPS  =  0.00D+00  THRKEX  =  0.00D+00  THRDIS  =  2.00D-01  THRVAR  =  1.00D-10
 THRLOC  =  1.00D-06  THRGAP  =  1.00D-06  THRLOCT = -1.00D+00  THRGAPT = -1.00D+00  THRORB  =  1.00D-06  THRMLTP =  0.00D+00
 THRCPQCI=  1.00D-10  KEXTA   =  0.00D+00  THRCOARS=  0.00D+00  SYMTOL  =  1.00D-06  GRADTOL =  1.00D-06  THROVL  =  1.00D-08
 THRORTH =  1.00D-08  GRID    =  1.00D-06  GRIDMAX =  1.00D-03  DTMAX   =  0.00D+00  THROCCDE=  1.00D-01  THROCCDE=  1.00D-01



 Input parameters for SORTINT:

 COMPRESS =    0.000000
 C_FINAL  =    1.000000
 DEBUG    =   -1.000000
 C_SORT1  =    0.000000
 C_SEWARD =    0.000000
 THRESH   =    0.000000
 IO       =  molpro                                                          
 SPRI     =    0.000000
 SETTING GEOMTYP        =    XYZ
 ZUNIT=BOHR
 

 Variable memory set to  995000000 words,  buffer space   230000 words

 SETTING BASIS          =    AVTZ


 Recomputing integrals since basis changed


 Using spherical harmonics

 Library entry H      S aug-cc-pVTZ          selected for orbital group  1
 Library entry H      P aug-cc-pVTZ          selected for orbital group  1
 Library entry H      D aug-cc-pVTZ          selected for orbital group  1
 Library entry N      S aug-cc-pVTZ          selected for orbital group  2
 Library entry N      P aug-cc-pVTZ          selected for orbital group  2
 Library entry N      D aug-cc-pVTZ          selected for orbital group  2
 Library entry N      F aug-cc-pVTZ          selected for orbital group  2
 Library entry O      S aug-cc-pVTZ          selected for orbital group  3
 Library entry O      P aug-cc-pVTZ          selected for orbital group  3
 Library entry O      D aug-cc-pVTZ          selected for orbital group  3
 Library entry O      F aug-cc-pVTZ          selected for orbital group  3


 PROGRAM * SEWARD (Integral evaluation for generally contracted gaussian basis sets)     Author: Roland Lindh, 1990

 Geometry written to block  1 of record 700


 Point group  Cs  



 ATOMIC COORDINATES

 NR  ATOM    CHARGE       X              Y              Z

   1  H       1.00    0.000000000    1.675956079   -1.936376577
   2  N       7.00    0.000000000   -0.167915621   -1.143912119
   3  O       8.00    0.000000000    0.033727332    1.129699105

 Bond lengths in Bohr (Angstrom)

 1-2  2.006953602  2-3  2.282535406
     ( 1.062034110)     ( 1.207865720)

 Bond angles

  1-2-3  108.18899349

 NUCLEAR CHARGE:                   16
 NUMBER OF PRIMITIVE AOS:         161
 NUMBER OF SYMMETRY AOS:          141
 NUMBER OF CONTRACTIONS:          115   (  76A'  +  39A"  )
 NUMBER OF CORE ORBITALS:           2   (   2A'  +   0A"  )
 NUMBER OF VALENCE ORBITALS:        9   (   7A'  +   2A"  )


 NUCLEAR REPULSION ENERGY   30.32204797

 Eigenvalues of metric

         1 0.233E-03 0.505E-03 0.182E-02 0.216E-02 0.254E-02 0.358E-02 0.435E-02 0.525E-02
         2 0.395E-02 0.104E-01 0.263E-01 0.374E-01 0.513E-01 0.627E-01 0.822E-01 0.120E+00


 Contracted 2-electron integrals neglected if value below      1.0D-22

       10790064. INTEGRALS WRITTEN OUT IN    2635 BLOCKS ON RECORD 1290 OF FILE 1


 NUMBER OF SORTED TWO-ELECTRON INTEGRALS:   11433631.     BUFFER LENGTH:  32768
 NUMBER OF SEGMENTS:   1  SEGMENT LENGTH:   11433631      RECORD LENGTH: 524288

 Memory used in sort:      11.99 MW

 SORT1 READ    10790064. AND WROTE    10943632. INTEGRALS IN     32 RECORDS. CPU TIME:     0.14 SEC, REAL TIME:     0.22 SEC
 SORT2 READ    10943632. AND WROTE    11433631. INTEGRALS IN      1 RECORDS. CPU TIME:     0.16 SEC, REAL TIME:     0.21 SEC

 FILE SIZES:   FILE 1:   193.0 MBYTE,  FILE 4:   134.3 MBYTE,   TOTAL:    327.2 MBYTE

 OPERATOR DM      FOR CENTER  0  COORDINATES:    0.000000    0.000000    0.000000


 **********************************************************************************************************************************
 DATASETS  * FILE   NREC   LENGTH (MB)   RECORD NAMES
              1      19      111.05       500      610      700      900      950      970     1000      129      960     1100   
                                          VAR    BASINP    GEOM    SYMINP    ZMAT    AOBASIS   BASIS     P2S    ABASIS      S 
                                         1400     1410     1200     1210     1080     1600     1650     1300     1700   
                                           T        V       H0       H01     AOSYM     SMH    MOLCAS    ERIS     OPER   

 PROGRAMS   *        TOTAL       INT
 CPU TIMES  *         1.25      1.16
 REAL TIME  *         2.00 SEC
 DISK USED  *       327.55 MB      
 **********************************************************************************************************************************


 PROGRAM * RHF-SCF (CLOSED SHELL)       Authors: W. Meyer, H.-J. Werner


 NUMBER OF ELECTRONS:       8+    8-
 CONVERGENCE THRESHOLDS:    1.00E-10 (Density)    1.00E-13 (Energy)
 MAX. NUMBER OF ITERATIONS:      500
 INTERPOLATION TYPE:            DIIS
 INTERPOLATION STEPS:              2 (START)      1 (STEP)
 LEVEL SHIFTS:                  0.00 (CLOSED)  0.00 (OPEN) 



 Orbital guess generated from atomic densities. Full valence occupancy:    9   2

 Molecular orbital dump at record        2100.2

 Initial occupancy:   7   1

 ITERATION    DDIFF          GRAD             ENERGY        2-EL.EN.            DIPOLE MOMENTS         DIIS   ORB.
    1      0.000D+00      0.000D+00      -129.78753474    153.803256    0.00000    0.58536   -1.02170    0    start
    2      0.000D+00      0.108D-01      -129.81498853    155.084887    0.00000    0.60989   -0.20575    1    diag
    3      0.119D-01      0.829D-02      -129.83804223    155.193065    0.00000    0.55375   -0.59128    2    diag
    4      0.597D-02      0.128D-02      -129.83883548    154.903277    0.00000    0.56112   -0.53140    3    diag
    5      0.107D-02      0.423D-03      -129.83896320    154.998071    0.00000    0.56685   -0.53428    4    diag
    6      0.452D-03      0.123D-03      -129.83898370    154.982379    0.00000    0.56723   -0.53017    5    diag
    7      0.174D-03      0.607D-04      -129.83898956    154.984937    0.00000    0.56852   -0.52762    6    diag
    8      0.120D-03      0.206D-04      -129.83899019    154.984276    0.00000    0.56854   -0.52662    7    diag
    9      0.447D-04      0.393D-05      -129.83899022    154.984164    0.00000    0.56851   -0.52641    8    diag
   10      0.865D-05      0.897D-06      -129.83899022    154.984144    0.00000    0.56847   -0.52638    9    orth
   11      0.177D-05      0.179D-06      -129.83899022    154.984141    0.00000    0.56846   -0.52638    9    diag
   12      0.343D-06      0.368D-07      -129.83899022    154.984141    0.00000    0.56846   -0.52637    9    diag
   13      0.741D-07      0.935D-08      -129.83899022    154.984140    0.00000    0.56846   -0.52637    9    diag
   14      0.195D-07      0.195D-08      -129.83899022    154.984140    0.00000    0.56846   -0.52637    9    diag
   15      0.388D-08      0.544D-09      -129.83899022    154.984140    0.00000    0.56846   -0.52637    9    diag
   16      0.106D-08      0.148D-09      -129.83899022    154.984140    0.00000    0.56846   -0.52637    9    diag
   17      0.188D-09      0.429D-10      -129.83899022    154.984140    0.00000    0.56846   -0.52637    9    diag
   18      0.534D-10      0.154D-10      -129.83899022    154.984140    0.00000    0.56846   -0.52637    0    orth

 Final occupancy:   7   1

 !RHF STATE 1.1 Energy               -129.838990220190
 Nuclear energy                        30.32204797
 One-electron energy                 -237.65310841
 Two-electron energy                   77.49207021
 Virial quotient                       -1.00227180
 !RHF STATE 1.1 Dipole moment           0.00000000     0.56846133    -0.52637391
 Dipole moment /Debye                   0.00000000     1.44478994    -1.33782141

 Orbital energies:

         1.1          2.1          3.1          4.1          5.1          6.1          7.1          8.1          9.1
    -20.656757   -15.715807    -1.530753    -0.992543    -0.746234    -0.666133    -0.429830     0.029175     0.092165

         1.2          2.2          3.2
     -0.596428     0.064910     0.130381

 HOMO      7.1    -0.429830 =     -11.6963eV
 LUMO      8.1     0.029175 =       0.7939eV
 LUMO-HOMO         0.459005 =      12.4902eV


 **********************************************************************************************************************************
 DATASETS  * FILE   NREC   LENGTH (MB)   RECORD NAMES
              1      19      111.05       500      610      700      900      950      970     1000      129      960     1100   
                                          VAR    BASINP    GEOM    SYMINP    ZMAT    AOBASIS   BASIS     P2S    ABASIS      S 
                                         1400     1410     1200     1210     1080     1600     1650     1300     1700   
                                           T        V       H0       H01     AOSYM     SMH    MOLCAS    ERIS     OPER   

              2       4        2.94       700     1000      520     2100   
                                         GEOM     BASIS   MCVARS     RHF  

 PROGRAMS   *        TOTAL        HF       INT
 CPU TIMES  *         2.16      0.91      1.16
 REAL TIME  *         3.17 SEC
 DISK USED  *       327.55 MB      
 **********************************************************************************************************************************


 PROGRAM * CCSD (Closed-shell coupled cluster)     Authors: C. Hampel, H.-J. Werner, 1991, M. Deegan, P.J. Knowles, 1992


 Convergence thresholds:  THRVAR = 1.00D-08  THRDEN = 1.00D-12

 CCSD(T)     terms to be evaluated (factor= 1.000)


 Number of core orbitals:           2 (   2   0 )
 Number of closed-shell orbitals:   6 (   5   1 )
 Number of external orbitals:     107 (  69  38 )

 Molecular orbitals read from record     2100.2  Type=RHF/CANONICAL (state 1.1)

 Number of N-1 electron functions:               6
 Number of N-2 electron functions:              21
 Number of singly external CSFs:               383
 Number of doubly external CSFs:            107206
 Total number of CSFs:                      107590

 Length of J-op  integral file:               0.00 MB
 Length of K-op  integral file:               0.54 MB
 Length of 3-ext integral record:             0.00 MB

 Memory could be reduced to 5.94 Mwords without degradation in triples

 Integral transformation finished. Total CPU:   0.14 sec, npass=  1  Memory used:   1.65 MW

 Reference energy:                   -129.83899022

 MP2 singlet pair energy:              -0.27967110
 MP2 triplet pair energy:              -0.16531834
 MP2 correlation energy:               -0.44498945
 MP2 total energy:                   -130.28397967

 SCS-MP2 correlation energy:           -0.43847007   (PS=  1.200000  PT=  0.333333)
 SCS-MP2 total energy:               -130.27746029

 ITER.      SQ.NORM     CORR.ENERGY   TOTAL ENERGY   ENERGY CHANGE        DEN1      VAR(S)    VAR(P)  DIIS     TIME  TIME/IT
   1      1.12128343    -0.44907889  -130.28806912    -0.00408945     0.01206149  0.32D-02  0.32D-02  1  1     0.28     0.16
   2      1.13247140    -0.44927064  -130.28826086    -0.00019175    -0.01249701  0.10D-03  0.52D-03  2  2     0.43     0.16
   3      1.13902606    -0.44967789  -130.28866811    -0.00040725    -0.00302478  0.55D-04  0.51D-04  3  3     0.59     0.16
   4      1.14193266    -0.44968775  -130.28867797    -0.00000986    -0.00098324  0.43D-05  0.93D-05  4  4     0.73     0.16
   5      1.14300122    -0.44971719  -130.28870741    -0.00002944    -0.00022645  0.12D-05  0.16D-05  5  5     0.89     0.16
   6      1.14334907    -0.44970007  -130.28869029     0.00001712    -0.00004238  0.11D-06  0.39D-06  6  6     1.04     0.16
   7      1.14342549    -0.44970102  -130.28869124    -0.00000095    -0.00000190  0.20D-07  0.92D-07  6  1     1.20     0.16
   8      1.14344780    -0.44970168  -130.28869190    -0.00000066     0.00000130  0.36D-08  0.17D-07  6  2     1.35     0.16
   9      1.14345348    -0.44970119  -130.28869141     0.00000048     0.00000052  0.28D-08  0.19D-08  6  4     1.50     0.16
  10      1.14345587    -0.44970168  -130.28869190    -0.00000049    -0.00000074  0.45D-09  0.22D-09  6  3     1.66     0.16
  11      1.14345536    -0.44970171  -130.28869193    -0.00000002    -0.00000007  0.16D-09  0.34D-10  6  5     1.79     0.16
  12      1.14345428    -0.44970186  -130.28869208    -0.00000015     0.00000034  0.19D-10  0.11D-10  6  6     1.93     0.16
  13      1.14345340    -0.44970190  -130.28869212    -0.00000004     0.00000022  0.66D-11  0.22D-11  6  1     2.08     0.16
  14      1.14345284    -0.44970193  -130.28869215    -0.00000003     0.00000014  0.11D-11  0.69D-12  6  2     2.22     0.16
  15      1.14345261    -0.44970193  -130.28869215    -0.00000001     0.00000003  0.30D-12  0.22D-12  6  4     2.36     0.16
  16      1.14345251    -0.44970194  -130.28869216    -0.00000000     0.00000001  0.57D-13  0.76D-13  6  3     2.48     0.16
  17      1.14345246    -0.44970194  -130.28869216    -0.00000000     0.00000001  0.39D-14  0.18D-13  6  5     2.63     0.16
  18      1.14345245    -0.44970194  -130.28869216     0.00000000    -0.00000000  0.13D-14  0.39D-14  6  6     2.77     0.16
  19      1.14345244    -0.44970194  -130.28869216    -0.00000000     0.00000000  0.11D-14  0.72D-15  6  1     2.91     0.16
  20      1.14345245    -0.44970194  -130.28869216     0.00000000    -0.00000000  0.23D-15  0.13D-15  6  2     3.05     0.16
  21      1.14345245    -0.44970194  -130.28869216     0.00000000    -0.00000000  0.54D-16  0.32D-16  6  3     3.19     0.16
  22      1.14345245    -0.44970194  -130.28869216     0.00000000     0.00000000  0.63D-17  0.29D-17  6  4     3.33     0.16
  23      1.14345245    -0.44970194  -130.28869216     0.00000000    -0.00000000  0.23D-17  0.60D-18  6  5     3.48     0.16
  24      1.14345245    -0.44970194  -130.28869216     0.00000000     0.00000000  0.16D-18  0.51D-19  6  2     3.62     0.16
  25      1.14345245    -0.44970194  -130.28869216    -0.00000000    -0.00000000  0.23D-19  0.13D-19  6  6     3.76     0.16
  26      1.14345245    -0.44970194  -130.28869216     0.00000000    -0.00000000  0.37D-20  0.22D-20  6  1     3.89     0.16
  27      1.14345245    -0.44970194  -130.28869216    -0.00000000    -0.00000000  0.52D-21  0.52D-21  6  4     4.04     0.16

 Norm of t1 vector:      0.07888499      S-energy:     0.00000000      T1 diagnostic:  0.01610233
                                                                       D1 diagnostic:  0.04210405

 Doubles amplitudes (print threshold =  0.500E-01):

         I         J         SYM. A    SYM. B    A         B      T(IJ, AB)

         6         6         2         2         1         1     -0.10882125


 Total CPU time for triples:      1.21 sec


 RESULTS
 =======

  Reference energy                   -129.838990220190
  CCSD singlet pair energy             -0.308392023437
  CCSD triplet pair energy             -0.141309915141
  CCSD correlation energy              -0.449701938576

  Triples (T) contribution             -0.020977574397
  Total correlation energy             -0.470679512973

  CCSD total energy                  -130.288692158766
  CCSD[T] energy                     -130.310746886335
  CCSD-T energy                      -130.309261273067
 !CCSD(T) total energy               -130.309669733163

 Timing summary (sec):

 STEP                 CPU(USER)    SYS     CPU(TOT)    WALL
 Transformation          0.14      0.04      0.18      0.20
 CCSD iterations         3.90      0.54      4.44      4.44
 Triples                 1.21      0.03      1.24      1.23

 Program statistics:

 Available memory in ccsd:               994999756
 Min. memory needed in ccsd:                389120
 Max. memory used in ccsd:                  473124
 Max. memory used in cckext:                599488 (27 integral passes)



 **********************************************************************************************************************************
 DATASETS  * FILE   NREC   LENGTH (MB)   RECORD NAMES
              1      20      128.20       500      610      700      900      950      970     1000      129      960     1100   
                                          VAR    BASINP    GEOM    SYMINP    ZMAT    AOBASIS   BASIS     P2S    ABASIS      S 
                                         1400     1410     1200     1210     1080     1600     1650     1300     1700     1380   
                                           T        V       H0       H01     AOSYM     SMH    MOLCAS    ERIS     OPER     JKOP   

              2       4        2.94       700     1000      520     2100   
                                         GEOM     BASIS   MCVARS     RHF  

 PROGRAMS   *        TOTAL   CCSD(T)        HF       INT
 CPU TIMES  *         7.43      5.27      0.91      1.16
 REAL TIME  *         9.09 SEC
 DISK USED  *       327.55 MB      
 **********************************************************************************************************************************

 CCSD(T)/aug-cc-pVTZ energy=   -130.309669733163

        CCSD(T)         HF-SCF  
   -130.30966973   -129.83899022
 **********************************************************************************************************************************
 Molpro calculation terminated
 Variable memory released
