
 Primary working directories    : /tmp/r2666/282126.maple
 Secondary working directories  : /tmp/r2666/282126.maple
 Wavefunction directory         : /ddn/home4/r2666/wfu/
 Main file repository           : /tmp/r2666/282126.maple/

 SHA1      : d5ffa45e93fdbca01ffc919aa182cfdae0147319
 NAME      : 2015.1.35
 ARCHNAME  : linux/x86_64
 FC        : /opt/intel/composer_xe_2015.1.133/bin/intel64/ifort
 BLASLIB   : -Wl,-_start-group /opt/intel/mkl/lib/intel64/libmkl_intel_ilp64.a /opt/intel/mkl/lib/intel64/libmkl_intel_thread.a /opt/intel/mkl/lib/intel64/libmkl_core.a -Wl,-_end-group
 id        : olemiss

 Nodes     nprocs
 cn079        1

 Using customized tuning parameters: mindgm=1; mindgv=20; mindgc=4; mindgr=1; noblas=0; minvec=7
 default implementation of scratch files=df  

 ***,hno CCSD(T)/TZ-F12 QFF
 memory, 995, m;
 gthresh,energy=1.d-12,zero=1.d-22,oneint=1.d-22,twoint=1.d-22;
 gthresh,optgrad=1.d-8,optstep=1.d-8;
 nocompress;
 geomtyp=xyz
 bohr
 geometry={
 3
         23        23
 H        0.0000000000        1.6606837147       -1.9212590738
 N        0.0000000000       -0.1580857950       -1.1421788795
 O        0.0000000000        0.0391698702        1.1128483623
 }
 
 basis=avtz
   {hf,maxit=500;accu,20;}
 {ccsd(t),nocheck,maxit=250;orbital,IGNORE_ERROR;}

 Variables initialized (889), CPU time= 0.00 sec
 Commands  initialized (702), CPU time= 0.00 sec, 572 directives.
 Default parameters read. Elapsed time= 0.04 sec

 Checking input...
 Passed
1


                                         ***  PROGRAM SYSTEM MOLPRO  ***
                                       Copyright, TTI GmbH Stuttgart, 2015
                                    Version 2015.1 linked Jul  9 2018 13:16:40


 **********************************************************************************************************************************
 LABEL *   hno CCSD(T)/TZ-F12 QFF                                                        
  64 bit serial version                                                                  DATE: 04-Mar-20          TIME: 13:45:58  
 **********************************************************************************************************************************

 SHA1:             d5ffa45e93fdbca01ffc919aa182cfdae0147319
 **********************************************************************************************************************************

 THRESHOLDS:

 ZERO    =  1.00D-22  ONEINT  =  1.00D-22  TWOINT  =  1.00D-22  PREFAC  =  1.00D-14  LOCALI  =  1.00D-09  EORDER  =  1.00D-04
 ENERGY  =  1.00D-12  ETEST   =  0.00D+00  EDENS   =  0.00D+00  THRDEDEF=  1.00D-06  GRADIENT=  1.00D-02  STEP    =  1.00D-03
 ORBITAL =  1.00D-05  CIVEC   =  1.00D-05  COEFF   =  1.00D-04  PRINTCI =  5.00D-02  PUNCHCI =  9.90D+01  OPTGRAD =  3.00D-04
 OPTENERG=  1.00D-06  OPTSTEP =  3.00D-04  THRGRAD =  1.00D-10  COMPRESS=  1.00D-11  VARMIN  =  1.00D-07  VARMAX  =  1.00D-03
 THRDOUB =  0.00D+00  THRDIV  =  1.00D-05  THRRED  =  1.00D-07  THRPSP  =  1.00D+00  THRDC   =  1.00D-10  THRCS   =  1.00D-10
 THRNRM  =  1.00D-08  THREQ   =  0.00D+00  THRDE   =  1.00D+00  THRREF  =  1.00D-05  SPARFAC =  1.00D+00  THRDLP  =  1.00D-07
 THRDIA  =  1.00D-10  THRDLS  =  1.00D-07  THRGPS  =  0.00D+00  THRKEX  =  0.00D+00  THRDIS  =  2.00D-01  THRVAR  =  1.00D-10
 THRLOC  =  1.00D-06  THRGAP  =  1.00D-06  THRLOCT = -1.00D+00  THRGAPT = -1.00D+00  THRORB  =  1.00D-06  THRMLTP =  0.00D+00
 THRCPQCI=  1.00D-10  KEXTA   =  0.00D+00  THRCOARS=  0.00D+00  SYMTOL  =  1.00D-06  GRADTOL =  1.00D-06  THROVL  =  1.00D-08
 THRORTH =  1.00D-08  GRID    =  1.00D-06  GRIDMAX =  1.00D-03  DTMAX   =  0.00D+00  THROCCDE=  1.00D-01  THROCCDE=  1.00D-01



 THRESHOLDS:

 ZERO    =  1.00D-22  ONEINT  =  1.00D-22  TWOINT  =  1.00D-22  PREFAC  =  1.00D-14  LOCALI  =  1.00D-09  EORDER  =  1.00D-04
 ENERGY  =  1.00D-12  ETEST   =  0.00D+00  EDENS   =  0.00D+00  THRDEDEF=  1.00D-06  GRADIENT=  1.00D-02  STEP    =  1.00D-03
 ORBITAL =  1.00D-05  CIVEC   =  1.00D-05  COEFF   =  1.00D-04  PRINTCI =  5.00D-02  PUNCHCI =  9.90D+01  OPTGRAD =  1.00D-08
 OPTENERG=  1.00D-06  OPTSTEP =  1.00D-08  THRGRAD =  1.00D-10  COMPRESS=  1.00D-11  VARMIN  =  1.00D-07  VARMAX  =  1.00D-03
 THRDOUB =  0.00D+00  THRDIV  =  1.00D-05  THRRED  =  1.00D-07  THRPSP  =  1.00D+00  THRDC   =  1.00D-10  THRCS   =  1.00D-10
 THRNRM  =  1.00D-08  THREQ   =  0.00D+00  THRDE   =  1.00D+00  THRREF  =  1.00D-05  SPARFAC =  1.00D+00  THRDLP  =  1.00D-07
 THRDIA  =  1.00D-10  THRDLS  =  1.00D-07  THRGPS  =  0.00D+00  THRKEX  =  0.00D+00  THRDIS  =  2.00D-01  THRVAR  =  1.00D-10
 THRLOC  =  1.00D-06  THRGAP  =  1.00D-06  THRLOCT = -1.00D+00  THRGAPT = -1.00D+00  THRORB  =  1.00D-06  THRMLTP =  0.00D+00
 THRCPQCI=  1.00D-10  KEXTA   =  0.00D+00  THRCOARS=  0.00D+00  SYMTOL  =  1.00D-06  GRADTOL =  1.00D-06  THROVL  =  1.00D-08
 THRORTH =  1.00D-08  GRID    =  1.00D-06  GRIDMAX =  1.00D-03  DTMAX   =  0.00D+00  THROCCDE=  1.00D-01  THROCCDE=  1.00D-01



 Input parameters for SORTINT:

 COMPRESS =    0.000000
 C_FINAL  =    1.000000
 DEBUG    =   -1.000000
 C_SORT1  =    0.000000
 C_SEWARD =    0.000000
 THRESH   =    0.000000
 IO       =  molpro                                                          
 SPRI     =    0.000000
 SETTING GEOMTYP        =    XYZ
 ZUNIT=BOHR
 

 Variable memory set to  995000000 words,  buffer space   230000 words

 SETTING BASIS          =    AVTZ


 Recomputing integrals since basis changed


 Using spherical harmonics

 Library entry H      S aug-cc-pVTZ          selected for orbital group  1
 Library entry H      P aug-cc-pVTZ          selected for orbital group  1
 Library entry H      D aug-cc-pVTZ          selected for orbital group  1
 Library entry N      S aug-cc-pVTZ          selected for orbital group  2
 Library entry N      P aug-cc-pVTZ          selected for orbital group  2
 Library entry N      D aug-cc-pVTZ          selected for orbital group  2
 Library entry N      F aug-cc-pVTZ          selected for orbital group  2
 Library entry O      S aug-cc-pVTZ          selected for orbital group  3
 Library entry O      P aug-cc-pVTZ          selected for orbital group  3
 Library entry O      D aug-cc-pVTZ          selected for orbital group  3
 Library entry O      F aug-cc-pVTZ          selected for orbital group  3


 PROGRAM * SEWARD (Integral evaluation for generally contracted gaussian basis sets)     Author: Roland Lindh, 1990

 Geometry written to block  1 of record 700


 Point group  Cs  



 ATOMIC COORDINATES

 NR  ATOM    CHARGE       X              Y              Z

   1  H       1.00    0.000000000    1.660683715   -1.921259074
   2  N       7.00    0.000000000   -0.158085795   -1.142178880
   3  O       8.00    0.000000000    0.039169870    1.112848362

 Bond lengths in Bohr (Angstrom)

 1-2  1.978607712  2-3  2.263638147
     ( 1.047034111)     ( 1.197865721)

 Bond angles

  1-2-3  108.18899349

 NUCLEAR CHARGE:                   16
 NUMBER OF PRIMITIVE AOS:         161
 NUMBER OF SYMMETRY AOS:          141
 NUMBER OF CONTRACTIONS:          115   (  76A'  +  39A"  )
 NUMBER OF CORE ORBITALS:           2   (   2A'  +   0A"  )
 NUMBER OF VALENCE ORBITALS:        9   (   7A'  +   2A"  )


 NUCLEAR REPULSION ENERGY   30.60221013

 Eigenvalues of metric

         1 0.228E-03 0.492E-03 0.178E-02 0.208E-02 0.245E-02 0.343E-02 0.426E-02 0.504E-02
         2 0.383E-02 0.995E-02 0.257E-01 0.367E-01 0.509E-01 0.617E-01 0.797E-01 0.118E+00


 Contracted 2-electron integrals neglected if value below      1.0D-22

       10790064. INTEGRALS WRITTEN OUT IN    2635 BLOCKS ON RECORD 1290 OF FILE 1


 NUMBER OF SORTED TWO-ELECTRON INTEGRALS:   11433631.     BUFFER LENGTH:  32768
 NUMBER OF SEGMENTS:   1  SEGMENT LENGTH:   11433631      RECORD LENGTH: 524288

 Memory used in sort:      11.99 MW

 SORT1 READ    10790064. AND WROTE    10943632. INTEGRALS IN     32 RECORDS. CPU TIME:     0.14 SEC, REAL TIME:     0.22 SEC
 SORT2 READ    10943632. AND WROTE    11433631. INTEGRALS IN      1 RECORDS. CPU TIME:     0.19 SEC, REAL TIME:     0.24 SEC

 FILE SIZES:   FILE 1:   193.0 MBYTE,  FILE 4:   134.3 MBYTE,   TOTAL:    327.2 MBYTE

 OPERATOR DM      FOR CENTER  0  COORDINATES:    0.000000    0.000000    0.000000


 **********************************************************************************************************************************
 DATASETS  * FILE   NREC   LENGTH (MB)   RECORD NAMES
              1      19      111.05       500      610      700      900      950      970     1000      129      960     1100   
                                          VAR    BASINP    GEOM    SYMINP    ZMAT    AOBASIS   BASIS     P2S    ABASIS      S 
                                         1400     1410     1200     1210     1080     1600     1650     1300     1700   
                                           T        V       H0       H01     AOSYM     SMH    MOLCAS    ERIS     OPER   

 PROGRAMS   *        TOTAL       INT
 CPU TIMES  *         1.23      1.16
 REAL TIME  *         1.99 SEC
 DISK USED  *       327.55 MB      
 **********************************************************************************************************************************


 PROGRAM * RHF-SCF (CLOSED SHELL)       Authors: W. Meyer, H.-J. Werner


 NUMBER OF ELECTRONS:       8+    8-
 CONVERGENCE THRESHOLDS:    1.00E-10 (Density)    1.00E-13 (Energy)
 MAX. NUMBER OF ITERATIONS:      500
 INTERPOLATION TYPE:            DIIS
 INTERPOLATION STEPS:              2 (START)      1 (STEP)
 LEVEL SHIFTS:                  0.00 (CLOSED)  0.00 (OPEN) 



 Orbital guess generated from atomic densities. Full valence occupancy:    9   2

 Molecular orbital dump at record        2100.2

 Initial occupancy:   7   1

 ITERATION    DDIFF          GRAD             ENERGY        2-EL.EN.            DIPOLE MOMENTS         DIIS   ORB.
    1      0.000D+00      0.000D+00      -129.79140548    154.317181    0.00000    0.59062   -0.98798    0    start
    2      0.000D+00      0.106D-01      -129.81913786    155.599453    0.00000    0.60494   -0.21603    1    diag
    3      0.116D-01      0.791D-02      -129.83994211    155.689655    0.00000    0.55427   -0.57799    2    diag
    4      0.573D-02      0.126D-02      -129.84071038    155.410014    0.00000    0.56200   -0.51975    3    diag
    5      0.106D-02      0.414D-03      -129.84083115    155.502658    0.00000    0.56751   -0.52272    4    diag
    6      0.440D-03      0.119D-03      -129.84085028    155.487305    0.00000    0.56794   -0.51884    5    diag
    7      0.168D-03      0.584D-04      -129.84085564    155.489884    0.00000    0.56920   -0.51642    6    diag
    8      0.115D-03      0.192D-04      -129.84085617    155.489267    0.00000    0.56923   -0.51551    7    diag
    9      0.409D-04      0.360D-05      -129.84085620    155.489169    0.00000    0.56919   -0.51531    8    diag
   10      0.770D-05      0.837D-06      -129.84085620    155.489151    0.00000    0.56916   -0.51528    9    orth
   11      0.164D-05      0.169D-06      -129.84085620    155.489148    0.00000    0.56915   -0.51528    9    diag
   12      0.325D-06      0.343D-07      -129.84085620    155.489148    0.00000    0.56915   -0.51528    9    diag
   13      0.702D-07      0.847D-08      -129.84085620    155.489148    0.00000    0.56915   -0.51528    9    diag
   14      0.179D-07      0.177D-08      -129.84085620    155.489148    0.00000    0.56915   -0.51528    9    diag
   15      0.364D-08      0.506D-09      -129.84085620    155.489148    0.00000    0.56915   -0.51528    9    diag
   16      0.993D-09      0.144D-09      -129.84085620    155.489148    0.00000    0.56915   -0.51528    9    diag
   17      0.188D-09      0.418D-10      -129.84085620    155.489148    0.00000    0.56915   -0.51528    9    diag
   18      0.539D-10      0.148D-10      -129.84085620    155.489148    0.00000    0.56915   -0.51528    9    diag
   19      0.265D-10      0.333D-11      -129.84085620    155.489148    0.00000    0.56915   -0.51528    9    fixocc
   20      0.638D-11      0.543D-12      -129.84085620    155.489148    0.00000    0.56915   -0.51528    0    orth

 Final occupancy:   7   1

 !RHF STATE 1.1 Energy               -129.840856196953
 Nuclear energy                        30.60221013
 One-electron energy                 -238.18764019
 Two-electron energy                   77.74457387
 Virial quotient                       -1.00178114
 !RHF STATE 1.1 Dipole moment           0.00000000     0.56915170    -0.51527624
 Dipole moment /Debye                   0.00000000     1.44654457    -1.30961579

 Orbital energies:

         1.1          2.1          3.1          4.1          5.1          6.1          7.1          8.1          9.1
    -20.655473   -15.712042    -1.539188    -0.993953    -0.750961    -0.669008    -0.427616     0.029327     0.092206

         1.2          2.2          3.2
     -0.601005     0.067662     0.130392

 HOMO      7.1    -0.427616 =     -11.6360eV
 LUMO      8.1     0.029327 =       0.7980eV
 LUMO-HOMO         0.456943 =      12.4341eV


 **********************************************************************************************************************************
 DATASETS  * FILE   NREC   LENGTH (MB)   RECORD NAMES
              1      19      111.05       500      610      700      900      950      970     1000      129      960     1100   
                                          VAR    BASINP    GEOM    SYMINP    ZMAT    AOBASIS   BASIS     P2S    ABASIS      S 
                                         1400     1410     1200     1210     1080     1600     1650     1300     1700   
                                           T        V       H0       H01     AOSYM     SMH    MOLCAS    ERIS     OPER   

              2       4        2.94       700     1000      520     2100   
                                         GEOM     BASIS   MCVARS     RHF  

 PROGRAMS   *        TOTAL        HF       INT
 CPU TIMES  *         2.28      1.04      1.16
 REAL TIME  *         4.92 SEC
 DISK USED  *       327.55 MB      
 **********************************************************************************************************************************


 PROGRAM * CCSD (Closed-shell coupled cluster)     Authors: C. Hampel, H.-J. Werner, 1991, M. Deegan, P.J. Knowles, 1992


 Convergence thresholds:  THRVAR = 1.00D-08  THRDEN = 1.00D-12

 CCSD(T)     terms to be evaluated (factor= 1.000)


 Number of core orbitals:           2 (   2   0 )
 Number of closed-shell orbitals:   6 (   5   1 )
 Number of external orbitals:     107 (  69  38 )

 Molecular orbitals read from record     2100.2  Type=RHF/CANONICAL (state 1.1)

 Number of N-1 electron functions:               6
 Number of N-2 electron functions:              21
 Number of singly external CSFs:               383
 Number of doubly external CSFs:            107206
 Total number of CSFs:                      107590

 Length of J-op  integral file:               0.00 MB
 Length of K-op  integral file:               0.54 MB
 Length of 3-ext integral record:             0.00 MB

 Memory could be reduced to 5.94 Mwords without degradation in triples

 Integral transformation finished. Total CPU:   0.16 sec, npass=  1  Memory used:   1.65 MW

 Reference energy:                   -129.84085620

 MP2 singlet pair energy:              -0.27826692
 MP2 triplet pair energy:              -0.16441154
 MP2 correlation energy:               -0.44267846
 MP2 total energy:                   -130.28353465

 SCS-MP2 correlation energy:           -0.43622082   (PS=  1.200000  PT=  0.333333)
 SCS-MP2 total energy:               -130.27707701

 ITER.      SQ.NORM     CORR.ENERGY   TOTAL ENERGY   ENERGY CHANGE        DEN1      VAR(S)    VAR(P)  DIIS     TIME  TIME/IT
   1      1.11967944    -0.44718445  -130.28804065    -0.00450600     0.01110294  0.30D-02  0.30D-02  1  1     0.33     0.17
   2      1.13052537    -0.44745940  -130.28831559    -0.00027494    -0.01217606  0.95D-04  0.49D-03  2  2     0.48     0.17
   3      1.13677701    -0.44783976  -130.28869596    -0.00038036    -0.00292413  0.50D-04  0.49D-04  3  3     0.62     0.17
   4      1.13953469    -0.44785130  -130.28870750    -0.00001154    -0.00094054  0.38D-05  0.88D-05  4  4     0.75     0.17
   5      1.14051859    -0.44787797  -130.28873417    -0.00002667    -0.00020860  0.10D-05  0.16D-05  5  5     0.90     0.17
   6      1.14084477    -0.44786234  -130.28871854     0.00001563    -0.00003957  0.93D-07  0.40D-06  6  6     1.04     0.17
   7      1.14091860    -0.44786343  -130.28871963    -0.00000109    -0.00000202  0.18D-07  0.90D-07  6  1     1.18     0.17
   8      1.14093963    -0.44786421  -130.28872041    -0.00000078     0.00000154  0.37D-08  0.15D-07  6  2     1.32     0.17
   9      1.14094473    -0.44786381  -130.28872001     0.00000040     0.00000038  0.26D-08  0.17D-08  6  4     1.45     0.17
  10      1.14094686    -0.44786427  -130.28872047    -0.00000046    -0.00000065  0.42D-09  0.19D-09  6  3     1.61     0.17
  11      1.14094634    -0.44786430  -130.28872049    -0.00000003    -0.00000006  0.14D-09  0.30D-10  6  5     1.77     0.17
  12      1.14094532    -0.44786444  -130.28872063    -0.00000014     0.00000032  0.16D-10  0.96D-11  6  6     1.92     0.17
  13      1.14094453    -0.44786447  -130.28872067    -0.00000003     0.00000020  0.57D-11  0.19D-11  6  1     2.06     0.17
  14      1.14094403    -0.44786450  -130.28872069    -0.00000003     0.00000013  0.92D-12  0.62D-12  6  2     2.21     0.17
  15      1.14094382    -0.44786450  -130.28872070    -0.00000001     0.00000003  0.25D-12  0.20D-12  6  4     2.36     0.17
  16      1.14094370    -0.44786450  -130.28872070    -0.00000000     0.00000001  0.34D-13  0.24D-13  6  5     2.51     0.17
  17      1.14094367    -0.44786451  -130.28872070    -0.00000000     0.00000000  0.64D-15  0.17D-14  6  3     2.65     0.17
  18      1.14094367    -0.44786451  -130.28872070     0.00000000    -0.00000000  0.22D-15  0.24D-15  6  6     2.79     0.17
  19      1.14094367    -0.44786451  -130.28872070     0.00000000    -0.00000000  0.66D-16  0.33D-16  6  1     2.92     0.17
  20      1.14094367    -0.44786451  -130.28872070     0.00000000    -0.00000000  0.18D-16  0.60D-17  6  2     3.06     0.17
  21      1.14094367    -0.44786451  -130.28872070     0.00000000    -0.00000000  0.31D-17  0.16D-17  6  5     3.23     0.17
  22      1.14094367    -0.44786451  -130.28872070    -0.00000000     0.00000000  0.32D-18  0.18D-18  6  4     3.37     0.17
  23      1.14094367    -0.44786451  -130.28872070     0.00000000     0.00000000  0.11D-18  0.37D-19  6  3     3.50     0.17
  24      1.14094367    -0.44786451  -130.28872070     0.00000000    -0.00000000  0.11D-19  0.50D-20  6  2     3.65     0.17
  25      1.14094367    -0.44786451  -130.28872070     0.00000000    -0.00000000  0.19D-20  0.79D-21  6  6     3.81     0.17
  26      1.14094367    -0.44786451  -130.28872070     0.00000000    -0.00000000  0.42D-21  0.20D-21  6  1     3.93     0.17

 Norm of t1 vector:      0.07659611      S-energy:     0.00000000      T1 diagnostic:  0.01563512
                                                                       D1 diagnostic:  0.04074469

 Doubles amplitudes (print threshold =  0.500E-01):

         I         J         SYM. A    SYM. B    A         B      T(IJ, AB)

         6         6         2         2         1         1     -0.10441179


 Total CPU time for triples:      1.13 sec


 RESULTS
 =======

  Reference energy                   -129.840856196953
  CCSD singlet pair energy             -0.306815034621
  CCSD triplet pair energy             -0.141049471373
  CCSD correlation energy              -0.447864505994

  Triples (T) contribution             -0.020570015528
  Total correlation energy             -0.468434521522

  CCSD total energy                  -130.288720702947
  CCSD[T] energy                     -130.310309507579
  CCSD-T energy                      -130.308898586197
 !CCSD(T) total energy               -130.309290718475

 Timing summary (sec):

 STEP                 CPU(USER)    SYS     CPU(TOT)    WALL
 Transformation          0.17      0.04      0.21      1.12
 CCSD iterations         3.76      0.69      4.45      4.45
 Triples                 1.13      0.02      1.15      1.15

 Program statistics:

 Available memory in ccsd:               994999756
 Min. memory needed in ccsd:                389120
 Max. memory used in ccsd:                  473124
 Max. memory used in cckext:                599488 (26 integral passes)



 **********************************************************************************************************************************
 DATASETS  * FILE   NREC   LENGTH (MB)   RECORD NAMES
              1      20      128.20       500      610      700      900      950      970     1000      129      960     1100   
                                          VAR    BASINP    GEOM    SYMINP    ZMAT    AOBASIS   BASIS     P2S    ABASIS      S 
                                         1400     1410     1200     1210     1080     1600     1650     1300     1700     1380   
                                           T        V       H0       H01     AOSYM     SMH    MOLCAS    ERIS     OPER     JKOP   

              2       4        2.94       700     1000      520     2100   
                                         GEOM     BASIS   MCVARS     RHF  

 PROGRAMS   *        TOTAL   CCSD(T)        HF       INT
 CPU TIMES  *         7.39      5.10      1.04      1.16
 REAL TIME  *        13.53 SEC
 DISK USED  *       327.55 MB      
 **********************************************************************************************************************************

 CCSD(T)/aug-cc-pVTZ energy=   -130.309290718475

        CCSD(T)         HF-SCF  
   -130.30929072   -129.84085620
 **********************************************************************************************************************************
 Molpro calculation terminated
 Variable memory released
