
 Primary working directories    : /tmp/r2666/282193.maple
 Secondary working directories  : /tmp/r2666/282193.maple
 Wavefunction directory         : /ddn/home4/r2666/wfu/
 Main file repository           : /tmp/r2666/282193.maple/

 SHA1      : d5ffa45e93fdbca01ffc919aa182cfdae0147319
 NAME      : 2015.1.35
 ARCHNAME  : linux/x86_64
 FC        : /opt/intel/composer_xe_2015.1.133/bin/intel64/ifort
 BLASLIB   : -Wl,-_start-group /opt/intel/mkl/lib/intel64/libmkl_intel_ilp64.a /opt/intel/mkl/lib/intel64/libmkl_intel_thread.a /opt/intel/mkl/lib/intel64/libmkl_core.a -Wl,-_end-group
 id        : olemiss

 Nodes     nprocs
 cn065        1

 Using customized tuning parameters: mindgm=1; mindgv=20; mindgc=4; mindgr=1; noblas=0; minvec=7
 default implementation of scratch files=df  

 ***,hno CCSD(T)/TZ-F12 QFF
 memory, 995, m;
 gthresh,energy=1.d-12,zero=1.d-22,oneint=1.d-22,twoint=1.d-22;
 gthresh,optgrad=1.d-8,optstep=1.d-8;
 nocompress;
 geomtyp=xyz
 bohr
 geometry={
 3
         90        90
 H        0.0000000000        1.6701623450       -1.9234907811
 N        0.0000000000       -0.1694838699       -1.1452055395
 O        0.0000000000        0.0410893149        1.1181067296
 }
 
 basis=avtz
   {hf,maxit=500;accu,20;}
 {ccsd(t),nocheck,maxit=250;orbital,IGNORE_ERROR;}

 Variables initialized (889), CPU time= 0.00 sec
 Commands  initialized (702), CPU time= 0.01 sec, 572 directives.
 Default parameters read. Elapsed time= 0.06 sec

 Checking input...
 Passed
1


                                         ***  PROGRAM SYSTEM MOLPRO  ***
                                       Copyright, TTI GmbH Stuttgart, 2015
                                    Version 2015.1 linked Jul  9 2018 13:16:40


 **********************************************************************************************************************************
 LABEL *   hno CCSD(T)/TZ-F12 QFF                                                        
  64 bit serial version                                                                  DATE: 04-Mar-20          TIME: 13:46:36  
 **********************************************************************************************************************************

 SHA1:             d5ffa45e93fdbca01ffc919aa182cfdae0147319
 **********************************************************************************************************************************

 THRESHOLDS:

 ZERO    =  1.00D-22  ONEINT  =  1.00D-22  TWOINT  =  1.00D-22  PREFAC  =  1.00D-14  LOCALI  =  1.00D-09  EORDER  =  1.00D-04
 ENERGY  =  1.00D-12  ETEST   =  0.00D+00  EDENS   =  0.00D+00  THRDEDEF=  1.00D-06  GRADIENT=  1.00D-02  STEP    =  1.00D-03
 ORBITAL =  1.00D-05  CIVEC   =  1.00D-05  COEFF   =  1.00D-04  PRINTCI =  5.00D-02  PUNCHCI =  9.90D+01  OPTGRAD =  3.00D-04
 OPTENERG=  1.00D-06  OPTSTEP =  3.00D-04  THRGRAD =  1.00D-10  COMPRESS=  1.00D-11  VARMIN  =  1.00D-07  VARMAX  =  1.00D-03
 THRDOUB =  0.00D+00  THRDIV  =  1.00D-05  THRRED  =  1.00D-07  THRPSP  =  1.00D+00  THRDC   =  1.00D-10  THRCS   =  1.00D-10
 THRNRM  =  1.00D-08  THREQ   =  0.00D+00  THRDE   =  1.00D+00  THRREF  =  1.00D-05  SPARFAC =  1.00D+00  THRDLP  =  1.00D-07
 THRDIA  =  1.00D-10  THRDLS  =  1.00D-07  THRGPS  =  0.00D+00  THRKEX  =  0.00D+00  THRDIS  =  2.00D-01  THRVAR  =  1.00D-10
 THRLOC  =  1.00D-06  THRGAP  =  1.00D-06  THRLOCT = -1.00D+00  THRGAPT = -1.00D+00  THRORB  =  1.00D-06  THRMLTP =  0.00D+00
 THRCPQCI=  1.00D-10  KEXTA   =  0.00D+00  THRCOARS=  0.00D+00  SYMTOL  =  1.00D-06  GRADTOL =  1.00D-06  THROVL  =  1.00D-08
 THRORTH =  1.00D-08  GRID    =  1.00D-06  GRIDMAX =  1.00D-03  DTMAX   =  0.00D+00  THROCCDE=  1.00D-01  THROCCDE=  1.00D-01



 THRESHOLDS:

 ZERO    =  1.00D-22  ONEINT  =  1.00D-22  TWOINT  =  1.00D-22  PREFAC  =  1.00D-14  LOCALI  =  1.00D-09  EORDER  =  1.00D-04
 ENERGY  =  1.00D-12  ETEST   =  0.00D+00  EDENS   =  0.00D+00  THRDEDEF=  1.00D-06  GRADIENT=  1.00D-02  STEP    =  1.00D-03
 ORBITAL =  1.00D-05  CIVEC   =  1.00D-05  COEFF   =  1.00D-04  PRINTCI =  5.00D-02  PUNCHCI =  9.90D+01  OPTGRAD =  1.00D-08
 OPTENERG=  1.00D-06  OPTSTEP =  1.00D-08  THRGRAD =  1.00D-10  COMPRESS=  1.00D-11  VARMIN  =  1.00D-07  VARMAX  =  1.00D-03
 THRDOUB =  0.00D+00  THRDIV  =  1.00D-05  THRRED  =  1.00D-07  THRPSP  =  1.00D+00  THRDC   =  1.00D-10  THRCS   =  1.00D-10
 THRNRM  =  1.00D-08  THREQ   =  0.00D+00  THRDE   =  1.00D+00  THRREF  =  1.00D-05  SPARFAC =  1.00D+00  THRDLP  =  1.00D-07
 THRDIA  =  1.00D-10  THRDLS  =  1.00D-07  THRGPS  =  0.00D+00  THRKEX  =  0.00D+00  THRDIS  =  2.00D-01  THRVAR  =  1.00D-10
 THRLOC  =  1.00D-06  THRGAP  =  1.00D-06  THRLOCT = -1.00D+00  THRGAPT = -1.00D+00  THRORB  =  1.00D-06  THRMLTP =  0.00D+00
 THRCPQCI=  1.00D-10  KEXTA   =  0.00D+00  THRCOARS=  0.00D+00  SYMTOL  =  1.00D-06  GRADTOL =  1.00D-06  THROVL  =  1.00D-08
 THRORTH =  1.00D-08  GRID    =  1.00D-06  GRIDMAX =  1.00D-03  DTMAX   =  0.00D+00  THROCCDE=  1.00D-01  THROCCDE=  1.00D-01



 Input parameters for SORTINT:

 COMPRESS =    0.000000
 C_FINAL  =    1.000000
 DEBUG    =   -1.000000
 C_SORT1  =    0.000000
 C_SEWARD =    0.000000
 THRESH   =    0.000000
 IO       =  molpro                                                          
 SPRI     =    0.000000
 SETTING GEOMTYP        =    XYZ
 ZUNIT=BOHR
 

 Variable memory set to  995000000 words,  buffer space   230000 words

 SETTING BASIS          =    AVTZ


 Recomputing integrals since basis changed


 Using spherical harmonics

 Library entry H      S aug-cc-pVTZ          selected for orbital group  1
 Library entry H      P aug-cc-pVTZ          selected for orbital group  1
 Library entry H      D aug-cc-pVTZ          selected for orbital group  1
 Library entry N      S aug-cc-pVTZ          selected for orbital group  2
 Library entry N      P aug-cc-pVTZ          selected for orbital group  2
 Library entry N      D aug-cc-pVTZ          selected for orbital group  2
 Library entry N      F aug-cc-pVTZ          selected for orbital group  2
 Library entry O      S aug-cc-pVTZ          selected for orbital group  3
 Library entry O      P aug-cc-pVTZ          selected for orbital group  3
 Library entry O      D aug-cc-pVTZ          selected for orbital group  3
 Library entry O      F aug-cc-pVTZ          selected for orbital group  3


 PROGRAM * SEWARD (Integral evaluation for generally contracted gaussian basis sets)     Author: Roland Lindh, 1990

 Geometry written to block  1 of record 700


 Point group  Cs  



 ATOMIC COORDINATES

 NR  ATOM    CHARGE       X              Y              Z

   1  H       1.00    0.000000000    1.670162345   -1.923490781
   2  N       7.00    0.000000000   -0.169483870   -1.145205540
   3  O       8.00    0.000000000    0.041089315    1.118106730

 Bond lengths in Bohr (Angstrom)

 1-2  1.997504972  2-3  2.273086777
     ( 1.057034110)     ( 1.202865721)

 Bond angles

  1-2-3  107.61603570

 NUCLEAR CHARGE:                   16
 NUMBER OF PRIMITIVE AOS:         161
 NUMBER OF SYMMETRY AOS:          141
 NUMBER OF CONTRACTIONS:          115   (  76A'  +  39A"  )
 NUMBER OF CORE ORBITALS:           2   (   2A'  +   0A"  )
 NUMBER OF VALENCE ORBITALS:        9   (   7A'  +   2A"  )


 NUCLEAR REPULSION ENERGY   30.45905294

 Eigenvalues of metric

         1 0.231E-03 0.502E-03 0.179E-02 0.212E-02 0.250E-02 0.351E-02 0.431E-02 0.519E-02
         2 0.390E-02 0.102E-01 0.260E-01 0.372E-01 0.513E-01 0.623E-01 0.814E-01 0.119E+00


 Contracted 2-electron integrals neglected if value below      1.0D-22

       10790064. INTEGRALS WRITTEN OUT IN    2635 BLOCKS ON RECORD 1290 OF FILE 1


 NUMBER OF SORTED TWO-ELECTRON INTEGRALS:   11433631.     BUFFER LENGTH:  32768
 NUMBER OF SEGMENTS:   1  SEGMENT LENGTH:   11433631      RECORD LENGTH: 524288

 Memory used in sort:      11.99 MW

 SORT1 READ    10790064. AND WROTE    10943632. INTEGRALS IN     32 RECORDS. CPU TIME:     0.32 SEC, REAL TIME:     0.42 SEC
 SORT2 READ    10943632. AND WROTE    11433631. INTEGRALS IN      1 RECORDS. CPU TIME:     0.24 SEC, REAL TIME:     0.31 SEC

 FILE SIZES:   FILE 1:   193.0 MBYTE,  FILE 4:   134.3 MBYTE,   TOTAL:    327.2 MBYTE

 OPERATOR DM      FOR CENTER  0  COORDINATES:    0.000000    0.000000    0.000000


 **********************************************************************************************************************************
 DATASETS  * FILE   NREC   LENGTH (MB)   RECORD NAMES
              1      19      111.05       500      610      700      900      950      970     1000      129      960     1100   
                                          VAR    BASINP    GEOM    SYMINP    ZMAT    AOBASIS   BASIS     P2S    ABASIS      S 
                                         1400     1410     1200     1210     1080     1600     1650     1300     1700   
                                           T        V       H0       H01     AOSYM     SMH    MOLCAS    ERIS     OPER   

 PROGRAMS   *        TOTAL       INT
 CPU TIMES  *         1.75      1.66
 REAL TIME  *         2.79 SEC
 DISK USED  *       327.55 MB      
 **********************************************************************************************************************************


 PROGRAM * RHF-SCF (CLOSED SHELL)       Authors: W. Meyer, H.-J. Werner


 NUMBER OF ELECTRONS:       8+    8-
 CONVERGENCE THRESHOLDS:    1.00E-10 (Density)    1.00E-13 (Energy)
 MAX. NUMBER OF ITERATIONS:      500
 INTERPOLATION TYPE:            DIIS
 INTERPOLATION STEPS:              2 (START)      1 (STEP)
 LEVEL SHIFTS:                  0.00 (CLOSED)  0.00 (OPEN) 



 Orbital guess generated from atomic densities. Full valence occupancy:    9   2

 Molecular orbital dump at record        2100.2

 Initial occupancy:   7   1

 ITERATION    DDIFF          GRAD             ENERGY        2-EL.EN.            DIPOLE MOMENTS         DIIS   ORB.
    1      0.000D+00      0.000D+00      -129.78926759    154.055239    0.00000    0.58144   -1.00373    0    start
    2      0.000D+00      0.107D-01      -129.81688886    155.337915    0.00000    0.60749   -0.20761    1    diag
    3      0.118D-01      0.813D-02      -129.83895007    155.436910    0.00000    0.55091   -0.58206    2    diag
    4      0.587D-02      0.127D-02      -129.83973006    155.152096    0.00000    0.55873   -0.52316    3    diag
    5      0.106D-02      0.419D-03      -129.83985491    155.245838    0.00000    0.56433   -0.52604    4    diag
    6      0.447D-03      0.121D-03      -129.83987487    155.230272    0.00000    0.56472   -0.52204    5    diag
    7      0.172D-03      0.598D-04      -129.83988053    155.232855    0.00000    0.56600   -0.51954    6    diag
    8      0.118D-03      0.200D-04      -129.83988111    155.232211    0.00000    0.56603   -0.51859    7    diag
    9      0.429D-04      0.377D-05      -129.83988114    155.232106    0.00000    0.56599   -0.51838    8    diag
   10      0.818D-05      0.865D-06      -129.83988114    155.232087    0.00000    0.56596   -0.51835    9    orth
   11      0.169D-05      0.174D-06      -129.83988114    155.232084    0.00000    0.56595   -0.51835    9    diag
   12      0.334D-06      0.358D-07      -129.83988114    155.232084    0.00000    0.56595   -0.51835    9    diag
   13      0.727D-07      0.897D-08      -129.83988114    155.232083    0.00000    0.56595   -0.51835    9    diag
   14      0.189D-07      0.187D-08      -129.83988114    155.232083    0.00000    0.56595   -0.51835    9    diag
   15      0.380D-08      0.530D-09      -129.83988114    155.232083    0.00000    0.56595   -0.51835    9    diag
   16      0.104D-08      0.148D-09      -129.83988114    155.232083    0.00000    0.56595   -0.51835    9    diag
   17      0.192D-09      0.437D-10      -129.83988114    155.232083    0.00000    0.56595   -0.51835    9    diag
   18      0.556D-10      0.156D-10      -129.83988114    155.232083    0.00000    0.56595   -0.51835    9    diag
   19      0.280D-10      0.347D-11      -129.83988114    155.232083    0.00000    0.56595   -0.51835    9    fixocc
   20      0.673D-11      0.572D-12      -129.83988114    155.232083    0.00000    0.56595   -0.51835    9    orth
   21      0.124D-11      0.185D-12      -129.83988114    155.232083    0.00000    0.56595   -0.51835    9    diag
   22      0.923D-12      0.767D-13      -129.83988114    155.232083    0.00000    0.56595   -0.51835    9    diag
   23      0.737D-12      0.561D-13      -129.83988114    155.232083    0.00000    0.56595   -0.51835    9    diag
   24      0.313D-12      0.424D-13      -129.83988114    155.232083    0.00000    0.56595   -0.51835    0    orth

 Final occupancy:   7   1

 !RHF STATE 1.1 Energy               -129.839881139103
 Nuclear energy                        30.45905294
 One-electron energy                 -237.91497576
 Two-electron energy                   77.61604168
 Virial quotient                       -1.00204213
 !RHF STATE 1.1 Dipole moment           0.00000000     0.56594804    -0.51834585
 Dipole moment /Debye                   0.00000000     1.43840222    -1.31741744

 Orbital energies:

         1.1          2.1          3.1          4.1          5.1          6.1          7.1          8.1          9.1
    -20.656023   -15.714371    -1.535216    -0.992250    -0.748363    -0.667449    -0.428958     0.029299     0.092216

         1.2          2.2          3.2
     -0.598816     0.066379     0.130442

 HOMO      7.1    -0.428958 =     -11.6725eV
 LUMO      8.1     0.029299 =       0.7973eV
 LUMO-HOMO         0.458257 =      12.4698eV


 **********************************************************************************************************************************
 DATASETS  * FILE   NREC   LENGTH (MB)   RECORD NAMES
              1      19      111.05       500      610      700      900      950      970     1000      129      960     1100   
                                          VAR    BASINP    GEOM    SYMINP    ZMAT    AOBASIS   BASIS     P2S    ABASIS      S 
                                         1400     1410     1200     1210     1080     1600     1650     1300     1700   
                                           T        V       H0       H01     AOSYM     SMH    MOLCAS    ERIS     OPER   

              2       4        2.94       700     1000      520     2100   
                                         GEOM     BASIS   MCVARS     RHF  

 PROGRAMS   *        TOTAL        HF       INT
 CPU TIMES  *         3.42      1.67      1.66
 REAL TIME  *         4.90 SEC
 DISK USED  *       327.55 MB      
 **********************************************************************************************************************************


 PROGRAM * CCSD (Closed-shell coupled cluster)     Authors: C. Hampel, H.-J. Werner, 1991, M. Deegan, P.J. Knowles, 1992


 Convergence thresholds:  THRVAR = 1.00D-08  THRDEN = 1.00D-12

 CCSD(T)     terms to be evaluated (factor= 1.000)


 Number of core orbitals:           2 (   2   0 )
 Number of closed-shell orbitals:   6 (   5   1 )
 Number of external orbitals:     107 (  69  38 )

 Molecular orbitals read from record     2100.2  Type=RHF/CANONICAL (state 1.1)

 Number of N-1 electron functions:               6
 Number of N-2 electron functions:              21
 Number of singly external CSFs:               383
 Number of doubly external CSFs:            107206
 Total number of CSFs:                      107590

 Length of J-op  integral file:               0.00 MB
 Length of K-op  integral file:               0.54 MB
 Length of 3-ext integral record:             0.00 MB

 Memory could be reduced to 5.94 Mwords without degradation in triples

 Integral transformation finished. Total CPU:   0.20 sec, npass=  1  Memory used:   1.65 MW

 Reference energy:                   -129.83988114

 MP2 singlet pair energy:              -0.27902582
 MP2 triplet pair energy:              -0.16489492
 MP2 correlation energy:               -0.44392074
 MP2 total energy:                   -130.28380188

 SCS-MP2 correlation energy:           -0.43743227   (PS=  1.200000  PT=  0.333333)
 SCS-MP2 total energy:               -130.27731341

 ITER.      SQ.NORM     CORR.ENERGY   TOTAL ENERGY   ENERGY CHANGE        DEN1      VAR(S)    VAR(P)  DIIS     TIME  TIME/IT
   1      1.12054764    -0.44821467  -130.28809581    -0.00429393     0.01159249  0.31D-02  0.31D-02  1  1     0.42     0.25
   2      1.13157014    -0.44844999  -130.28833112    -0.00023532    -0.01234242  0.98D-04  0.51D-03  2  2     0.65     0.26
   3      1.13797553    -0.44884377  -130.28872491    -0.00039379    -0.00297833  0.52D-04  0.50D-04  3  3     0.89     0.26
   4      1.14080363    -0.44885451  -130.28873565    -0.00001074    -0.00096162  0.41D-05  0.90D-05  4  4     1.11     0.26
   5      1.14182463    -0.44888256  -130.28876370    -0.00002805    -0.00021665  0.11D-05  0.16D-05  5  5     1.33     0.26
   6      1.14215929    -0.44886620  -130.28874734     0.00001636    -0.00004079  0.10D-06  0.39D-06  6  6     1.56     0.26
   7      1.14223357    -0.44886719  -130.28874833    -0.00000099    -0.00000191  0.20D-07  0.89D-07  6  1     1.80     0.26
   8      1.14225511    -0.44886788  -130.28874902    -0.00000069     0.00000141  0.36D-08  0.16D-07  6  2     2.05     0.26
   9      1.14226047    -0.44886743  -130.28874857     0.00000044     0.00000044  0.26D-08  0.18D-08  6  4     2.30     0.26
  10      1.14226271    -0.44886790  -130.28874904    -0.00000047    -0.00000069  0.42D-09  0.20D-09  6  3     2.53     0.26
  11      1.14226221    -0.44886793  -130.28874907    -0.00000002    -0.00000006  0.15D-09  0.31D-10  6  5     2.75     0.26
  12      1.14226117    -0.44886807  -130.28874921    -0.00000015     0.00000033  0.17D-10  0.10D-10  6  6     2.98     0.26
  13      1.14226035    -0.44886811  -130.28874925    -0.00000003     0.00000021  0.61D-11  0.20D-11  6  1     3.22     0.26
  14      1.14225982    -0.44886814  -130.28874927    -0.00000003     0.00000013  0.98D-12  0.64D-12  6  2     3.46     0.26
  15      1.14225960    -0.44886814  -130.28874928    -0.00000001     0.00000003  0.27D-12  0.20D-12  6  4     3.71     0.26
  16      1.14225951    -0.44886814  -130.28874928    -0.00000000     0.00000001  0.51D-13  0.71D-13  6  3     3.93     0.26
  17      1.14225946    -0.44886815  -130.28874929    -0.00000000     0.00000001  0.36D-14  0.17D-13  6  5     4.17     0.26
  18      1.14225945    -0.44886815  -130.28874929     0.00000000    -0.00000000  0.12D-14  0.35D-14  6  6     4.41     0.26
  19      1.14225945    -0.44886815  -130.28874929    -0.00000000     0.00000000  0.10D-14  0.63D-15  6  1     4.64     0.26
  20      1.14225945    -0.44886815  -130.28874929     0.00000000    -0.00000000  0.21D-15  0.11D-15  6  2     4.86     0.27
  21      1.14225945    -0.44886815  -130.28874929     0.00000000    -0.00000000  0.50D-16  0.29D-16  6  3     5.12     0.27
  22      1.14225945    -0.44886815  -130.28874929     0.00000000     0.00000000  0.57D-17  0.26D-17  6  4     5.35     0.27
  23      1.14225945    -0.44886815  -130.28874929     0.00000000    -0.00000000  0.21D-17  0.53D-18  6  5     5.61     0.27
  24      1.14225945    -0.44886815  -130.28874929     0.00000000     0.00000000  0.14D-18  0.45D-19  6  2     5.84     0.27
  25      1.14225945    -0.44886815  -130.28874929    -0.00000000    -0.00000000  0.20D-19  0.11D-19  6  6     6.08     0.27
  26      1.14225945    -0.44886815  -130.28874929     0.00000000    -0.00000000  0.32D-20  0.19D-20  6  1     6.32     0.27
  27      1.14225945    -0.44886815  -130.28874929    -0.00000000    -0.00000000  0.45D-21  0.44D-21  6  4     6.56     0.27

 Norm of t1 vector:      0.07767877      S-energy:    -0.00000000      T1 diagnostic:  0.01585611
                                                                       D1 diagnostic:  0.04137254

 Doubles amplitudes (print threshold =  0.500E-01):

         I         J         SYM. A    SYM. B    A         B      T(IJ, AB)

         6         6         2         2         1         1     -0.10661731


 Total CPU time for triples:      2.06 sec


 RESULTS
 =======

  Reference energy                   -129.839881139103
  CCSD singlet pair energy             -0.307675584702
  CCSD triplet pair energy             -0.141192562065
  CCSD correlation energy              -0.448868146768

  Triples (T) contribution             -0.020782689478
  Total correlation energy             -0.469650836245

  CCSD total energy                  -130.288749285871
  CCSD[T] energy                     -130.310578966151
  CCSD-T energy                      -130.309131522859
 !CCSD(T) total energy               -130.309531975348

 Timing summary (sec):

 STEP                 CPU(USER)    SYS     CPU(TOT)    WALL
 Transformation          0.21      0.06      0.27      0.28
 CCSD iterations         6.36      0.84      7.20      7.21
 Triples                 2.06      0.08      2.14      2.13

 Program statistics:

 Available memory in ccsd:               994999756
 Min. memory needed in ccsd:                389120
 Max. memory used in ccsd:                  473124
 Max. memory used in cckext:                599488 (27 integral passes)



 **********************************************************************************************************************************
 DATASETS  * FILE   NREC   LENGTH (MB)   RECORD NAMES
              1      20      128.20       500      610      700      900      950      970     1000      129      960     1100   
                                          VAR    BASINP    GEOM    SYMINP    ZMAT    AOBASIS   BASIS     P2S    ABASIS      S 
                                         1400     1410     1200     1210     1080     1600     1650     1300     1700     1380   
                                           T        V       H0       H01     AOSYM     SMH    MOLCAS    ERIS     OPER     JKOP   

              2       4        2.94       700     1000      520     2100   
                                         GEOM     BASIS   MCVARS     RHF  

 PROGRAMS   *        TOTAL   CCSD(T)        HF       INT
 CPU TIMES  *        12.06      8.64      1.67      1.66
 REAL TIME  *        14.56 SEC
 DISK USED  *       327.55 MB      
 **********************************************************************************************************************************

 CCSD(T)/aug-cc-pVTZ energy=   -130.309531975348

        CCSD(T)         HF-SCF  
   -130.30953198   -129.83988114
 **********************************************************************************************************************************
 Molpro calculation terminated
 Variable memory released
