
 Primary working directories    : /tmp/r2666/282197.maple
 Secondary working directories  : /tmp/r2666/282197.maple
 Wavefunction directory         : /ddn/home4/r2666/wfu/
 Main file repository           : /tmp/r2666/282197.maple/

 SHA1      : d5ffa45e93fdbca01ffc919aa182cfdae0147319
 NAME      : 2015.1.35
 ARCHNAME  : linux/x86_64
 FC        : /opt/intel/composer_xe_2015.1.133/bin/intel64/ifort
 BLASLIB   : -Wl,-_start-group /opt/intel/mkl/lib/intel64/libmkl_intel_ilp64.a /opt/intel/mkl/lib/intel64/libmkl_intel_thread.a /opt/intel/mkl/lib/intel64/libmkl_core.a -Wl,-_end-group
 id        : olemiss

 Nodes     nprocs
 cn089        1

 Using customized tuning parameters: mindgm=1; mindgv=20; mindgc=4; mindgr=1; noblas=0; minvec=7
 default implementation of scratch files=df  

 ***,hno CCSD(T)/TZ-F12 QFF
 memory, 995, m;
 gthresh,energy=1.d-12,zero=1.d-22,oneint=1.d-22,twoint=1.d-22;
 gthresh,optgrad=1.d-8,optstep=1.d-8;
 nocompress;
 geomtyp=xyz
 bohr
 geometry={
 3
         94        94
 H        0.0000000000        1.6709964600       -1.9377101618
 N        0.0000000000       -0.1598676587       -1.1389844941
 O        0.0000000000        0.0306389887        1.1261050650
 }
 
 basis=avtz
   {hf,maxit=500;accu,20;}
 {ccsd(t),nocheck,maxit=250;orbital,IGNORE_ERROR;}

 Variables initialized (889), CPU time= 0.01 sec
 Commands  initialized (702), CPU time= 0.01 sec, 572 directives.
 Default parameters read. Elapsed time= 0.04 sec

 Checking input...
 Passed
1


                                         ***  PROGRAM SYSTEM MOLPRO  ***
                                       Copyright, TTI GmbH Stuttgart, 2015
                                    Version 2015.1 linked Jul  9 2018 13:16:40


 **********************************************************************************************************************************
 LABEL *   hno CCSD(T)/TZ-F12 QFF                                                        
  64 bit serial version                                                                  DATE: 04-Mar-20          TIME: 13:46:38  
 **********************************************************************************************************************************

 SHA1:             d5ffa45e93fdbca01ffc919aa182cfdae0147319
 **********************************************************************************************************************************

 THRESHOLDS:

 ZERO    =  1.00D-22  ONEINT  =  1.00D-22  TWOINT  =  1.00D-22  PREFAC  =  1.00D-14  LOCALI  =  1.00D-09  EORDER  =  1.00D-04
 ENERGY  =  1.00D-12  ETEST   =  0.00D+00  EDENS   =  0.00D+00  THRDEDEF=  1.00D-06  GRADIENT=  1.00D-02  STEP    =  1.00D-03
 ORBITAL =  1.00D-05  CIVEC   =  1.00D-05  COEFF   =  1.00D-04  PRINTCI =  5.00D-02  PUNCHCI =  9.90D+01  OPTGRAD =  3.00D-04
 OPTENERG=  1.00D-06  OPTSTEP =  3.00D-04  THRGRAD =  1.00D-10  COMPRESS=  1.00D-11  VARMIN  =  1.00D-07  VARMAX  =  1.00D-03
 THRDOUB =  0.00D+00  THRDIV  =  1.00D-05  THRRED  =  1.00D-07  THRPSP  =  1.00D+00  THRDC   =  1.00D-10  THRCS   =  1.00D-10
 THRNRM  =  1.00D-08  THREQ   =  0.00D+00  THRDE   =  1.00D+00  THRREF  =  1.00D-05  SPARFAC =  1.00D+00  THRDLP  =  1.00D-07
 THRDIA  =  1.00D-10  THRDLS  =  1.00D-07  THRGPS  =  0.00D+00  THRKEX  =  0.00D+00  THRDIS  =  2.00D-01  THRVAR  =  1.00D-10
 THRLOC  =  1.00D-06  THRGAP  =  1.00D-06  THRLOCT = -1.00D+00  THRGAPT = -1.00D+00  THRORB  =  1.00D-06  THRMLTP =  0.00D+00
 THRCPQCI=  1.00D-10  KEXTA   =  0.00D+00  THRCOARS=  0.00D+00  SYMTOL  =  1.00D-06  GRADTOL =  1.00D-06  THROVL  =  1.00D-08
 THRORTH =  1.00D-08  GRID    =  1.00D-06  GRIDMAX =  1.00D-03  DTMAX   =  0.00D+00  THROCCDE=  1.00D-01  THROCCDE=  1.00D-01



 THRESHOLDS:

 ZERO    =  1.00D-22  ONEINT  =  1.00D-22  TWOINT  =  1.00D-22  PREFAC  =  1.00D-14  LOCALI  =  1.00D-09  EORDER  =  1.00D-04
 ENERGY  =  1.00D-12  ETEST   =  0.00D+00  EDENS   =  0.00D+00  THRDEDEF=  1.00D-06  GRADIENT=  1.00D-02  STEP    =  1.00D-03
 ORBITAL =  1.00D-05  CIVEC   =  1.00D-05  COEFF   =  1.00D-04  PRINTCI =  5.00D-02  PUNCHCI =  9.90D+01  OPTGRAD =  1.00D-08
 OPTENERG=  1.00D-06  OPTSTEP =  1.00D-08  THRGRAD =  1.00D-10  COMPRESS=  1.00D-11  VARMIN  =  1.00D-07  VARMAX  =  1.00D-03
 THRDOUB =  0.00D+00  THRDIV  =  1.00D-05  THRRED  =  1.00D-07  THRPSP  =  1.00D+00  THRDC   =  1.00D-10  THRCS   =  1.00D-10
 THRNRM  =  1.00D-08  THREQ   =  0.00D+00  THRDE   =  1.00D+00  THRREF  =  1.00D-05  SPARFAC =  1.00D+00  THRDLP  =  1.00D-07
 THRDIA  =  1.00D-10  THRDLS  =  1.00D-07  THRGPS  =  0.00D+00  THRKEX  =  0.00D+00  THRDIS  =  2.00D-01  THRVAR  =  1.00D-10
 THRLOC  =  1.00D-06  THRGAP  =  1.00D-06  THRLOCT = -1.00D+00  THRGAPT = -1.00D+00  THRORB  =  1.00D-06  THRMLTP =  0.00D+00
 THRCPQCI=  1.00D-10  KEXTA   =  0.00D+00  THRCOARS=  0.00D+00  SYMTOL  =  1.00D-06  GRADTOL =  1.00D-06  THROVL  =  1.00D-08
 THRORTH =  1.00D-08  GRID    =  1.00D-06  GRIDMAX =  1.00D-03  DTMAX   =  0.00D+00  THROCCDE=  1.00D-01  THROCCDE=  1.00D-01



 Input parameters for SORTINT:

 COMPRESS =    0.000000
 C_FINAL  =    1.000000
 DEBUG    =   -1.000000
 C_SORT1  =    0.000000
 C_SEWARD =    0.000000
 THRESH   =    0.000000
 IO       =  molpro                                                          
 SPRI     =    0.000000
 SETTING GEOMTYP        =    XYZ
 ZUNIT=BOHR
 

 Variable memory set to  995000000 words,  buffer space   230000 words

 SETTING BASIS          =    AVTZ


 Recomputing integrals since basis changed


 Using spherical harmonics

 Library entry H      S aug-cc-pVTZ          selected for orbital group  1
 Library entry H      P aug-cc-pVTZ          selected for orbital group  1
 Library entry H      D aug-cc-pVTZ          selected for orbital group  1
 Library entry N      S aug-cc-pVTZ          selected for orbital group  2
 Library entry N      P aug-cc-pVTZ          selected for orbital group  2
 Library entry N      D aug-cc-pVTZ          selected for orbital group  2
 Library entry N      F aug-cc-pVTZ          selected for orbital group  2
 Library entry O      S aug-cc-pVTZ          selected for orbital group  3
 Library entry O      P aug-cc-pVTZ          selected for orbital group  3
 Library entry O      D aug-cc-pVTZ          selected for orbital group  3
 Library entry O      F aug-cc-pVTZ          selected for orbital group  3


 PROGRAM * SEWARD (Integral evaluation for generally contracted gaussian basis sets)     Author: Roland Lindh, 1990

 Geometry written to block  1 of record 700


 Point group  Cs  



 ATOMIC COORDINATES

 NR  ATOM    CHARGE       X              Y              Z

   1  H       1.00    0.000000000    1.670996460   -1.937710162
   2  N       7.00    0.000000000   -0.159867659   -1.138984494
   3  O       8.00    0.000000000    0.030638989    1.126105065

 Bond lengths in Bohr (Angstrom)

 1-2  1.997504972  2-3  2.273086776
     ( 1.057034110)     ( 1.202865721)

 Bond angles

  1-2-3  108.76195129

 NUCLEAR CHARGE:                   16
 NUMBER OF PRIMITIVE AOS:         161
 NUMBER OF SYMMETRY AOS:          141
 NUMBER OF CONTRACTIONS:          115   (  76A'  +  39A"  )
 NUMBER OF CORE ORBITALS:           2   (   2A'  +   0A"  )
 NUMBER OF VALENCE ORBITALS:        9   (   7A'  +   2A"  )


 NUCLEAR REPULSION ENERGY   30.44243181

 Eigenvalues of metric

         1 0.231E-03 0.498E-03 0.181E-02 0.213E-02 0.249E-02 0.350E-02 0.433E-02 0.516E-02
         2 0.389E-02 0.102E-01 0.260E-01 0.370E-01 0.509E-01 0.623E-01 0.808E-01 0.120E+00


 Contracted 2-electron integrals neglected if value below      1.0D-22

       10790064. INTEGRALS WRITTEN OUT IN    2635 BLOCKS ON RECORD 1290 OF FILE 1


 NUMBER OF SORTED TWO-ELECTRON INTEGRALS:   11433631.     BUFFER LENGTH:  32768
 NUMBER OF SEGMENTS:   1  SEGMENT LENGTH:   11433631      RECORD LENGTH: 524288

 Memory used in sort:      11.99 MW

 SORT1 READ    10790064. AND WROTE    10943632. INTEGRALS IN     32 RECORDS. CPU TIME:     0.16 SEC, REAL TIME:     0.22 SEC
 SORT2 READ    10943632. AND WROTE    11433631. INTEGRALS IN      1 RECORDS. CPU TIME:     0.15 SEC, REAL TIME:     0.22 SEC

 FILE SIZES:   FILE 1:   193.0 MBYTE,  FILE 4:   134.3 MBYTE,   TOTAL:    327.2 MBYTE

 OPERATOR DM      FOR CENTER  0  COORDINATES:    0.000000    0.000000    0.000000


 **********************************************************************************************************************************
 DATASETS  * FILE   NREC   LENGTH (MB)   RECORD NAMES
              1      19      111.05       500      610      700      900      950      970     1000      129      960     1100   
                                          VAR    BASINP    GEOM    SYMINP    ZMAT    AOBASIS   BASIS     P2S    ABASIS      S 
                                         1400     1410     1200     1210     1080     1600     1650     1300     1700   
                                           T        V       H0       H01     AOSYM     SMH    MOLCAS    ERIS     OPER   

 PROGRAMS   *        TOTAL       INT
 CPU TIMES  *         1.28      1.18
 REAL TIME  *         2.03 SEC
 DISK USED  *       327.55 MB      
 **********************************************************************************************************************************


 PROGRAM * RHF-SCF (CLOSED SHELL)       Authors: W. Meyer, H.-J. Werner


 NUMBER OF ELECTRONS:       8+    8-
 CONVERGENCE THRESHOLDS:    1.00E-10 (Density)    1.00E-13 (Energy)
 MAX. NUMBER OF ITERATIONS:      500
 INTERPOLATION TYPE:            DIIS
 INTERPOLATION STEPS:              2 (START)      1 (STEP)
 LEVEL SHIFTS:                  0.00 (CLOSED)  0.00 (OPEN) 



 Orbital guess generated from atomic densities. Full valence occupancy:    9   2

 Molecular orbital dump at record        2100.2

 Initial occupancy:   7   1

 ITERATION    DDIFF          GRAD             ENERGY        2-EL.EN.            DIPOLE MOMENTS         DIIS   ORB.
    1      0.000D+00      0.000D+00      -129.78939494    154.019834    0.00000    0.59128   -1.00619    0    start
    2      0.000D+00      0.107D-01      -129.81699235    155.308207    0.00000    0.60672   -0.21237    1    diag
    3      0.118D-01      0.811D-02      -129.83895368    155.405883    0.00000    0.55528   -0.58655    2    diag
    4      0.585D-02      0.127D-02      -129.83973636    155.120501    0.00000    0.56254   -0.52733    3    diag
    5      0.107D-02      0.418D-03      -129.83986090    155.214600    0.00000    0.56825   -0.53033    4    diag
    6      0.447D-03      0.121D-03      -129.83988076    155.199063    0.00000    0.56867   -0.52633    5    diag
    7      0.171D-03      0.596D-04      -129.83988637    155.201643    0.00000    0.56995   -0.52386    6    diag
    8      0.117D-03      0.200D-04      -129.83988695    155.201007    0.00000    0.56998   -0.52290    7    diag
    9      0.428D-04      0.378D-05      -129.83988698    155.200901    0.00000    0.56995   -0.52269    8    diag
   10      0.820D-05      0.874D-06      -129.83988698    155.200881    0.00000    0.56991   -0.52267    9    orth
   11      0.172D-05      0.175D-06      -129.83988698    155.200878    0.00000    0.56991   -0.52266    9    diag
   12      0.337D-06      0.357D-07      -129.83988698    155.200877    0.00000    0.56990   -0.52266    9    diag
   13      0.725D-07      0.893D-08      -129.83988698    155.200877    0.00000    0.56990   -0.52266    9    diag
   14      0.188D-07      0.187D-08      -129.83988698    155.200877    0.00000    0.56990   -0.52266    9    diag
   15      0.380D-08      0.528D-09      -129.83988698    155.200877    0.00000    0.56990   -0.52266    9    diag
   16      0.103D-08      0.147D-09      -129.83988698    155.200877    0.00000    0.56990   -0.52266    9    diag
   17      0.189D-09      0.425D-10      -129.83988698    155.200877    0.00000    0.56990   -0.52266    9    diag
   18      0.537D-10      0.152D-10      -129.83988698    155.200877    0.00000    0.56990   -0.52266    0    orth

 Final occupancy:   7   1

 !RHF STATE 1.1 Energy               -129.839886979838
 Nuclear energy                        30.44243181
 One-electron energy                 -237.88275734
 Two-electron energy                   77.60043855
 Virial quotient                       -1.00207636
 !RHF STATE 1.1 Dipole moment           0.00000000     0.56990317    -0.52266128
 Dipole moment /Debye                   0.00000000     1.44845450    -1.32838545

 Orbital energies:

         1.1          2.1          3.1          4.1          5.1          6.1          7.1          8.1          9.1
    -20.656322   -15.714167    -1.534642    -0.992951    -0.748298    -0.667689    -0.428197     0.029202     0.092153

         1.2          2.2          3.2
     -0.598673     0.066205     0.130411

 HOMO      7.1    -0.428197 =     -11.6518eV
 LUMO      8.1     0.029202 =       0.7946eV
 LUMO-HOMO         0.457400 =      12.4465eV


 **********************************************************************************************************************************
 DATASETS  * FILE   NREC   LENGTH (MB)   RECORD NAMES
              1      19      111.05       500      610      700      900      950      970     1000      129      960     1100   
                                          VAR    BASINP    GEOM    SYMINP    ZMAT    AOBASIS   BASIS     P2S    ABASIS      S 
                                         1400     1410     1200     1210     1080     1600     1650     1300     1700   
                                           T        V       H0       H01     AOSYM     SMH    MOLCAS    ERIS     OPER   

              2       4        2.94       700     1000      520     2100   
                                         GEOM     BASIS   MCVARS     RHF  

 PROGRAMS   *        TOTAL        HF       INT
 CPU TIMES  *         2.22      0.94      1.18
 REAL TIME  *         3.17 SEC
 DISK USED  *       327.55 MB      
 **********************************************************************************************************************************


 PROGRAM * CCSD (Closed-shell coupled cluster)     Authors: C. Hampel, H.-J. Werner, 1991, M. Deegan, P.J. Knowles, 1992


 Convergence thresholds:  THRVAR = 1.00D-08  THRDEN = 1.00D-12

 CCSD(T)     terms to be evaluated (factor= 1.000)


 Number of core orbitals:           2 (   2   0 )
 Number of closed-shell orbitals:   6 (   5   1 )
 Number of external orbitals:     107 (  69  38 )

 Molecular orbitals read from record     2100.2  Type=RHF/CANONICAL (state 1.1)

 Number of N-1 electron functions:               6
 Number of N-2 electron functions:              21
 Number of singly external CSFs:               383
 Number of doubly external CSFs:            107206
 Total number of CSFs:                      107590

 Length of J-op  integral file:               0.00 MB
 Length of K-op  integral file:               0.54 MB
 Length of 3-ext integral record:             0.00 MB

 Memory could be reduced to 5.94 Mwords without degradation in triples

 Integral transformation finished. Total CPU:   0.15 sec, npass=  1  Memory used:   1.65 MW

 Reference energy:                   -129.83988698

 MP2 singlet pair energy:              -0.27902699
 MP2 triplet pair energy:              -0.16490164
 MP2 correlation energy:               -0.44392863
 MP2 total energy:                   -130.28381561

 SCS-MP2 correlation energy:           -0.43743785   (PS=  1.200000  PT=  0.333333)
 SCS-MP2 total energy:               -130.27732483

 ITER.      SQ.NORM     CORR.ENERGY   TOTAL ENERGY   ENERGY CHANGE        DEN1      VAR(S)    VAR(P)  DIIS     TIME  TIME/IT
   1      1.12058270    -0.44822061  -130.28810759    -0.00429198     0.01161946  0.31D-02  0.31D-02  1  1     0.30     0.16
   2      1.13162388    -0.44845096  -130.28833794    -0.00023035    -0.01235481  0.99D-04  0.51D-03  2  2     0.46     0.16
   3      1.13805201    -0.44884776  -130.28873474    -0.00039680    -0.00298111  0.53D-04  0.50D-04  3  3     0.61     0.16
   4      1.14089520    -0.44885769  -130.28874467    -0.00000993    -0.00096497  0.42D-05  0.91D-05  4  4     0.75     0.16
   5      1.14193284    -0.44888599  -130.28877297    -0.00002830    -0.00021988  0.11D-05  0.16D-05  5  5     0.90     0.16
   6      1.14227397    -0.44886955  -130.28875653     0.00001644    -0.00004132  0.10D-06  0.40D-06  6  6     1.03     0.16
   7      1.14235070    -0.44887050  -130.28875748    -0.00000095    -0.00000207  0.20D-07  0.92D-07  6  1     1.16     0.16
   8      1.14237287    -0.44887124  -130.28875822    -0.00000074     0.00000134  0.38D-08  0.17D-07  6  2     1.29     0.16
   9      1.14237842    -0.44887078  -130.28875776     0.00000046     0.00000049  0.27D-08  0.18D-08  6  4     1.44     0.16
  10      1.14238072    -0.44887127  -130.28875825    -0.00000048    -0.00000071  0.45D-09  0.21D-09  6  3     1.57     0.16
  11      1.14238019    -0.44887129  -130.28875827    -0.00000003    -0.00000006  0.15D-09  0.33D-10  6  5     1.72     0.16
  12      1.14237912    -0.44887144  -130.28875842    -0.00000015     0.00000034  0.18D-10  0.11D-10  6  6     1.87     0.16
  13      1.14237827    -0.44887148  -130.28875846    -0.00000004     0.00000022  0.64D-11  0.21D-11  6  1     2.01     0.16
  14      1.14237772    -0.44887150  -130.28875848    -0.00000003     0.00000014  0.10D-11  0.68D-12  6  2     2.14     0.16
  15      1.14237750    -0.44887151  -130.28875849    -0.00000001     0.00000003  0.29D-12  0.21D-12  6  4     2.29     0.16
  16      1.14237737    -0.44887151  -130.28875849    -0.00000000     0.00000002  0.38D-13  0.26D-13  6  5     2.43     0.16
  17      1.14237734    -0.44887152  -130.28875850    -0.00000000     0.00000000  0.67D-15  0.18D-14  6  3     2.57     0.16
  18      1.14237734    -0.44887152  -130.28875850     0.00000000    -0.00000000  0.22D-15  0.25D-15  6  6     2.70     0.16
  19      1.14237734    -0.44887152  -130.28875850     0.00000000    -0.00000000  0.64D-16  0.35D-16  6  1     2.84     0.16
  20      1.14237734    -0.44887152  -130.28875850     0.00000000    -0.00000000  0.17D-16  0.58D-17  6  2     2.98     0.16
  21      1.14237734    -0.44887152  -130.28875850     0.00000000    -0.00000000  0.29D-17  0.16D-17  6  5     3.14     0.16
  22      1.14237734    -0.44887152  -130.28875850    -0.00000000     0.00000000  0.30D-18  0.18D-18  6  4     3.29     0.16
  23      1.14237734    -0.44887152  -130.28875850     0.00000000     0.00000000  0.10D-18  0.38D-19  6  3     3.43     0.16
  24      1.14237734    -0.44887152  -130.28875850     0.00000000     0.00000000  0.11D-19  0.54D-20  6  2     3.58     0.16
  25      1.14237734    -0.44887152  -130.28875850     0.00000000    -0.00000000  0.17D-20  0.90D-21  6  6     3.73     0.16
  26      1.14237734    -0.44887152  -130.28875850     0.00000000    -0.00000000  0.43D-21  0.22D-21  6  1     3.86     0.16

 Norm of t1 vector:      0.07801161      S-energy:     0.00000000      T1 diagnostic:  0.01592405
                                                                       D1 diagnostic:  0.04147623

 Doubles amplitudes (print threshold =  0.500E-01):

         I         J         SYM. A    SYM. B    A         B      T(IJ, AB)

         6         6         2         2         1         1     -0.10661995


 Total CPU time for triples:      1.11 sec


 RESULTS
 =======

  Reference energy                   -129.839886979839
  CCSD singlet pair energy             -0.307677464037
  CCSD triplet pair energy             -0.141194052792
  CCSD correlation energy              -0.448871516827

  Triples (T) contribution             -0.020796359006
  Total correlation energy             -0.469667875833

  CCSD total energy                  -130.288758496666
  CCSD[T] energy                     -130.310608307387
  CCSD-T energy                      -130.309152779199
 !CCSD(T) total energy               -130.309554855671

 Timing summary (sec):

 STEP                 CPU(USER)    SYS     CPU(TOT)    WALL
 Transformation          0.16      0.02      0.18      0.17
 CCSD iterations         3.70      0.56      4.26      4.27
 Triples                 1.11      0.05      1.16      1.15

 Program statistics:

 Available memory in ccsd:               994999756
 Min. memory needed in ccsd:                389120
 Max. memory used in ccsd:                  473124
 Max. memory used in cckext:                599488 (26 integral passes)



 **********************************************************************************************************************************
 DATASETS  * FILE   NREC   LENGTH (MB)   RECORD NAMES
              1      20      128.20       500      610      700      900      950      970     1000      129      960     1100   
                                          VAR    BASINP    GEOM    SYMINP    ZMAT    AOBASIS   BASIS     P2S    ABASIS      S 
                                         1400     1410     1200     1210     1080     1600     1650     1300     1700     1380   
                                           T        V       H0       H01     AOSYM     SMH    MOLCAS    ERIS     OPER     JKOP   

              2       4        2.94       700     1000      520     2100   
                                         GEOM     BASIS   MCVARS     RHF  

 PROGRAMS   *        TOTAL   CCSD(T)        HF       INT
 CPU TIMES  *         7.22      5.00      0.94      1.18
 REAL TIME  *         8.82 SEC
 DISK USED  *       327.55 MB      
 **********************************************************************************************************************************

 CCSD(T)/aug-cc-pVTZ energy=   -130.309554855671

        CCSD(T)         HF-SCF  
   -130.30955486   -129.83988698
 **********************************************************************************************************************************
 Molpro calculation terminated
 Variable memory released
