
 Primary working directories    : /tmp/r2666/282147.maple
 Secondary working directories  : /tmp/r2666/282147.maple
 Wavefunction directory         : /ddn/home4/r2666/wfu/
 Main file repository           : /tmp/r2666/282147.maple/

 SHA1      : d5ffa45e93fdbca01ffc919aa182cfdae0147319
 NAME      : 2015.1.35
 ARCHNAME  : linux/x86_64
 FC        : /opt/intel/composer_xe_2015.1.133/bin/intel64/ifort
 BLASLIB   : -Wl,-_start-group /opt/intel/mkl/lib/intel64/libmkl_intel_ilp64.a /opt/intel/mkl/lib/intel64/libmkl_intel_thread.a /opt/intel/mkl/lib/intel64/libmkl_core.a -Wl,-_end-group
 id        : olemiss

 Nodes     nprocs
 cn086        1

 Using customized tuning parameters: mindgm=1; mindgv=20; mindgc=4; mindgr=1; noblas=0; minvec=7
 default implementation of scratch files=df  

 ***,hno CCSD(T)/TZ-F12 QFF
 memory, 995, m;
 gthresh,energy=1.d-12,zero=1.d-22,oneint=1.d-22,twoint=1.d-22;
 gthresh,optgrad=1.d-8,optstep=1.d-8;
 nocompress;
 geomtyp=xyz
 bohr
 geometry={
 3
         44        44
 H        0.0000000000        1.6641219726       -1.9334943166
 N        0.0000000000       -0.1550806876       -1.1554260937
 O        0.0000000000        0.0327265049        1.1383308193
 }
 
 basis=avtz
   {hf,maxit=500;accu,20;}
 {ccsd(t),nocheck,maxit=250;orbital,IGNORE_ERROR;}

 Variables initialized (889), CPU time= 0.01 sec
 Commands  initialized (702), CPU time= 0.02 sec, 572 directives.
 Default parameters read. Elapsed time= 0.05 sec

 Checking input...
 Passed
1


                                         ***  PROGRAM SYSTEM MOLPRO  ***
                                       Copyright, TTI GmbH Stuttgart, 2015
                                    Version 2015.1 linked Jul  9 2018 13:16:40


 **********************************************************************************************************************************
 LABEL *   hno CCSD(T)/TZ-F12 QFF                                                        
  64 bit serial version                                                                  DATE: 04-Mar-20          TIME: 13:46:15  
 **********************************************************************************************************************************

 SHA1:             d5ffa45e93fdbca01ffc919aa182cfdae0147319
 **********************************************************************************************************************************

 THRESHOLDS:

 ZERO    =  1.00D-22  ONEINT  =  1.00D-22  TWOINT  =  1.00D-22  PREFAC  =  1.00D-14  LOCALI  =  1.00D-09  EORDER  =  1.00D-04
 ENERGY  =  1.00D-12  ETEST   =  0.00D+00  EDENS   =  0.00D+00  THRDEDEF=  1.00D-06  GRADIENT=  1.00D-02  STEP    =  1.00D-03
 ORBITAL =  1.00D-05  CIVEC   =  1.00D-05  COEFF   =  1.00D-04  PRINTCI =  5.00D-02  PUNCHCI =  9.90D+01  OPTGRAD =  3.00D-04
 OPTENERG=  1.00D-06  OPTSTEP =  3.00D-04  THRGRAD =  1.00D-10  COMPRESS=  1.00D-11  VARMIN  =  1.00D-07  VARMAX  =  1.00D-03
 THRDOUB =  0.00D+00  THRDIV  =  1.00D-05  THRRED  =  1.00D-07  THRPSP  =  1.00D+00  THRDC   =  1.00D-10  THRCS   =  1.00D-10
 THRNRM  =  1.00D-08  THREQ   =  0.00D+00  THRDE   =  1.00D+00  THRREF  =  1.00D-05  SPARFAC =  1.00D+00  THRDLP  =  1.00D-07
 THRDIA  =  1.00D-10  THRDLS  =  1.00D-07  THRGPS  =  0.00D+00  THRKEX  =  0.00D+00  THRDIS  =  2.00D-01  THRVAR  =  1.00D-10
 THRLOC  =  1.00D-06  THRGAP  =  1.00D-06  THRLOCT = -1.00D+00  THRGAPT = -1.00D+00  THRORB  =  1.00D-06  THRMLTP =  0.00D+00
 THRCPQCI=  1.00D-10  KEXTA   =  0.00D+00  THRCOARS=  0.00D+00  SYMTOL  =  1.00D-06  GRADTOL =  1.00D-06  THROVL  =  1.00D-08
 THRORTH =  1.00D-08  GRID    =  1.00D-06  GRIDMAX =  1.00D-03  DTMAX   =  0.00D+00  THROCCDE=  1.00D-01  THROCCDE=  1.00D-01



 THRESHOLDS:

 ZERO    =  1.00D-22  ONEINT  =  1.00D-22  TWOINT  =  1.00D-22  PREFAC  =  1.00D-14  LOCALI  =  1.00D-09  EORDER  =  1.00D-04
 ENERGY  =  1.00D-12  ETEST   =  0.00D+00  EDENS   =  0.00D+00  THRDEDEF=  1.00D-06  GRADIENT=  1.00D-02  STEP    =  1.00D-03
 ORBITAL =  1.00D-05  CIVEC   =  1.00D-05  COEFF   =  1.00D-04  PRINTCI =  5.00D-02  PUNCHCI =  9.90D+01  OPTGRAD =  1.00D-08
 OPTENERG=  1.00D-06  OPTSTEP =  1.00D-08  THRGRAD =  1.00D-10  COMPRESS=  1.00D-11  VARMIN  =  1.00D-07  VARMAX  =  1.00D-03
 THRDOUB =  0.00D+00  THRDIV  =  1.00D-05  THRRED  =  1.00D-07  THRPSP  =  1.00D+00  THRDC   =  1.00D-10  THRCS   =  1.00D-10
 THRNRM  =  1.00D-08  THREQ   =  0.00D+00  THRDE   =  1.00D+00  THRREF  =  1.00D-05  SPARFAC =  1.00D+00  THRDLP  =  1.00D-07
 THRDIA  =  1.00D-10  THRDLS  =  1.00D-07  THRGPS  =  0.00D+00  THRKEX  =  0.00D+00  THRDIS  =  2.00D-01  THRVAR  =  1.00D-10
 THRLOC  =  1.00D-06  THRGAP  =  1.00D-06  THRLOCT = -1.00D+00  THRGAPT = -1.00D+00  THRORB  =  1.00D-06  THRMLTP =  0.00D+00
 THRCPQCI=  1.00D-10  KEXTA   =  0.00D+00  THRCOARS=  0.00D+00  SYMTOL  =  1.00D-06  GRADTOL =  1.00D-06  THROVL  =  1.00D-08
 THRORTH =  1.00D-08  GRID    =  1.00D-06  GRIDMAX =  1.00D-03  DTMAX   =  0.00D+00  THROCCDE=  1.00D-01  THROCCDE=  1.00D-01



 Input parameters for SORTINT:

 COMPRESS =    0.000000
 C_FINAL  =    1.000000
 DEBUG    =   -1.000000
 C_SORT1  =    0.000000
 C_SEWARD =    0.000000
 THRESH   =    0.000000
 IO       =  molpro                                                          
 SPRI     =    0.000000
 SETTING GEOMTYP        =    XYZ
 ZUNIT=BOHR
 

 Variable memory set to  995000000 words,  buffer space   230000 words

 SETTING BASIS          =    AVTZ


 Recomputing integrals since basis changed


 Using spherical harmonics

 Library entry H      S aug-cc-pVTZ          selected for orbital group  1
 Library entry H      P aug-cc-pVTZ          selected for orbital group  1
 Library entry H      D aug-cc-pVTZ          selected for orbital group  1
 Library entry N      S aug-cc-pVTZ          selected for orbital group  2
 Library entry N      P aug-cc-pVTZ          selected for orbital group  2
 Library entry N      D aug-cc-pVTZ          selected for orbital group  2
 Library entry N      F aug-cc-pVTZ          selected for orbital group  2
 Library entry O      S aug-cc-pVTZ          selected for orbital group  3
 Library entry O      P aug-cc-pVTZ          selected for orbital group  3
 Library entry O      D aug-cc-pVTZ          selected for orbital group  3
 Library entry O      F aug-cc-pVTZ          selected for orbital group  3


 PROGRAM * SEWARD (Integral evaluation for generally contracted gaussian basis sets)     Author: Roland Lindh, 1990

 Geometry written to block  1 of record 700


 Point group  Cs  



 ATOMIC COORDINATES

 NR  ATOM    CHARGE       X              Y              Z

   1  H       1.00    0.000000000    1.664121973   -1.933494317
   2  N       7.00    0.000000000   -0.155080688   -1.155426094
   3  O       8.00    0.000000000    0.032726505    1.138330819

 Bond lengths in Bohr (Angstrom)

 1-2  1.978607712  2-3  2.301432666
     ( 1.047034111)     ( 1.217865719)

 Bond angles

  1-2-3  108.47547239

 NUCLEAR CHARGE:                   16
 NUMBER OF PRIMITIVE AOS:         161
 NUMBER OF SYMMETRY AOS:          141
 NUMBER OF CONTRACTIONS:          115   (  76A'  +  39A"  )
 NUMBER OF CORE ORBITALS:           2   (   2A'  +   0A"  )
 NUMBER OF VALENCE ORBITALS:        9   (   7A'  +   2A"  )


 NUCLEAR REPULSION ENERGY   30.17058070

 Eigenvalues of metric

         1 0.234E-03 0.500E-03 0.183E-02 0.214E-02 0.261E-02 0.373E-02 0.432E-02 0.514E-02
         2 0.406E-02 0.100E-01 0.266E-01 0.371E-01 0.513E-01 0.622E-01 0.829E-01 0.120E+00


 Contracted 2-electron integrals neglected if value below      1.0D-22

       10790064. INTEGRALS WRITTEN OUT IN    2635 BLOCKS ON RECORD 1290 OF FILE 1


 NUMBER OF SORTED TWO-ELECTRON INTEGRALS:   11433631.     BUFFER LENGTH:  32768
 NUMBER OF SEGMENTS:   1  SEGMENT LENGTH:   11433631      RECORD LENGTH: 524288

 Memory used in sort:      11.99 MW

 SORT1 READ    10790064. AND WROTE    10943632. INTEGRALS IN     32 RECORDS. CPU TIME:     0.14 SEC, REAL TIME:     0.22 SEC
 SORT2 READ    10943632. AND WROTE    11433631. INTEGRALS IN      1 RECORDS. CPU TIME:     0.17 SEC, REAL TIME:     0.22 SEC

 FILE SIZES:   FILE 1:   193.0 MBYTE,  FILE 4:   134.3 MBYTE,   TOTAL:    327.2 MBYTE

 OPERATOR DM      FOR CENTER  0  COORDINATES:    0.000000    0.000000    0.000000


 **********************************************************************************************************************************
 DATASETS  * FILE   NREC   LENGTH (MB)   RECORD NAMES
              1      19      111.05       500      610      700      900      950      970     1000      129      960     1100   
                                          VAR    BASINP    GEOM    SYMINP    ZMAT    AOBASIS   BASIS     P2S    ABASIS      S 
                                         1400     1410     1200     1210     1080     1600     1650     1300     1700   
                                           T        V       H0       H01     AOSYM     SMH    MOLCAS    ERIS     OPER   

 PROGRAMS   *        TOTAL       INT
 CPU TIMES  *         1.30      1.19
 REAL TIME  *         1.98 SEC
 DISK USED  *       327.55 MB      
 **********************************************************************************************************************************


 PROGRAM * RHF-SCF (CLOSED SHELL)       Authors: W. Meyer, H.-J. Werner


 NUMBER OF ELECTRONS:       8+    8-
 CONVERGENCE THRESHOLDS:    1.00E-10 (Density)    1.00E-13 (Energy)
 MAX. NUMBER OF ITERATIONS:      500
 INTERPOLATION TYPE:            DIIS
 INTERPOLATION STEPS:              2 (START)      1 (STEP)
 LEVEL SHIFTS:                  0.00 (CLOSED)  0.00 (OPEN) 



 Orbital guess generated from atomic densities. Full valence occupancy:    9   2

 Molecular orbital dump at record        2100.2

 Initial occupancy:   7   1

 ITERATION    DDIFF          GRAD             ENERGY        2-EL.EN.            DIPOLE MOMENTS         DIIS   ORB.
    1      0.000D+00      0.000D+00      -129.78586661    153.542812    0.00000    0.60203   -1.05300    0    start
    2      0.000D+00      0.108D-01      -129.81298781    154.786061    0.00000    0.61701   -0.20791    1    diag
    3      0.121D-01      0.846D-02      -129.83703641    154.921520    0.00000    0.56452   -0.60888    2    diag
    4      0.607D-02      0.129D-02      -129.83784883    154.626004    0.00000    0.57160   -0.54728    3    diag
    5      0.109D-02      0.426D-03      -129.83797754    154.720565    0.00000    0.57715   -0.54992    4    diag
    6      0.456D-03      0.122D-03      -129.83799802    154.704933    0.00000    0.57748   -0.54567    5    diag
    7      0.174D-03      0.613D-04      -129.83800406    154.707324    0.00000    0.57869   -0.54298    6    diag
    8      0.121D-03      0.215D-04      -129.83800477    154.706641    0.00000    0.57871   -0.54191    7    diag
    9      0.476D-04      0.411D-05      -129.83800480    154.706526    0.00000    0.57867   -0.54168    8    diag
   10      0.934D-05      0.920D-06      -129.83800480    154.706507    0.00000    0.57863   -0.54165    9    orth
   11      0.181D-05      0.180D-06      -129.83800480    154.706504    0.00000    0.57863   -0.54165    9    diag
   12      0.339D-06      0.377D-07      -129.83800480    154.706504    0.00000    0.57862   -0.54165    9    diag
   13      0.725D-07      0.978D-08      -129.83800480    154.706504    0.00000    0.57862   -0.54165    9    diag
   14      0.195D-07      0.201D-08      -129.83800480    154.706504    0.00000    0.57862   -0.54165    9    diag
   15      0.374D-08      0.553D-09      -129.83800480    154.706504    0.00000    0.57862   -0.54165    9    diag
   16      0.103D-08      0.145D-09      -129.83800480    154.706504    0.00000    0.57862   -0.54165    9    diag
   17      0.168D-09      0.387D-10      -129.83800480    154.706504    0.00000    0.57862   -0.54165    9    diag
   18      0.454D-10      0.133D-10      -129.83800480    154.706504    0.00000    0.57862   -0.54165    9    diag
   19      0.227D-10      0.270D-11      -129.83800480    154.706504    0.00000    0.57862   -0.54165    9    fixocc
   20      0.537D-11      0.360D-12      -129.83800480    154.706504    0.00000    0.57862   -0.54165    9    orth
   21      0.130D-11      0.122D-12      -129.83800480    154.706504    0.00000    0.57862   -0.54165    0    orth

 Final occupancy:   7   1

 !RHF STATE 1.1 Energy               -129.838004798268
 Nuclear energy                        30.17058070
 One-electron energy                 -237.36183744
 Two-electron energy                   77.35325194
 Virial quotient                       -1.00239783
 !RHF STATE 1.1 Dipole moment           0.00000000     0.57862361    -0.54164807
 Dipole moment /Debye                   0.00000000     1.47061819    -1.37664189

 Orbital energies:

         1.1          2.1          3.1          4.1          5.1          6.1          7.1          8.1          9.1
    -20.657506   -15.715456    -1.522669    -0.998814    -0.744861    -0.663326    -0.433564     0.029023     0.092113

         1.2          2.2          3.2
     -0.591472     0.062052     0.129850

 HOMO      7.1    -0.433564 =     -11.7979eV
 LUMO      8.1     0.029023 =       0.7898eV
 LUMO-HOMO         0.462587 =      12.5876eV


 **********************************************************************************************************************************
 DATASETS  * FILE   NREC   LENGTH (MB)   RECORD NAMES
              1      19      111.05       500      610      700      900      950      970     1000      129      960     1100   
                                          VAR    BASINP    GEOM    SYMINP    ZMAT    AOBASIS   BASIS     P2S    ABASIS      S 
                                         1400     1410     1200     1210     1080     1600     1650     1300     1700   
                                           T        V       H0       H01     AOSYM     SMH    MOLCAS    ERIS     OPER   

              2       4        2.94       700     1000      520     2100   
                                         GEOM     BASIS   MCVARS     RHF  

 PROGRAMS   *        TOTAL        HF       INT
 CPU TIMES  *         2.31      1.01      1.19
 REAL TIME  *         3.31 SEC
 DISK USED  *       327.55 MB      
 **********************************************************************************************************************************


 PROGRAM * CCSD (Closed-shell coupled cluster)     Authors: C. Hampel, H.-J. Werner, 1991, M. Deegan, P.J. Knowles, 1992


 Convergence thresholds:  THRVAR = 1.00D-08  THRDEN = 1.00D-12

 CCSD(T)     terms to be evaluated (factor= 1.000)


 Number of core orbitals:           2 (   2   0 )
 Number of closed-shell orbitals:   6 (   5   1 )
 Number of external orbitals:     107 (  69  38 )

 Molecular orbitals read from record     2100.2  Type=RHF/CANONICAL (state 1.1)

 Number of N-1 electron functions:               6
 Number of N-2 electron functions:              21
 Number of singly external CSFs:               383
 Number of doubly external CSFs:            107206
 Total number of CSFs:                      107590

 Length of J-op  integral file:               0.00 MB
 Length of K-op  integral file:               0.54 MB
 Length of 3-ext integral record:             0.00 MB

 Memory could be reduced to 5.94 Mwords without degradation in triples

 Integral transformation finished. Total CPU:   0.13 sec, npass=  1  Memory used:   1.65 MW

 Reference energy:                   -129.83800480

 MP2 singlet pair energy:              -0.28037404
 MP2 triplet pair energy:              -0.16581943
 MP2 correlation energy:               -0.44619347
 MP2 total energy:                   -130.28419826

 SCS-MP2 correlation energy:           -0.43962538   (PS=  1.200000  PT=  0.333333)
 SCS-MP2 total energy:               -130.27763018

 ITER.      SQ.NORM     CORR.ENERGY   TOTAL ENERGY   ENERGY CHANGE        DEN1      VAR(S)    VAR(P)  DIIS     TIME  TIME/IT
   1      1.12187860    -0.44992820  -130.28793300    -0.00373473     0.01271796  0.33D-02  0.32D-02  1  1     0.27     0.16
   2      1.13322709    -0.45004799  -130.28805279    -0.00011979    -0.01266750  0.11D-03  0.53D-03  2  2     0.41     0.16
   3      1.13991567    -0.45046315  -130.28846794    -0.00041516    -0.00306074  0.56D-04  0.53D-04  3  3     0.55     0.16
   4      1.14292644    -0.45047575  -130.28848055    -0.00001261    -0.00100819  0.45D-05  0.97D-05  4  4     0.69     0.16
   5      1.14404043    -0.45050630  -130.28851110    -0.00003055    -0.00023495  0.12D-05  0.17D-05  5  5     0.83     0.16
   6      1.14439944    -0.45048803  -130.28849282     0.00001828    -0.00004412  0.10D-06  0.41D-06  6  6     0.97     0.16
   7      1.14447436    -0.45048948  -130.28849428    -0.00000146    -0.00000141  0.18D-07  0.97D-07  6  1     1.11     0.17
   8      1.14449593    -0.45049010  -130.28849490    -0.00000061     0.00000162  0.36D-08  0.18D-07  6  2     1.25     0.17
   9      1.14450477    -0.45048949  -130.28849428     0.00000061    -0.00000087  0.27D-08  0.19D-08  6  3     1.40     0.17
  10      1.14450495    -0.45049002  -130.28849482    -0.00000054    -0.00000003  0.54D-09  0.28D-09  6  4     1.55     0.17
  11      1.14450328    -0.45049015  -130.28849494    -0.00000012     0.00000054  0.16D-09  0.35D-10  6  5     1.70     0.17
  12      1.14450192    -0.45049034  -130.28849514    -0.00000019     0.00000043  0.16D-10  0.97D-11  6  6     1.83     0.17
  13      1.14450116    -0.45049036  -130.28849516    -0.00000002     0.00000018  0.58D-11  0.19D-11  6  1     1.96     0.16
  14      1.14450070    -0.45049039  -130.28849519    -0.00000002     0.00000010  0.88D-12  0.60D-12  6  2     2.10     0.16
  15      1.14450051    -0.45049039  -130.28849519    -0.00000001     0.00000002  0.26D-12  0.18D-12  6  3     2.25     0.16
  16      1.14450042    -0.45049039  -130.28849519    -0.00000000     0.00000001  0.42D-13  0.65D-13  6  4     2.40     0.16
  17      1.14450036    -0.45049040  -130.28849520    -0.00000000     0.00000001  0.29D-14  0.15D-13  6  5     2.54     0.16
  18      1.14450035    -0.45049040  -130.28849520     0.00000000     0.00000000  0.12D-14  0.34D-14  6  6     2.69     0.16
  19      1.14450035    -0.45049040  -130.28849520     0.00000000    -0.00000000  0.15D-15  0.24D-15  6  5     2.83     0.16
  20      1.14450035    -0.45049040  -130.28849520    -0.00000000    -0.00000000  0.64D-16  0.42D-16  6  1     2.97     0.16
  21      1.14450035    -0.45049040  -130.28849520     0.00000000     0.00000000  0.15D-16  0.93D-17  6  2     3.11     0.16
  22      1.14450035    -0.45049040  -130.28849520    -0.00000000     0.00000000  0.39D-17  0.10D-17  6  3     3.25     0.16
  23      1.14450035    -0.45049040  -130.28849520     0.00000000     0.00000000  0.96D-18  0.33D-18  6  4     3.40     0.16
  24      1.14450035    -0.45049040  -130.28849520    -0.00000000     0.00000000  0.28D-18  0.62D-19  6  6     3.53     0.16
  25      1.14450035    -0.45049040  -130.28849520     0.00000000    -0.00000000  0.47D-19  0.29D-19  6  5     3.67     0.16
  26      1.14450035    -0.45049040  -130.28849520     0.00000000    -0.00000000  0.68D-20  0.11D-19  6  1     3.80     0.16
  27      1.14450035    -0.45049040  -130.28849520    -0.00000000    -0.00000000  0.32D-21  0.15D-20  6  3     3.96     0.16
  28      1.14450035    -0.45049040  -130.28849520     0.00000000     0.00000000  0.82D-22  0.20D-21  6  2     4.11     0.16

 Norm of t1 vector:      0.07996903      S-energy:     0.00000000      T1 diagnostic:  0.01632361
                                                                       D1 diagnostic:  0.04345900

 Doubles amplitudes (print threshold =  0.500E-01):

         I         J         SYM. A    SYM. B    A         B      T(IJ, AB)

         6         6         2         2         1         1     -0.11332036


 Total CPU time for triples:      1.11 sec


 RESULTS
 =======

  Reference energy                   -129.838004798269
  CCSD singlet pair energy             -0.309077627913
  CCSD triplet pair energy             -0.141412769022
  CCSD correlation energy              -0.450490396935

  Triples (T) contribution             -0.021194657163
  Total correlation energy             -0.471685054097

  CCSD total energy                  -130.288495195203
  CCSD[T] energy                     -130.310797234056
  CCSD-T energy                      -130.309276737621
 !CCSD(T) total energy               -130.309689852366

 Timing summary (sec):

 STEP                 CPU(USER)    SYS     CPU(TOT)    WALL
 Transformation          0.13      0.04      0.17      0.17
 CCSD iterations         3.98      0.62      4.60      4.61
 Triples                 1.11      0.03      1.14      1.14

 Program statistics:

 Available memory in ccsd:               994999756
 Min. memory needed in ccsd:                389120
 Max. memory used in ccsd:                  473124
 Max. memory used in cckext:                599488 (28 integral passes)



 **********************************************************************************************************************************
 DATASETS  * FILE   NREC   LENGTH (MB)   RECORD NAMES
              1      20      128.20       500      610      700      900      950      970     1000      129      960     1100   
                                          VAR    BASINP    GEOM    SYMINP    ZMAT    AOBASIS   BASIS     P2S    ABASIS      S 
                                         1400     1410     1200     1210     1080     1600     1650     1300     1700     1380   
                                           T        V       H0       H01     AOSYM     SMH    MOLCAS    ERIS     OPER     JKOP   

              2       4        2.94       700     1000      520     2100   
                                         GEOM     BASIS   MCVARS     RHF  

 PROGRAMS   *        TOTAL   CCSD(T)        HF       INT
 CPU TIMES  *         7.57      5.26      1.01      1.19
 REAL TIME  *         9.28 SEC
 DISK USED  *       327.55 MB      
 **********************************************************************************************************************************

 CCSD(T)/aug-cc-pVTZ energy=   -130.309689852366

        CCSD(T)         HF-SCF  
   -130.30968985   -129.83800480
 **********************************************************************************************************************************
 Molpro calculation terminated
 Variable memory released
