
 Primary working directories    : /tmp/r2666/282216.maple
 Secondary working directories  : /tmp/r2666/282216.maple
 Wavefunction directory         : /ddn/home4/r2666/wfu/
 Main file repository           : /tmp/r2666/282216.maple/

 SHA1      : d5ffa45e93fdbca01ffc919aa182cfdae0147319
 NAME      : 2015.1.35
 ARCHNAME  : linux/x86_64
 FC        : /opt/intel/composer_xe_2015.1.133/bin/intel64/ifort
 BLASLIB   : -Wl,-_start-group /opt/intel/mkl/lib/intel64/libmkl_intel_ilp64.a /opt/intel/mkl/lib/intel64/libmkl_intel_thread.a /opt/intel/mkl/lib/intel64/libmkl_core.a -Wl,-_end-group
 id        : olemiss

 Nodes     nprocs
 cn078        1

 Using customized tuning parameters: mindgm=1; mindgv=20; mindgc=4; mindgr=1; noblas=0; minvec=7
 default implementation of scratch files=df  

 ***,hno CCSD(T)/TZ-F12 QFF
 memory, 995, m;
 gthresh,energy=1.d-12,zero=1.d-22,oneint=1.d-22,twoint=1.d-22;
 gthresh,optgrad=1.d-8,optstep=1.d-8;
 nocompress;
 geomtyp=xyz
 bohr
 geometry={
 3
        113       113
 H        0.0000000000        1.6751480620       -1.9342225498
 N        0.0000000000       -0.1680523163       -1.1401979117
 O        0.0000000000        0.0346720443        1.1238308706
 }
 
 basis=avtz
   {hf,maxit=500;accu,20;}
 {ccsd(t),nocheck,maxit=250;orbital,IGNORE_ERROR;}

 Variables initialized (889), CPU time= 0.00 sec
 Commands  initialized (702), CPU time= 0.01 sec, 572 directives.
 Default parameters read. Elapsed time= 0.06 sec

 Checking input...
 Passed
1


                                         ***  PROGRAM SYSTEM MOLPRO  ***
                                       Copyright, TTI GmbH Stuttgart, 2015
                                    Version 2015.1 linked Jul  9 2018 13:16:40


 **********************************************************************************************************************************
 LABEL *   hno CCSD(T)/TZ-F12 QFF                                                        
  64 bit serial version                                                                  DATE: 04-Mar-20          TIME: 13:46:44  
 **********************************************************************************************************************************

 SHA1:             d5ffa45e93fdbca01ffc919aa182cfdae0147319
 **********************************************************************************************************************************

 THRESHOLDS:

 ZERO    =  1.00D-22  ONEINT  =  1.00D-22  TWOINT  =  1.00D-22  PREFAC  =  1.00D-14  LOCALI  =  1.00D-09  EORDER  =  1.00D-04
 ENERGY  =  1.00D-12  ETEST   =  0.00D+00  EDENS   =  0.00D+00  THRDEDEF=  1.00D-06  GRADIENT=  1.00D-02  STEP    =  1.00D-03
 ORBITAL =  1.00D-05  CIVEC   =  1.00D-05  COEFF   =  1.00D-04  PRINTCI =  5.00D-02  PUNCHCI =  9.90D+01  OPTGRAD =  3.00D-04
 OPTENERG=  1.00D-06  OPTSTEP =  3.00D-04  THRGRAD =  1.00D-10  COMPRESS=  1.00D-11  VARMIN  =  1.00D-07  VARMAX  =  1.00D-03
 THRDOUB =  0.00D+00  THRDIV  =  1.00D-05  THRRED  =  1.00D-07  THRPSP  =  1.00D+00  THRDC   =  1.00D-10  THRCS   =  1.00D-10
 THRNRM  =  1.00D-08  THREQ   =  0.00D+00  THRDE   =  1.00D+00  THRREF  =  1.00D-05  SPARFAC =  1.00D+00  THRDLP  =  1.00D-07
 THRDIA  =  1.00D-10  THRDLS  =  1.00D-07  THRGPS  =  0.00D+00  THRKEX  =  0.00D+00  THRDIS  =  2.00D-01  THRVAR  =  1.00D-10
 THRLOC  =  1.00D-06  THRGAP  =  1.00D-06  THRLOCT = -1.00D+00  THRGAPT = -1.00D+00  THRORB  =  1.00D-06  THRMLTP =  0.00D+00
 THRCPQCI=  1.00D-10  KEXTA   =  0.00D+00  THRCOARS=  0.00D+00  SYMTOL  =  1.00D-06  GRADTOL =  1.00D-06  THROVL  =  1.00D-08
 THRORTH =  1.00D-08  GRID    =  1.00D-06  GRIDMAX =  1.00D-03  DTMAX   =  0.00D+00  THROCCDE=  1.00D-01  THROCCDE=  1.00D-01



 THRESHOLDS:

 ZERO    =  1.00D-22  ONEINT  =  1.00D-22  TWOINT  =  1.00D-22  PREFAC  =  1.00D-14  LOCALI  =  1.00D-09  EORDER  =  1.00D-04
 ENERGY  =  1.00D-12  ETEST   =  0.00D+00  EDENS   =  0.00D+00  THRDEDEF=  1.00D-06  GRADIENT=  1.00D-02  STEP    =  1.00D-03
 ORBITAL =  1.00D-05  CIVEC   =  1.00D-05  COEFF   =  1.00D-04  PRINTCI =  5.00D-02  PUNCHCI =  9.90D+01  OPTGRAD =  1.00D-08
 OPTENERG=  1.00D-06  OPTSTEP =  1.00D-08  THRGRAD =  1.00D-10  COMPRESS=  1.00D-11  VARMIN  =  1.00D-07  VARMAX  =  1.00D-03
 THRDOUB =  0.00D+00  THRDIV  =  1.00D-05  THRRED  =  1.00D-07  THRPSP  =  1.00D+00  THRDC   =  1.00D-10  THRCS   =  1.00D-10
 THRNRM  =  1.00D-08  THREQ   =  0.00D+00  THRDE   =  1.00D+00  THRREF  =  1.00D-05  SPARFAC =  1.00D+00  THRDLP  =  1.00D-07
 THRDIA  =  1.00D-10  THRDLS  =  1.00D-07  THRGPS  =  0.00D+00  THRKEX  =  0.00D+00  THRDIS  =  2.00D-01  THRVAR  =  1.00D-10
 THRLOC  =  1.00D-06  THRGAP  =  1.00D-06  THRLOCT = -1.00D+00  THRGAPT = -1.00D+00  THRORB  =  1.00D-06  THRMLTP =  0.00D+00
 THRCPQCI=  1.00D-10  KEXTA   =  0.00D+00  THRCOARS=  0.00D+00  SYMTOL  =  1.00D-06  GRADTOL =  1.00D-06  THROVL  =  1.00D-08
 THRORTH =  1.00D-08  GRID    =  1.00D-06  GRIDMAX =  1.00D-03  DTMAX   =  0.00D+00  THROCCDE=  1.00D-01  THROCCDE=  1.00D-01



 Input parameters for SORTINT:

 COMPRESS =    0.000000
 C_FINAL  =    1.000000
 DEBUG    =   -1.000000
 C_SORT1  =    0.000000
 C_SEWARD =    0.000000
 THRESH   =    0.000000
 IO       =  molpro                                                          
 SPRI     =    0.000000
 SETTING GEOMTYP        =    XYZ
 ZUNIT=BOHR
 

 Variable memory set to  995000000 words,  buffer space   230000 words

 SETTING BASIS          =    AVTZ


 Recomputing integrals since basis changed


 Using spherical harmonics

 Library entry H      S aug-cc-pVTZ          selected for orbital group  1
 Library entry H      P aug-cc-pVTZ          selected for orbital group  1
 Library entry H      D aug-cc-pVTZ          selected for orbital group  1
 Library entry N      S aug-cc-pVTZ          selected for orbital group  2
 Library entry N      P aug-cc-pVTZ          selected for orbital group  2
 Library entry N      D aug-cc-pVTZ          selected for orbital group  2
 Library entry N      F aug-cc-pVTZ          selected for orbital group  2
 Library entry O      S aug-cc-pVTZ          selected for orbital group  3
 Library entry O      P aug-cc-pVTZ          selected for orbital group  3
 Library entry O      D aug-cc-pVTZ          selected for orbital group  3
 Library entry O      F aug-cc-pVTZ          selected for orbital group  3


 PROGRAM * SEWARD (Integral evaluation for generally contracted gaussian basis sets)     Author: Roland Lindh, 1990

 Geometry written to block  1 of record 700


 Point group  Cs  



 ATOMIC COORDINATES

 NR  ATOM    CHARGE       X              Y              Z

   1  H       1.00    0.000000000    1.675148062   -1.934222550
   2  N       7.00    0.000000000   -0.168052316   -1.140197912
   3  O       8.00    0.000000000    0.034672044    1.123830871

 Bond lengths in Bohr (Angstrom)

 1-2  2.006953602  2-3  2.273086776
     ( 1.062034110)     ( 1.202865721)

 Bond angles

  1-2-3  108.18899349

 NUCLEAR CHARGE:                   16
 NUMBER OF PRIMITIVE AOS:         161
 NUMBER OF SYMMETRY AOS:          141
 NUMBER OF CONTRACTIONS:          115   (  76A'  +  39A"  )
 NUMBER OF CORE ORBITALS:           2   (   2A'  +   0A"  )
 NUMBER OF VALENCE ORBITALS:        9   (   7A'  +   2A"  )


 NUCLEAR REPULSION ENERGY   30.42926500

 Eigenvalues of metric

         1 0.232E-03 0.502E-03 0.181E-02 0.214E-02 0.250E-02 0.351E-02 0.434E-02 0.523E-02
         2 0.390E-02 0.103E-01 0.261E-01 0.373E-01 0.511E-01 0.626E-01 0.814E-01 0.120E+00


 Contracted 2-electron integrals neglected if value below      1.0D-22

       10790064. INTEGRALS WRITTEN OUT IN    2635 BLOCKS ON RECORD 1290 OF FILE 1


 NUMBER OF SORTED TWO-ELECTRON INTEGRALS:   11433631.     BUFFER LENGTH:  32768
 NUMBER OF SEGMENTS:   1  SEGMENT LENGTH:   11433631      RECORD LENGTH: 524288

 Memory used in sort:      11.99 MW

 SORT1 READ    10790064. AND WROTE    10943632. INTEGRALS IN     32 RECORDS. CPU TIME:     0.15 SEC, REAL TIME:     0.21 SEC
 SORT2 READ    10943632. AND WROTE    11433631. INTEGRALS IN      1 RECORDS. CPU TIME:     0.17 SEC, REAL TIME:     0.21 SEC

 FILE SIZES:   FILE 1:   193.0 MBYTE,  FILE 4:   134.3 MBYTE,   TOTAL:    327.2 MBYTE

 OPERATOR DM      FOR CENTER  0  COORDINATES:    0.000000    0.000000    0.000000


 **********************************************************************************************************************************
 DATASETS  * FILE   NREC   LENGTH (MB)   RECORD NAMES
              1      19      111.05       500      610      700      900      950      970     1000      129      960     1100   
                                          VAR    BASINP    GEOM    SYMINP    ZMAT    AOBASIS   BASIS     P2S    ABASIS      S 
                                         1400     1410     1200     1210     1080     1600     1650     1300     1700   
                                           T        V       H0       H01     AOSYM     SMH    MOLCAS    ERIS     OPER   

 PROGRAMS   *        TOTAL       INT
 CPU TIMES  *         1.26      1.18
 REAL TIME  *         1.91 SEC
 DISK USED  *       327.55 MB      
 **********************************************************************************************************************************


 PROGRAM * RHF-SCF (CLOSED SHELL)       Authors: W. Meyer, H.-J. Werner


 NUMBER OF ELECTRONS:       8+    8-
 CONVERGENCE THRESHOLDS:    1.00E-10 (Density)    1.00E-13 (Energy)
 MAX. NUMBER OF ITERATIONS:      500
 INTERPOLATION TYPE:            DIIS
 INTERPOLATION STEPS:              2 (START)      1 (STEP)
 LEVEL SHIFTS:                  0.00 (CLOSED)  0.00 (OPEN) 



 Orbital guess generated from atomic densities. Full valence occupancy:    9   2

 Molecular orbital dump at record        2100.2

 Initial occupancy:   7   1

 ITERATION    DDIFF          GRAD             ENERGY        2-EL.EN.            DIPOLE MOMENTS         DIIS   ORB.
    1      0.000D+00      0.000D+00      -129.78891091    153.994450    0.00000    0.58297   -1.00530    0    start
    2      0.000D+00      0.107D-01      -129.81651544    155.286511    0.00000    0.60656   -0.20785    1    diag
    3      0.118D-01      0.815D-02      -129.83874271    155.383239    0.00000    0.55127   -0.58362    2    diag
    4      0.588D-02      0.127D-02      -129.83952514    155.097397    0.00000    0.55877   -0.52456    3    diag
    5      0.107D-02      0.420D-03      -129.83965081    155.191735    0.00000    0.56451   -0.52754    4    diag
    6      0.449D-03      0.122D-03      -129.83967094    155.176121    0.00000    0.56492   -0.52352    5    diag
    7      0.172D-03      0.599D-04      -129.83967664    155.178727    0.00000    0.56621   -0.52104    6    diag
    8      0.118D-03      0.201D-04      -129.83967722    155.178083    0.00000    0.56624   -0.52008    7    diag
    9      0.431D-04      0.380D-05      -129.83967725    155.177976    0.00000    0.56621   -0.51987    8    diag
   10      0.825D-05      0.876D-06      -129.83967725    155.177956    0.00000    0.56617   -0.51984    9    orth
   11      0.172D-05      0.176D-06      -129.83967725    155.177953    0.00000    0.56616   -0.51984    9    diag
   12      0.339D-06      0.361D-07      -129.83967725    155.177952    0.00000    0.56616   -0.51984    9    diag
   13      0.737D-07      0.907D-08      -129.83967725    155.177952    0.00000    0.56616   -0.51984    9    diag
   14      0.192D-07      0.190D-08      -129.83967725    155.177952    0.00000    0.56616   -0.51984    9    diag
   15      0.388D-08      0.539D-09      -129.83967725    155.177952    0.00000    0.56616   -0.51984    9    diag
   16      0.105D-08      0.150D-09      -129.83967725    155.177952    0.00000    0.56616   -0.51984    9    diag
   17      0.194D-09      0.444D-10      -129.83967725    155.177952    0.00000    0.56616   -0.51984    9    diag
   18      0.564D-10      0.159D-10      -129.83967725    155.177952    0.00000    0.56616   -0.51984    0    orth

 Final occupancy:   7   1

 !RHF STATE 1.1 Energy               -129.839677247711
 Nuclear energy                        30.42926500
 One-electron energy                 -237.85791839
 Two-electron energy                   77.58897614
 Virial quotient                       -1.00211813
 !RHF STATE 1.1 Dipole moment           0.00000000     0.56616229    -0.51984036
 Dipole moment /Debye                   0.00000000     1.43894676    -1.32121586

 Orbital energies:

         1.1          2.1          3.1          4.1          5.1          6.1          7.1          8.1          9.1
    -20.656285   -15.714954    -1.534886    -0.991377    -0.747783    -0.667581    -0.428289     0.029248     0.092183

         1.2          2.2          3.2
     -0.598828     0.066293     0.130516

 HOMO      7.1    -0.428289 =     -11.6543eV
 LUMO      8.1     0.029248 =       0.7959eV
 LUMO-HOMO         0.457538 =      12.4502eV


 **********************************************************************************************************************************
 DATASETS  * FILE   NREC   LENGTH (MB)   RECORD NAMES
              1      19      111.05       500      610      700      900      950      970     1000      129      960     1100   
                                          VAR    BASINP    GEOM    SYMINP    ZMAT    AOBASIS   BASIS     P2S    ABASIS      S 
                                         1400     1410     1200     1210     1080     1600     1650     1300     1700   
                                           T        V       H0       H01     AOSYM     SMH    MOLCAS    ERIS     OPER   

              2       4        2.94       700     1000      520     2100   
                                         GEOM     BASIS   MCVARS     RHF  

 PROGRAMS   *        TOTAL        HF       INT
 CPU TIMES  *         2.15      0.89      1.18
 REAL TIME  *         3.03 SEC
 DISK USED  *       327.55 MB      
 **********************************************************************************************************************************


 PROGRAM * CCSD (Closed-shell coupled cluster)     Authors: C. Hampel, H.-J. Werner, 1991, M. Deegan, P.J. Knowles, 1992


 Convergence thresholds:  THRVAR = 1.00D-08  THRDEN = 1.00D-12

 CCSD(T)     terms to be evaluated (factor= 1.000)


 Number of core orbitals:           2 (   2   0 )
 Number of closed-shell orbitals:   6 (   5   1 )
 Number of external orbitals:     107 (  69  38 )

 Molecular orbitals read from record     2100.2  Type=RHF/CANONICAL (state 1.1)

 Number of N-1 electron functions:               6
 Number of N-2 electron functions:              21
 Number of singly external CSFs:               383
 Number of doubly external CSFs:            107206
 Total number of CSFs:                      107590

 Length of J-op  integral file:               0.00 MB
 Length of K-op  integral file:               0.54 MB
 Length of 3-ext integral record:             0.00 MB

 Memory could be reduced to 5.94 Mwords without degradation in triples

 Integral transformation finished. Total CPU:   0.12 sec, npass=  1  Memory used:   1.65 MW

 Reference energy:                   -129.83967725

 MP2 singlet pair energy:              -0.27914679
 MP2 triplet pair energy:              -0.16496856
 MP2 correlation energy:               -0.44411535
 MP2 total energy:                   -130.28379260

 SCS-MP2 correlation energy:           -0.43762325   (PS=  1.200000  PT=  0.333333)
 SCS-MP2 total energy:               -130.27730050

 ITER.      SQ.NORM     CORR.ENERGY   TOTAL ENERGY   ENERGY CHANGE        DEN1      VAR(S)    VAR(P)  DIIS     TIME  TIME/IT
   1      1.12073955    -0.44839631  -130.28807356    -0.00428096     0.01166233  0.31D-02  0.31D-02  1  1     0.24     0.15
   2      1.13180472    -0.44862631  -130.28830356    -0.00023001    -0.01237599  0.99D-04  0.51D-03  2  2     0.38     0.16
   3      1.13825274    -0.44902507  -130.28870232    -0.00039876    -0.00299099  0.54D-04  0.50D-04  3  3     0.52     0.16
   4      1.14109800    -0.44903464  -130.28871189    -0.00000956    -0.00096670  0.42D-05  0.91D-05  4  4     0.67     0.16
   5      1.14213568    -0.44906313  -130.28874038    -0.00002849    -0.00022016  0.12D-05  0.16D-05  5  5     0.80     0.16
   6      1.14247594    -0.44904665  -130.28872390     0.00001648    -0.00004129  0.11D-06  0.39D-06  6  6     0.95     0.16
   7      1.14255229    -0.44904751  -130.28872476    -0.00000086    -0.00000206  0.21D-07  0.90D-07  6  1     1.07     0.16
   8      1.14257453    -0.44904821  -130.28872546    -0.00000070     0.00000128  0.37D-08  0.16D-07  6  2     1.21     0.16
   9      1.14258014    -0.44904775  -130.28872499     0.00000047     0.00000050  0.27D-08  0.18D-08  6  4     1.36     0.16
  10      1.14258244    -0.44904822  -130.28872547    -0.00000048    -0.00000071  0.43D-09  0.21D-09  6  3     1.51     0.16
  11      1.14258192    -0.44904825  -130.28872550    -0.00000003    -0.00000006  0.15D-09  0.32D-10  6  5     1.66     0.16
  12      1.14258086    -0.44904840  -130.28872565    -0.00000015     0.00000033  0.18D-10  0.10D-10  6  6     1.79     0.16
  13      1.14258001    -0.44904843  -130.28872568    -0.00000004     0.00000021  0.64D-11  0.21D-11  6  1     1.94     0.16
  14      1.14257947    -0.44904846  -130.28872571    -0.00000003     0.00000014  0.10D-11  0.65D-12  6  2     2.09     0.16
  15      1.14257925    -0.44904847  -130.28872572    -0.00000001     0.00000003  0.29D-12  0.21D-12  6  4     2.23     0.16
  16      1.14257916    -0.44904847  -130.28872572    -0.00000000     0.00000001  0.55D-13  0.73D-13  6  3     2.36     0.16
  17      1.14257910    -0.44904847  -130.28872572    -0.00000000     0.00000001  0.38D-14  0.18D-13  6  5     2.50     0.16
  18      1.14257909    -0.44904847  -130.28872572     0.00000000    -0.00000000  0.13D-14  0.37D-14  6  6     2.65     0.16
  19      1.14257909    -0.44904847  -130.28872572    -0.00000000     0.00000000  0.10D-14  0.68D-15  6  1     2.78     0.16
  20      1.14257909    -0.44904847  -130.28872572     0.00000000    -0.00000000  0.22D-15  0.13D-15  6  2     2.92     0.16
  21      1.14257909    -0.44904847  -130.28872572     0.00000000    -0.00000000  0.51D-16  0.31D-16  6  3     3.08     0.16
  22      1.14257909    -0.44904847  -130.28872572     0.00000000     0.00000000  0.60D-17  0.28D-17  6  4     3.21     0.16
  23      1.14257909    -0.44904847  -130.28872572     0.00000000    -0.00000000  0.22D-17  0.56D-18  6  5     3.35     0.16
  24      1.14257909    -0.44904847  -130.28872572     0.00000000     0.00000000  0.15D-18  0.48D-19  6  2     3.48     0.16
  25      1.14257909    -0.44904847  -130.28872572    -0.00000000    -0.00000000  0.22D-19  0.12D-19  6  6     3.64     0.16
  26      1.14257909    -0.44904847  -130.28872572     0.00000000    -0.00000000  0.35D-20  0.20D-20  6  1     3.78     0.16
  27      1.14257909    -0.44904847  -130.28872572    -0.00000000    -0.00000000  0.49D-21  0.46D-21  6  4     3.91     0.16

 Norm of t1 vector:      0.07807773      S-energy:     0.00000000      T1 diagnostic:  0.01593755
                                                                       D1 diagnostic:  0.04143531

 Doubles amplitudes (print threshold =  0.500E-01):

         I         J         SYM. A    SYM. B    A         B      T(IJ, AB)

         6         6         2         2         1         1     -0.10659046


 Total CPU time for triples:      1.10 sec


 RESULTS
 =======

  Reference energy                   -129.839677247711
  CCSD singlet pair energy             -0.307828767536
  CCSD triplet pair energy             -0.141219705250
  CCSD correlation energy              -0.449048472785

  Triples (T) contribution             -0.020823461586
  Total correlation energy             -0.469871934371

  CCSD total energy                  -130.288725720495
  CCSD[T] energy                     -130.310604809499
  CCSD-T energy                      -130.309145849979
 !CCSD(T) total energy               -130.309549182081

 Timing summary (sec):

 STEP                 CPU(USER)    SYS     CPU(TOT)    WALL
 Transformation          0.12      0.04      0.16      0.16
 CCSD iterations         3.80      0.57      4.37      4.37
 Triples                 1.10      0.04      1.14      1.14

 Program statistics:

 Available memory in ccsd:               994999756
 Min. memory needed in ccsd:                389120
 Max. memory used in ccsd:                  473124
 Max. memory used in cckext:                599488 (27 integral passes)



 **********************************************************************************************************************************
 DATASETS  * FILE   NREC   LENGTH (MB)   RECORD NAMES
              1      20      128.20       500      610      700      900      950      970     1000      129      960     1100   
                                          VAR    BASINP    GEOM    SYMINP    ZMAT    AOBASIS   BASIS     P2S    ABASIS      S 
                                         1400     1410     1200     1210     1080     1600     1650     1300     1700     1380   
                                           T        V       H0       H01     AOSYM     SMH    MOLCAS    ERIS     OPER     JKOP   

              2       4        2.94       700     1000      520     2100   
                                         GEOM     BASIS   MCVARS     RHF  

 PROGRAMS   *        TOTAL   CCSD(T)        HF       INT
 CPU TIMES  *         7.20      5.05      0.89      1.18
 REAL TIME  *         8.76 SEC
 DISK USED  *       327.55 MB      
 **********************************************************************************************************************************

 CCSD(T)/aug-cc-pVTZ energy=   -130.309549182081

        CCSD(T)         HF-SCF  
   -130.30954918   -129.83967725
 **********************************************************************************************************************************
 Molpro calculation terminated
 Variable memory released
