
 Primary working directories    : /tmp/r2666/282180.maple
 Secondary working directories  : /tmp/r2666/282180.maple
 Wavefunction directory         : /ddn/home4/r2666/wfu/
 Main file repository           : /tmp/r2666/282180.maple/

 SHA1      : d5ffa45e93fdbca01ffc919aa182cfdae0147319
 NAME      : 2015.1.35
 ARCHNAME  : linux/x86_64
 FC        : /opt/intel/composer_xe_2015.1.133/bin/intel64/ifort
 BLASLIB   : -Wl,-_start-group /opt/intel/mkl/lib/intel64/libmkl_intel_ilp64.a /opt/intel/mkl/lib/intel64/libmkl_intel_thread.a /opt/intel/mkl/lib/intel64/libmkl_core.a -Wl,-_end-group
 id        : olemiss

 Nodes     nprocs
 cn079        1

 Using customized tuning parameters: mindgm=1; mindgv=20; mindgc=4; mindgr=1; noblas=0; minvec=7
 default implementation of scratch files=df  

 ***,hno CCSD(T)/TZ-F12 QFF
 memory, 995, m;
 gthresh,energy=1.d-12,zero=1.d-22,oneint=1.d-22,twoint=1.d-22;
 gthresh,optgrad=1.d-8,optstep=1.d-8;
 nocompress;
 geomtyp=xyz
 bohr
 geometry={
 3
         77        77
 H        0.0000000000        1.6680117044       -1.9263660374
 N        0.0000000000       -0.1656638527       -1.1582501799
 O        0.0000000000        0.0394199383        1.1340266263
 }
 
 basis=avtz
   {hf,maxit=500;accu,20;}
 {ccsd(t),nocheck,maxit=250;orbital,IGNORE_ERROR;}

 Variables initialized (889), CPU time= 0.01 sec
 Commands  initialized (702), CPU time= 0.01 sec, 572 directives.
 Default parameters read. Elapsed time= 0.04 sec

 Checking input...
 Passed
1


                                         ***  PROGRAM SYSTEM MOLPRO  ***
                                       Copyright, TTI GmbH Stuttgart, 2015
                                    Version 2015.1 linked Jul  9 2018 13:16:40


 **********************************************************************************************************************************
 LABEL *   hno CCSD(T)/TZ-F12 QFF                                                        
  64 bit serial version                                                                  DATE: 04-Mar-20          TIME: 13:46:31  
 **********************************************************************************************************************************

 SHA1:             d5ffa45e93fdbca01ffc919aa182cfdae0147319
 **********************************************************************************************************************************

 THRESHOLDS:

 ZERO    =  1.00D-22  ONEINT  =  1.00D-22  TWOINT  =  1.00D-22  PREFAC  =  1.00D-14  LOCALI  =  1.00D-09  EORDER  =  1.00D-04
 ENERGY  =  1.00D-12  ETEST   =  0.00D+00  EDENS   =  0.00D+00  THRDEDEF=  1.00D-06  GRADIENT=  1.00D-02  STEP    =  1.00D-03
 ORBITAL =  1.00D-05  CIVEC   =  1.00D-05  COEFF   =  1.00D-04  PRINTCI =  5.00D-02  PUNCHCI =  9.90D+01  OPTGRAD =  3.00D-04
 OPTENERG=  1.00D-06  OPTSTEP =  3.00D-04  THRGRAD =  1.00D-10  COMPRESS=  1.00D-11  VARMIN  =  1.00D-07  VARMAX  =  1.00D-03
 THRDOUB =  0.00D+00  THRDIV  =  1.00D-05  THRRED  =  1.00D-07  THRPSP  =  1.00D+00  THRDC   =  1.00D-10  THRCS   =  1.00D-10
 THRNRM  =  1.00D-08  THREQ   =  0.00D+00  THRDE   =  1.00D+00  THRREF  =  1.00D-05  SPARFAC =  1.00D+00  THRDLP  =  1.00D-07
 THRDIA  =  1.00D-10  THRDLS  =  1.00D-07  THRGPS  =  0.00D+00  THRKEX  =  0.00D+00  THRDIS  =  2.00D-01  THRVAR  =  1.00D-10
 THRLOC  =  1.00D-06  THRGAP  =  1.00D-06  THRLOCT = -1.00D+00  THRGAPT = -1.00D+00  THRORB  =  1.00D-06  THRMLTP =  0.00D+00
 THRCPQCI=  1.00D-10  KEXTA   =  0.00D+00  THRCOARS=  0.00D+00  SYMTOL  =  1.00D-06  GRADTOL =  1.00D-06  THROVL  =  1.00D-08
 THRORTH =  1.00D-08  GRID    =  1.00D-06  GRIDMAX =  1.00D-03  DTMAX   =  0.00D+00  THROCCDE=  1.00D-01  THROCCDE=  1.00D-01



 THRESHOLDS:

 ZERO    =  1.00D-22  ONEINT  =  1.00D-22  TWOINT  =  1.00D-22  PREFAC  =  1.00D-14  LOCALI  =  1.00D-09  EORDER  =  1.00D-04
 ENERGY  =  1.00D-12  ETEST   =  0.00D+00  EDENS   =  0.00D+00  THRDEDEF=  1.00D-06  GRADIENT=  1.00D-02  STEP    =  1.00D-03
 ORBITAL =  1.00D-05  CIVEC   =  1.00D-05  COEFF   =  1.00D-04  PRINTCI =  5.00D-02  PUNCHCI =  9.90D+01  OPTGRAD =  1.00D-08
 OPTENERG=  1.00D-06  OPTSTEP =  1.00D-08  THRGRAD =  1.00D-10  COMPRESS=  1.00D-11  VARMIN  =  1.00D-07  VARMAX  =  1.00D-03
 THRDOUB =  0.00D+00  THRDIV  =  1.00D-05  THRRED  =  1.00D-07  THRPSP  =  1.00D+00  THRDC   =  1.00D-10  THRCS   =  1.00D-10
 THRNRM  =  1.00D-08  THREQ   =  0.00D+00  THRDE   =  1.00D+00  THRREF  =  1.00D-05  SPARFAC =  1.00D+00  THRDLP  =  1.00D-07
 THRDIA  =  1.00D-10  THRDLS  =  1.00D-07  THRGPS  =  0.00D+00  THRKEX  =  0.00D+00  THRDIS  =  2.00D-01  THRVAR  =  1.00D-10
 THRLOC  =  1.00D-06  THRGAP  =  1.00D-06  THRLOCT = -1.00D+00  THRGAPT = -1.00D+00  THRORB  =  1.00D-06  THRMLTP =  0.00D+00
 THRCPQCI=  1.00D-10  KEXTA   =  0.00D+00  THRCOARS=  0.00D+00  SYMTOL  =  1.00D-06  GRADTOL =  1.00D-06  THROVL  =  1.00D-08
 THRORTH =  1.00D-08  GRID    =  1.00D-06  GRIDMAX =  1.00D-03  DTMAX   =  0.00D+00  THROCCDE=  1.00D-01  THROCCDE=  1.00D-01



 Input parameters for SORTINT:

 COMPRESS =    0.000000
 C_FINAL  =    1.000000
 DEBUG    =   -1.000000
 C_SORT1  =    0.000000
 C_SEWARD =    0.000000
 THRESH   =    0.000000
 IO       =  molpro                                                          
 SPRI     =    0.000000
 SETTING GEOMTYP        =    XYZ
 ZUNIT=BOHR
 

 Variable memory set to  995000000 words,  buffer space   230000 words

 SETTING BASIS          =    AVTZ


 Recomputing integrals since basis changed


 Using spherical harmonics

 Library entry H      S aug-cc-pVTZ          selected for orbital group  1
 Library entry H      P aug-cc-pVTZ          selected for orbital group  1
 Library entry H      D aug-cc-pVTZ          selected for orbital group  1
 Library entry N      S aug-cc-pVTZ          selected for orbital group  2
 Library entry N      P aug-cc-pVTZ          selected for orbital group  2
 Library entry N      D aug-cc-pVTZ          selected for orbital group  2
 Library entry N      F aug-cc-pVTZ          selected for orbital group  2
 Library entry O      S aug-cc-pVTZ          selected for orbital group  3
 Library entry O      P aug-cc-pVTZ          selected for orbital group  3
 Library entry O      D aug-cc-pVTZ          selected for orbital group  3
 Library entry O      F aug-cc-pVTZ          selected for orbital group  3


 PROGRAM * SEWARD (Integral evaluation for generally contracted gaussian basis sets)     Author: Roland Lindh, 1990

 Geometry written to block  1 of record 700


 Point group  Cs  



 ATOMIC COORDINATES

 NR  ATOM    CHARGE       X              Y              Z

   1  H       1.00    0.000000000    1.668011704   -1.926366037
   2  N       7.00    0.000000000   -0.165663853   -1.158250180
   3  O       8.00    0.000000000    0.039419938    1.134026626

 Bond lengths in Bohr (Angstrom)

 1-2  1.988056342  2-3  2.301432666
     ( 1.052034110)     ( 1.217865719)

 Bond angles

  1-2-3  107.61603570

 NUCLEAR CHARGE:                   16
 NUMBER OF PRIMITIVE AOS:         161
 NUMBER OF SYMMETRY AOS:          141
 NUMBER OF CONTRACTIONS:          115   (  76A'  +  39A"  )
 NUMBER OF CORE ORBITALS:           2   (   2A'  +   0A"  )
 NUMBER OF VALENCE ORBITALS:        9   (   7A'  +   2A"  )


 NUCLEAR REPULSION ENERGY   30.16133706

 Eigenvalues of metric

         1 0.235E-03 0.506E-03 0.182E-02 0.215E-02 0.262E-02 0.373E-02 0.433E-02 0.522E-02
         2 0.407E-02 0.102E-01 0.267E-01 0.374E-01 0.516E-01 0.624E-01 0.837E-01 0.120E+00


 Contracted 2-electron integrals neglected if value below      1.0D-22

       10790064. INTEGRALS WRITTEN OUT IN    2635 BLOCKS ON RECORD 1290 OF FILE 1


 NUMBER OF SORTED TWO-ELECTRON INTEGRALS:   11433631.     BUFFER LENGTH:  32768
 NUMBER OF SEGMENTS:   1  SEGMENT LENGTH:   11433631      RECORD LENGTH: 524288

 Memory used in sort:      11.99 MW

 SORT1 READ    10790064. AND WROTE    10943632. INTEGRALS IN     32 RECORDS. CPU TIME:     0.17 SEC, REAL TIME:     0.22 SEC
 SORT2 READ    10943632. AND WROTE    11433631. INTEGRALS IN      1 RECORDS. CPU TIME:     0.16 SEC, REAL TIME:     0.22 SEC

 FILE SIZES:   FILE 1:   193.0 MBYTE,  FILE 4:   134.3 MBYTE,   TOTAL:    327.2 MBYTE

 OPERATOR DM      FOR CENTER  0  COORDINATES:    0.000000    0.000000    0.000000


 **********************************************************************************************************************************
 DATASETS  * FILE   NREC   LENGTH (MB)   RECORD NAMES
              1      19      111.05       500      610      700      900      950      970     1000      129      960     1100   
                                          VAR    BASINP    GEOM    SYMINP    ZMAT    AOBASIS   BASIS     P2S    ABASIS      S 
                                         1400     1410     1200     1210     1080     1600     1650     1300     1700   
                                           T        V       H0       H01     AOSYM     SMH    MOLCAS    ERIS     OPER   

 PROGRAMS   *        TOTAL       INT
 CPU TIMES  *         1.29      1.21
 REAL TIME  *         1.90 SEC
 DISK USED  *       327.55 MB      
 **********************************************************************************************************************************


 PROGRAM * RHF-SCF (CLOSED SHELL)       Authors: W. Meyer, H.-J. Werner


 NUMBER OF ELECTRONS:       8+    8-
 CONVERGENCE THRESHOLDS:    1.00E-10 (Density)    1.00E-13 (Energy)
 MAX. NUMBER OF ITERATIONS:      500
 INTERPOLATION TYPE:            DIIS
 INTERPOLATION STEPS:              2 (START)      1 (STEP)
 LEVEL SHIFTS:                  0.00 (CLOSED)  0.00 (OPEN) 



 Orbital guess generated from atomic densities. Full valence occupancy:    9   2

 Molecular orbital dump at record        2100.2

 Initial occupancy:   7   1

 ITERATION    DDIFF          GRAD             ENERGY        2-EL.EN.            DIPOLE MOMENTS         DIIS   ORB.
    1      0.000D+00      0.000D+00      -129.78538644    153.527165    0.00000    0.59130   -1.05198    0    start
    2      0.000D+00      0.109D-01      -129.81250900    154.771740    0.00000    0.61740   -0.20225    1    diag
    3      0.121D-01      0.851D-02      -129.83688232    154.906864    0.00000    0.55955   -0.60503    2    diag
    4      0.610D-02      0.129D-02      -129.83769345    154.611071    0.00000    0.56703   -0.54369    3    diag
    5      0.108D-02      0.428D-03      -129.83782343    154.705775    0.00000    0.57256   -0.54628    4    diag
    6      0.458D-03      0.123D-03      -129.83784424    154.690050    0.00000    0.57287   -0.54201    5    diag
    7      0.175D-03      0.618D-04      -129.83785038    154.692465    0.00000    0.57409   -0.53930    6    diag
    8      0.122D-03      0.216D-04      -129.83785109    154.691771    0.00000    0.57411   -0.53822    7    diag
    9      0.479D-04      0.413D-05      -129.83785113    154.691656    0.00000    0.57407   -0.53799    8    diag
   10      0.938D-05      0.919D-06      -129.83785113    154.691637    0.00000    0.57404   -0.53796    9    orth
   11      0.180D-05      0.181D-06      -129.83785113    154.691634    0.00000    0.57403   -0.53796    9    diag
   12      0.340D-06      0.380D-07      -129.83785113    154.691634    0.00000    0.57403   -0.53796    9    diag
   13      0.735D-07      0.987D-08      -129.83785113    154.691634    0.00000    0.57403   -0.53796    9    diag
   14      0.198D-07      0.202D-08      -129.83785113    154.691633    0.00000    0.57403   -0.53796    9    diag
   15      0.379D-08      0.553D-09      -129.83785113    154.691633    0.00000    0.57403   -0.53796    9    diag
   16      0.104D-08      0.145D-09      -129.83785113    154.691633    0.00000    0.57403   -0.53796    9    diag
   17      0.171D-09      0.392D-10      -129.83785113    154.691633    0.00000    0.57403   -0.53796    9    diag
   18      0.462D-10      0.135D-10      -129.83785113    154.691633    0.00000    0.57403   -0.53796    9    diag
   19      0.235D-10      0.273D-11      -129.83785113    154.691633    0.00000    0.57403   -0.53796    9    fixocc
   20      0.537D-11      0.398D-12      -129.83785113    154.691633    0.00000    0.57403   -0.53796    0    orth

 Final occupancy:   7   1

 !RHF STATE 1.1 Energy               -129.837851127875
 Nuclear energy                        30.16133706
 One-electron energy                 -237.34500493
 Two-electron energy                   77.34581674
 Virial quotient                       -1.00243329
 !RHF STATE 1.1 Dipole moment           0.00000000     0.57402706    -0.53796182
 Dipole moment /Debye                   0.00000000     1.45893569    -1.36727301

 Orbital energies:

         1.1          2.1          3.1          4.1          5.1          6.1          7.1          8.1          9.1
    -20.657374   -15.716280    -1.523037    -0.997012    -0.744327    -0.663168    -0.433842     0.029092     0.092159

         1.2          2.2          3.2
     -0.591647     0.062189     0.129969

 HOMO      7.1    -0.433842 =     -11.8054eV
 LUMO      8.1     0.029092 =       0.7916eV
 LUMO-HOMO         0.462933 =      12.5971eV


 **********************************************************************************************************************************
 DATASETS  * FILE   NREC   LENGTH (MB)   RECORD NAMES
              1      19      111.05       500      610      700      900      950      970     1000      129      960     1100   
                                          VAR    BASINP    GEOM    SYMINP    ZMAT    AOBASIS   BASIS     P2S    ABASIS      S 
                                         1400     1410     1200     1210     1080     1600     1650     1300     1700   
                                           T        V       H0       H01     AOSYM     SMH    MOLCAS    ERIS     OPER   

              2       4        2.94       700     1000      520     2100   
                                         GEOM     BASIS   MCVARS     RHF  

 PROGRAMS   *        TOTAL        HF       INT
 CPU TIMES  *         2.31      1.02      1.21
 REAL TIME  *         3.25 SEC
 DISK USED  *       327.55 MB      
 **********************************************************************************************************************************


 PROGRAM * CCSD (Closed-shell coupled cluster)     Authors: C. Hampel, H.-J. Werner, 1991, M. Deegan, P.J. Knowles, 1992


 Convergence thresholds:  THRVAR = 1.00D-08  THRDEN = 1.00D-12

 CCSD(T)     terms to be evaluated (factor= 1.000)


 Number of core orbitals:           2 (   2   0 )
 Number of closed-shell orbitals:   6 (   5   1 )
 Number of external orbitals:     107 (  69  38 )

 Molecular orbitals read from record     2100.2  Type=RHF/CANONICAL (state 1.1)

 Number of N-1 electron functions:               6
 Number of N-2 electron functions:              21
 Number of singly external CSFs:               383
 Number of doubly external CSFs:            107206
 Total number of CSFs:                      107590

 Length of J-op  integral file:               0.00 MB
 Length of K-op  integral file:               0.54 MB
 Length of 3-ext integral record:             0.00 MB

 Memory could be reduced to 5.94 Mwords without degradation in triples

 Integral transformation finished. Total CPU:   0.13 sec, npass=  1  Memory used:   1.65 MW

 Reference energy:                   -129.83785113

 MP2 singlet pair energy:              -0.28049239
 MP2 triplet pair energy:              -0.16588722
 MP2 correlation energy:               -0.44637961
 MP2 total energy:                   -130.28423074

 SCS-MP2 correlation energy:           -0.43980958   (PS=  1.200000  PT=  0.333333)
 SCS-MP2 total energy:               -130.27766071

 ITER.      SQ.NORM     CORR.ENERGY   TOTAL ENERGY   ENERGY CHANGE        DEN1      VAR(S)    VAR(P)  DIIS     TIME  TIME/IT
   1      1.12202122    -0.45010115  -130.28795228    -0.00372154     0.01275641  0.33D-02  0.33D-02  1  1     0.27     0.15
   2      1.13338694    -0.45022099  -130.28807212    -0.00011984    -0.01268515  0.11D-03  0.53D-03  2  2     0.42     0.16
   3      1.14008733    -0.45063715  -130.28848828    -0.00041616    -0.00306936  0.56D-04  0.53D-04  3  3     0.56     0.16
   4      1.14309481    -0.45064959  -130.28850072    -0.00001244    -0.00100878  0.45D-05  0.96D-05  4  4     0.71     0.16
   5      1.14420413    -0.45068027  -130.28853140    -0.00003068    -0.00023438  0.12D-05  0.16D-05  5  5     0.86     0.16
   6      1.14456048    -0.45066198  -130.28851311     0.00001830    -0.00004395  0.10D-06  0.39D-06  6  6     0.99     0.16
   7      1.14463436    -0.45066335  -130.28851448    -0.00000138    -0.00000136  0.18D-07  0.94D-07  6  1     1.12     0.16
   8      1.14465580    -0.45066391  -130.28851504    -0.00000056     0.00000158  0.34D-08  0.18D-07  6  2     1.26     0.16
   9      1.14466455    -0.45066330  -130.28851443     0.00000061    -0.00000086  0.26D-08  0.19D-08  6  3     1.40     0.16
  10      1.14466474    -0.45066383  -130.28851496    -0.00000053    -0.00000003  0.52D-09  0.27D-09  6  4     1.54     0.16
  11      1.14466310    -0.45066395  -130.28851508    -0.00000012     0.00000053  0.16D-09  0.34D-10  6  5     1.68     0.16
  12      1.14466176    -0.45066414  -130.28851527    -0.00000019     0.00000042  0.16D-10  0.95D-11  6  6     1.81     0.16
  13      1.14466101    -0.45066417  -130.28851529    -0.00000002     0.00000018  0.57D-11  0.18D-11  6  1     1.93     0.16
  14      1.14466056    -0.45066419  -130.28851532    -0.00000002     0.00000010  0.87D-12  0.58D-12  6  2     2.07     0.16
  15      1.14466037    -0.45066419  -130.28851532    -0.00000000     0.00000002  0.26D-12  0.17D-12  6  3     2.21     0.16
  16      1.14466028    -0.45066420  -130.28851532    -0.00000000     0.00000001  0.43D-13  0.61D-13  6  4     2.35     0.16
  17      1.14466022    -0.45066420  -130.28851533    -0.00000000     0.00000001  0.28D-14  0.14D-13  6  5     2.50     0.16
  18      1.14466021    -0.45066420  -130.28851533     0.00000000     0.00000000  0.11D-14  0.32D-14  6  6     2.66     0.16
  19      1.14466022    -0.45066420  -130.28851533     0.00000000    -0.00000000  0.14D-15  0.23D-15  6  5     2.80     0.16
  20      1.14466022    -0.45066420  -130.28851533    -0.00000000    -0.00000000  0.58D-16  0.39D-16  6  1     2.96     0.16
  21      1.14466022    -0.45066420  -130.28851533     0.00000000     0.00000000  0.13D-16  0.87D-17  6  2     3.12     0.16
  22      1.14466021    -0.45066420  -130.28851533    -0.00000000     0.00000000  0.36D-17  0.10D-17  6  3     3.27     0.16
  23      1.14466021    -0.45066420  -130.28851533     0.00000000     0.00000000  0.89D-18  0.31D-18  6  4     3.41     0.17
  24      1.14466021    -0.45066420  -130.28851533    -0.00000000     0.00000000  0.26D-18  0.57D-19  6  6     3.55     0.16
  25      1.14466021    -0.45066420  -130.28851533     0.00000000    -0.00000000  0.45D-19  0.26D-19  6  5     3.69     0.16
  26      1.14466021    -0.45066420  -130.28851533     0.00000000    -0.00000000  0.68D-20  0.10D-19  6  1     3.83     0.16
  27      1.14466021    -0.45066420  -130.28851533    -0.00000000    -0.00000000  0.31D-21  0.14D-20  6  3     3.98     0.16
  28      1.14466021    -0.45066420  -130.28851533     0.00000000     0.00000000  0.74D-22  0.19D-21  6  2     4.12     0.16

 Norm of t1 vector:      0.07993548      S-energy:     0.00000000      T1 diagnostic:  0.01631676
                                                                       D1 diagnostic:  0.04338811

 Doubles amplitudes (print threshold =  0.500E-01):

         I         J         SYM. A    SYM. B    A         B      T(IJ, AB)

         6         6         2         2         1         1     -0.11327531


 Total CPU time for triples:      1.13 sec


 RESULTS
 =======

  Reference energy                   -129.837851127875
  CCSD singlet pair energy             -0.309224653274
  CCSD triplet pair energy             -0.141439546298
  CCSD correlation energy              -0.450664199572

  Triples (T) contribution             -0.021217703504
  Total correlation energy             -0.471881903076

  CCSD total energy                  -130.288515327447
  CCSD[T] energy                     -130.310840823323
  CCSD-T energy                      -130.309319103054
 !CCSD(T) total energy               -130.309733030951

 Timing summary (sec):

 STEP                 CPU(USER)    SYS     CPU(TOT)    WALL
 Transformation          0.13      0.04      0.17      0.17
 CCSD iterations         3.99      0.64      4.63      4.63
 Triples                 1.13      0.04      1.17      1.18

 Program statistics:

 Available memory in ccsd:               994999756
 Min. memory needed in ccsd:                389120
 Max. memory used in ccsd:                  473124
 Max. memory used in cckext:                599488 (28 integral passes)



 **********************************************************************************************************************************
 DATASETS  * FILE   NREC   LENGTH (MB)   RECORD NAMES
              1      20      128.20       500      610      700      900      950      970     1000      129      960     1100   
                                          VAR    BASINP    GEOM    SYMINP    ZMAT    AOBASIS   BASIS     P2S    ABASIS      S 
                                         1400     1410     1200     1210     1080     1600     1650     1300     1700     1380   
                                           T        V       H0       H01     AOSYM     SMH    MOLCAS    ERIS     OPER     JKOP   

              2       4        2.94       700     1000      520     2100   
                                         GEOM     BASIS   MCVARS     RHF  

 PROGRAMS   *        TOTAL   CCSD(T)        HF       INT
 CPU TIMES  *         7.59      5.28      1.02      1.21
 REAL TIME  *         9.28 SEC
 DISK USED  *       327.55 MB      
 **********************************************************************************************************************************

 CCSD(T)/aug-cc-pVTZ energy=   -130.309733030951

        CCSD(T)         HF-SCF  
   -130.30973303   -129.83785113
 **********************************************************************************************************************************
 Molpro calculation terminated
 Variable memory released
