
 Primary working directories    : /tmp/r2666/282142.maple
 Secondary working directories  : /tmp/r2666/282142.maple
 Wavefunction directory         : /ddn/home4/r2666/wfu/
 Main file repository           : /tmp/r2666/282142.maple/

 SHA1      : d5ffa45e93fdbca01ffc919aa182cfdae0147319
 NAME      : 2015.1.35
 ARCHNAME  : linux/x86_64
 FC        : /opt/intel/composer_xe_2015.1.133/bin/intel64/ifort
 BLASLIB   : -Wl,-_start-group /opt/intel/mkl/lib/intel64/libmkl_intel_ilp64.a /opt/intel/mkl/lib/intel64/libmkl_intel_thread.a /opt/intel/mkl/lib/intel64/libmkl_core.a -Wl,-_end-group
 id        : olemiss

 Nodes     nprocs
 cn074        1

 Using customized tuning parameters: mindgm=1; mindgv=20; mindgc=4; mindgr=1; noblas=0; minvec=7
 default implementation of scratch files=df  

 ***,hno CCSD(T)/TZ-F12 QFF
 memory, 995, m;
 gthresh,energy=1.d-12,zero=1.d-22,oneint=1.d-22,twoint=1.d-22;
 gthresh,optgrad=1.d-8,optstep=1.d-8;
 nocompress;
 geomtyp=xyz
 bohr
 geometry={
 3
         39        39
 H        0.0000000000        1.6631024700       -1.9277628784
 N        0.0000000000       -0.1576360401       -1.1532954767
 O        0.0000000000        0.0363013601        1.1304687642
 }
 
 basis=avtz
   {hf,maxit=500;accu,20;}
 {ccsd(t),nocheck,maxit=250;orbital,IGNORE_ERROR;}

 Variables initialized (889), CPU time= 0.00 sec
 Commands  initialized (702), CPU time= 0.01 sec, 572 directives.
 Default parameters read. Elapsed time= 0.04 sec

 Checking input...
 Passed
1


                                         ***  PROGRAM SYSTEM MOLPRO  ***
                                       Copyright, TTI GmbH Stuttgart, 2015
                                    Version 2015.1 linked Jul  9 2018 13:16:40


 **********************************************************************************************************************************
 LABEL *   hno CCSD(T)/TZ-F12 QFF                                                        
  64 bit serial version                                                                  DATE: 04-Mar-20          TIME: 13:46:09  
 **********************************************************************************************************************************

 SHA1:             d5ffa45e93fdbca01ffc919aa182cfdae0147319
 **********************************************************************************************************************************

 THRESHOLDS:

 ZERO    =  1.00D-22  ONEINT  =  1.00D-22  TWOINT  =  1.00D-22  PREFAC  =  1.00D-14  LOCALI  =  1.00D-09  EORDER  =  1.00D-04
 ENERGY  =  1.00D-12  ETEST   =  0.00D+00  EDENS   =  0.00D+00  THRDEDEF=  1.00D-06  GRADIENT=  1.00D-02  STEP    =  1.00D-03
 ORBITAL =  1.00D-05  CIVEC   =  1.00D-05  COEFF   =  1.00D-04  PRINTCI =  5.00D-02  PUNCHCI =  9.90D+01  OPTGRAD =  3.00D-04
 OPTENERG=  1.00D-06  OPTSTEP =  3.00D-04  THRGRAD =  1.00D-10  COMPRESS=  1.00D-11  VARMIN  =  1.00D-07  VARMAX  =  1.00D-03
 THRDOUB =  0.00D+00  THRDIV  =  1.00D-05  THRRED  =  1.00D-07  THRPSP  =  1.00D+00  THRDC   =  1.00D-10  THRCS   =  1.00D-10
 THRNRM  =  1.00D-08  THREQ   =  0.00D+00  THRDE   =  1.00D+00  THRREF  =  1.00D-05  SPARFAC =  1.00D+00  THRDLP  =  1.00D-07
 THRDIA  =  1.00D-10  THRDLS  =  1.00D-07  THRGPS  =  0.00D+00  THRKEX  =  0.00D+00  THRDIS  =  2.00D-01  THRVAR  =  1.00D-10
 THRLOC  =  1.00D-06  THRGAP  =  1.00D-06  THRLOCT = -1.00D+00  THRGAPT = -1.00D+00  THRORB  =  1.00D-06  THRMLTP =  0.00D+00
 THRCPQCI=  1.00D-10  KEXTA   =  0.00D+00  THRCOARS=  0.00D+00  SYMTOL  =  1.00D-06  GRADTOL =  1.00D-06  THROVL  =  1.00D-08
 THRORTH =  1.00D-08  GRID    =  1.00D-06  GRIDMAX =  1.00D-03  DTMAX   =  0.00D+00  THROCCDE=  1.00D-01  THROCCDE=  1.00D-01



 THRESHOLDS:

 ZERO    =  1.00D-22  ONEINT  =  1.00D-22  TWOINT  =  1.00D-22  PREFAC  =  1.00D-14  LOCALI  =  1.00D-09  EORDER  =  1.00D-04
 ENERGY  =  1.00D-12  ETEST   =  0.00D+00  EDENS   =  0.00D+00  THRDEDEF=  1.00D-06  GRADIENT=  1.00D-02  STEP    =  1.00D-03
 ORBITAL =  1.00D-05  CIVEC   =  1.00D-05  COEFF   =  1.00D-04  PRINTCI =  5.00D-02  PUNCHCI =  9.90D+01  OPTGRAD =  1.00D-08
 OPTENERG=  1.00D-06  OPTSTEP =  1.00D-08  THRGRAD =  1.00D-10  COMPRESS=  1.00D-11  VARMIN  =  1.00D-07  VARMAX  =  1.00D-03
 THRDOUB =  0.00D+00  THRDIV  =  1.00D-05  THRRED  =  1.00D-07  THRPSP  =  1.00D+00  THRDC   =  1.00D-10  THRCS   =  1.00D-10
 THRNRM  =  1.00D-08  THREQ   =  0.00D+00  THRDE   =  1.00D+00  THRREF  =  1.00D-05  SPARFAC =  1.00D+00  THRDLP  =  1.00D-07
 THRDIA  =  1.00D-10  THRDLS  =  1.00D-07  THRGPS  =  0.00D+00  THRKEX  =  0.00D+00  THRDIS  =  2.00D-01  THRVAR  =  1.00D-10
 THRLOC  =  1.00D-06  THRGAP  =  1.00D-06  THRLOCT = -1.00D+00  THRGAPT = -1.00D+00  THRORB  =  1.00D-06  THRMLTP =  0.00D+00
 THRCPQCI=  1.00D-10  KEXTA   =  0.00D+00  THRCOARS=  0.00D+00  SYMTOL  =  1.00D-06  GRADTOL =  1.00D-06  THROVL  =  1.00D-08
 THRORTH =  1.00D-08  GRID    =  1.00D-06  GRIDMAX =  1.00D-03  DTMAX   =  0.00D+00  THROCCDE=  1.00D-01  THROCCDE=  1.00D-01



 Input parameters for SORTINT:

 COMPRESS =    0.000000
 C_FINAL  =    1.000000
 DEBUG    =   -1.000000
 C_SORT1  =    0.000000
 C_SEWARD =    0.000000
 THRESH   =    0.000000
 IO       =  molpro                                                          
 SPRI     =    0.000000
 SETTING GEOMTYP        =    XYZ
 ZUNIT=BOHR
 

 Variable memory set to  995000000 words,  buffer space   230000 words

 SETTING BASIS          =    AVTZ


 Recomputing integrals since basis changed


 Using spherical harmonics

 Library entry H      S aug-cc-pVTZ          selected for orbital group  1
 Library entry H      P aug-cc-pVTZ          selected for orbital group  1
 Library entry H      D aug-cc-pVTZ          selected for orbital group  1
 Library entry N      S aug-cc-pVTZ          selected for orbital group  2
 Library entry N      P aug-cc-pVTZ          selected for orbital group  2
 Library entry N      D aug-cc-pVTZ          selected for orbital group  2
 Library entry N      F aug-cc-pVTZ          selected for orbital group  2
 Library entry O      S aug-cc-pVTZ          selected for orbital group  3
 Library entry O      P aug-cc-pVTZ          selected for orbital group  3
 Library entry O      D aug-cc-pVTZ          selected for orbital group  3
 Library entry O      F aug-cc-pVTZ          selected for orbital group  3


 PROGRAM * SEWARD (Integral evaluation for generally contracted gaussian basis sets)     Author: Roland Lindh, 1990

 Geometry written to block  1 of record 700


 Point group  Cs  



 ATOMIC COORDINATES

 NR  ATOM    CHARGE       X              Y              Z

   1  H       1.00    0.000000000    1.663102470   -1.927762878
   2  N       7.00    0.000000000   -0.157636040   -1.153295477
   3  O       8.00    0.000000000    0.036301360    1.130468764

 Bond lengths in Bohr (Angstrom)

 1-2  1.978607712  2-3  2.291984036
     ( 1.047034111)     ( 1.212865720)

 Bond angles

  1-2-3  108.18899349

 NUCLEAR CHARGE:                   16
 NUMBER OF PRIMITIVE AOS:         161
 NUMBER OF SYMMETRY AOS:          141
 NUMBER OF CONTRACTIONS:          115   (  76A'  +  39A"  )
 NUMBER OF CORE ORBITALS:           2   (   2A'  +   0A"  )
 NUMBER OF VALENCE ORBITALS:        9   (   7A'  +   2A"  )


 NUCLEAR REPULSION ENERGY   30.28029324

 Eigenvalues of metric

         1 0.233E-03 0.499E-03 0.181E-02 0.212E-02 0.257E-02 0.365E-02 0.430E-02 0.512E-02
         2 0.400E-02 0.100E-01 0.264E-01 0.371E-01 0.513E-01 0.620E-01 0.822E-01 0.120E+00


 Contracted 2-electron integrals neglected if value below      1.0D-22

       10790064. INTEGRALS WRITTEN OUT IN    2635 BLOCKS ON RECORD 1290 OF FILE 1


 NUMBER OF SORTED TWO-ELECTRON INTEGRALS:   11433631.     BUFFER LENGTH:  32768
 NUMBER OF SEGMENTS:   1  SEGMENT LENGTH:   11433631      RECORD LENGTH: 524288

 Memory used in sort:      11.99 MW

 SORT1 READ    10790064. AND WROTE    10943632. INTEGRALS IN     32 RECORDS. CPU TIME:     0.16 SEC, REAL TIME:     0.22 SEC
 SORT2 READ    10943632. AND WROTE    11433631. INTEGRALS IN      1 RECORDS. CPU TIME:     0.16 SEC, REAL TIME:     0.22 SEC

 FILE SIZES:   FILE 1:   193.0 MBYTE,  FILE 4:   134.3 MBYTE,   TOTAL:    327.2 MBYTE

 OPERATOR DM      FOR CENTER  0  COORDINATES:    0.000000    0.000000    0.000000


 **********************************************************************************************************************************
 DATASETS  * FILE   NREC   LENGTH (MB)   RECORD NAMES
              1      19      111.05       500      610      700      900      950      970     1000      129      960     1100   
                                          VAR    BASINP    GEOM    SYMINP    ZMAT    AOBASIS   BASIS     P2S    ABASIS      S 
                                         1400     1410     1200     1210     1080     1600     1650     1300     1700   
                                           T        V       H0       H01     AOSYM     SMH    MOLCAS    ERIS     OPER   

 PROGRAMS   *        TOTAL       INT
 CPU TIMES  *         1.28      1.19
 REAL TIME  *         1.97 SEC
 DISK USED  *       327.55 MB      
 **********************************************************************************************************************************


 PROGRAM * RHF-SCF (CLOSED SHELL)       Authors: W. Meyer, H.-J. Werner


 NUMBER OF ELECTRONS:       8+    8-
 CONVERGENCE THRESHOLDS:    1.00E-10 (Density)    1.00E-13 (Energy)
 MAX. NUMBER OF ITERATIONS:      500
 INTERPOLATION TYPE:            DIIS
 INTERPOLATION STEPS:              2 (START)      1 (STEP)
 LEVEL SHIFTS:                  0.00 (CLOSED)  0.00 (OPEN) 



 Orbital guess generated from atomic densities. Full valence occupancy:    9   2

 Molecular orbital dump at record        2100.2

 Initial occupancy:   7   1

 ITERATION    DDIFF          GRAD             ENERGY        2-EL.EN.            DIPOLE MOMENTS         DIIS   ORB.
    1      0.000D+00      0.000D+00      -129.78736490    153.740596    0.00000    0.59734   -1.03619    0    start
    2      0.000D+00      0.108D-01      -129.81467575    154.993408    0.00000    0.61421   -0.20953    1    diag
    3      0.120D-01      0.832D-02      -129.83788455    155.117519    0.00000    0.56117   -0.60043    2    diag
    4      0.598D-02      0.129D-02      -129.83868568    154.826004    0.00000    0.56853   -0.53971    3    diag
    5      0.108D-02      0.423D-03      -129.83881250    154.920014    0.00000    0.57405   -0.54241    4    diag
    6      0.452D-03      0.122D-03      -129.83883267    154.904446    0.00000    0.57440   -0.53825    5    diag
    7      0.172D-03      0.607D-04      -129.83883855    154.906885    0.00000    0.57562   -0.53562    6    diag
    8      0.119D-03      0.209D-04      -129.83883921    154.906217    0.00000    0.57564   -0.53459    7    diag
    9      0.458D-04      0.397D-05      -129.83883924    154.906107    0.00000    0.57560   -0.53437    8    diag
   10      0.889D-05      0.897D-06      -129.83883924    154.906089    0.00000    0.57557   -0.53434    9    orth
   11      0.176D-05      0.177D-06      -129.83883924    154.906086    0.00000    0.57556   -0.53434    9    diag
   12      0.334D-06      0.367D-07      -129.83883924    154.906086    0.00000    0.57556   -0.53434    9    diag
   13      0.717D-07      0.935D-08      -129.83883924    154.906086    0.00000    0.57556   -0.53434    9    diag
   14      0.190D-07      0.192D-08      -129.83883924    154.906086    0.00000    0.57556   -0.53434    9    diag
   15      0.368D-08      0.530D-09      -129.83883924    154.906086    0.00000    0.57556   -0.53434    9    diag
   16      0.101D-08      0.141D-09      -129.83883924    154.906086    0.00000    0.57556   -0.53434    9    diag
   17      0.170D-09      0.382D-10      -129.83883924    154.906086    0.00000    0.57556   -0.53434    9    diag
   18      0.458D-10      0.133D-10      -129.83883924    154.906086    0.00000    0.57556   -0.53434    9    diag
   19      0.235D-10      0.278D-11      -129.83883924    154.906086    0.00000    0.57556   -0.53434    9    fixocc
   20      0.579D-11      0.466D-12      -129.83883924    154.906086    0.00000    0.57556   -0.53434    9    orth
   21      0.136D-11      0.168D-12      -129.83883924    154.906086    0.00000    0.57556   -0.53434    0    orth

 Final occupancy:   7   1

 !RHF STATE 1.1 Energy               -129.838839241304
 Nuclear energy                        30.28029324
 One-electron energy                 -237.57217538
 Two-electron energy                   77.45304290
 Virial quotient                       -1.00224318
 !RHF STATE 1.1 Dipole moment           0.00000000     0.57555724    -0.53433879
 Dipole moment /Debye                   0.00000000     1.46282477    -1.35806479

 Orbital energies:

         1.1          2.1          3.1          4.1          5.1          6.1          7.1          8.1          9.1
    -20.656946   -15.714640    -1.526844    -0.997462    -0.746368    -0.664697    -0.432248     0.029117     0.092150

         1.2          2.2          3.2
     -0.593840     0.063498     0.129976

 HOMO      7.1    -0.432248 =     -11.7621eV
 LUMO      8.1     0.029117 =       0.7923eV
 LUMO-HOMO         0.461365 =      12.5544eV


 **********************************************************************************************************************************
 DATASETS  * FILE   NREC   LENGTH (MB)   RECORD NAMES
              1      19      111.05       500      610      700      900      950      970     1000      129      960     1100   
                                          VAR    BASINP    GEOM    SYMINP    ZMAT    AOBASIS   BASIS     P2S    ABASIS      S 
                                         1400     1410     1200     1210     1080     1600     1650     1300     1700   
                                           T        V       H0       H01     AOSYM     SMH    MOLCAS    ERIS     OPER   

              2       4        2.94       700     1000      520     2100   
                                         GEOM     BASIS   MCVARS     RHF  

 PROGRAMS   *        TOTAL        HF       INT
 CPU TIMES  *         2.33      1.05      1.19
 REAL TIME  *         3.32 SEC
 DISK USED  *       327.55 MB      
 **********************************************************************************************************************************


 PROGRAM * CCSD (Closed-shell coupled cluster)     Authors: C. Hampel, H.-J. Werner, 1991, M. Deegan, P.J. Knowles, 1992


 Convergence thresholds:  THRVAR = 1.00D-08  THRDEN = 1.00D-12

 CCSD(T)     terms to be evaluated (factor= 1.000)


 Number of core orbitals:           2 (   2   0 )
 Number of closed-shell orbitals:   6 (   5   1 )
 Number of external orbitals:     107 (  69  38 )

 Molecular orbitals read from record     2100.2  Type=RHF/CANONICAL (state 1.1)

 Number of N-1 electron functions:               6
 Number of N-2 electron functions:              21
 Number of singly external CSFs:               383
 Number of doubly external CSFs:            107206
 Total number of CSFs:                      107590

 Length of J-op  integral file:               0.00 MB
 Length of K-op  integral file:               0.54 MB
 Length of 3-ext integral record:             0.00 MB

 Memory could be reduced to 5.94 Mwords without degradation in triples

 Integral transformation finished. Total CPU:   0.13 sec, npass=  1  Memory used:   1.65 MW

 Reference energy:                   -129.83883924

 MP2 singlet pair energy:              -0.27984162
 MP2 triplet pair energy:              -0.16546156
 MP2 correlation energy:               -0.44530317
 MP2 total energy:                   -130.28414241

 SCS-MP2 correlation energy:           -0.43876380   (PS=  1.200000  PT=  0.333333)
 SCS-MP2 total energy:               -130.27760304

 ITER.      SQ.NORM     CORR.ENERGY   TOTAL ENERGY   ENERGY CHANGE        DEN1      VAR(S)    VAR(P)  DIIS     TIME  TIME/IT
   1      1.12131669    -0.44923473  -130.28807398    -0.00393156     0.01229926  0.32D-02  0.32D-02  1  1     0.28     0.16
   2      1.13253256    -0.44939617  -130.28823541    -0.00016144    -0.01253909  0.10D-03  0.52D-03  2  2     0.42     0.16
   3      1.13910425    -0.44980171  -130.28864095    -0.00040554    -0.00302559  0.54D-04  0.52D-04  3  3     0.55     0.16
   4      1.14204616    -0.44981418  -130.28865342    -0.00001247    -0.00099014  0.43D-05  0.94D-05  4  4     0.69     0.16
   5      1.14312201    -0.44984363  -130.28868287    -0.00002945    -0.00022730  0.11D-05  0.17D-05  5  5     0.84     0.16
   6      1.14347082    -0.44982606  -130.28866531     0.00001756    -0.00004280  0.97D-07  0.40D-06  6  6     0.98     0.16
   7      1.14354491    -0.44982743  -130.28866667    -0.00000137    -0.00000153  0.18D-07  0.95D-07  6  1     1.12     0.16
   8      1.14356622    -0.44982808  -130.28866732    -0.00000065     0.00000162  0.36D-08  0.17D-07  6  2     1.27     0.16
   9      1.14357484    -0.44982750  -130.28866674     0.00000058    -0.00000087  0.26D-08  0.18D-08  6  3     1.42     0.16
  10      1.14357498    -0.44982802  -130.28866726    -0.00000052    -0.00000002  0.51D-09  0.26D-09  6  4     1.57     0.16
  11      1.14357334    -0.44982814  -130.28866738    -0.00000012     0.00000054  0.15D-09  0.33D-10  6  5     1.72     0.16
  12      1.14357202    -0.44982833  -130.28866757    -0.00000019     0.00000042  0.16D-10  0.92D-11  6  6     1.87     0.16
  13      1.14357129    -0.44982835  -130.28866759    -0.00000002     0.00000017  0.55D-11  0.18D-11  6  1     2.02     0.16
  14      1.14357085    -0.44982837  -130.28866761    -0.00000002     0.00000009  0.86D-12  0.56D-12  6  2     2.17     0.16
  15      1.14357067    -0.44982838  -130.28866762    -0.00000000     0.00000002  0.25D-12  0.17D-12  6  3     2.32     0.16
  16      1.14357058    -0.44982838  -130.28866762    -0.00000000     0.00000001  0.41D-13  0.62D-13  6  4     2.48     0.17
  17      1.14357053    -0.44982838  -130.28866762    -0.00000000     0.00000001  0.27D-14  0.14D-13  6  5     2.63     0.17
  18      1.14357052    -0.44982838  -130.28866762     0.00000000     0.00000000  0.11D-14  0.32D-14  6  6     2.78     0.17
  19      1.14357052    -0.44982838  -130.28866762     0.00000000     0.00000000  0.82D-15  0.51D-15  6  1     2.94     0.17
  20      1.14357052    -0.44982838  -130.28866762     0.00000000    -0.00000000  0.14D-15  0.86D-16  6  2     3.08     0.17
  21      1.14357052    -0.44982838  -130.28866762     0.00000000     0.00000000  0.64D-16  0.19D-16  6  3     3.23     0.17
  22      1.14357052    -0.44982838  -130.28866762     0.00000000    -0.00000000  0.32D-17  0.39D-17  6  5     3.37     0.17
  23      1.14357052    -0.44982838  -130.28866762     0.00000000     0.00000000  0.11D-17  0.34D-18  6  4     3.51     0.17
  24      1.14357052    -0.44982838  -130.28866762    -0.00000000    -0.00000000  0.28D-18  0.86D-19  6  6     3.65     0.17
  25      1.14357052    -0.44982838  -130.28866762     0.00000000    -0.00000000  0.35D-19  0.18D-19  6  1     3.80     0.17

 Norm of t1 vector:      0.07903575      S-energy:     0.00000000      T1 diagnostic:  0.01613310
                                                                       D1 diagnostic:  0.04274236

 Doubles amplitudes (print threshold =  0.500E-01):

         I         J         SYM. A    SYM. B    A         B      T(IJ, AB)

         6         6         2         2         1         1     -0.11113743


 Total CPU time for triples:      1.12 sec


 RESULTS
 =======

  Reference energy                   -129.838839241304
  CCSD singlet pair energy             -0.308506635979
  CCSD triplet pair energy             -0.141321743733
  CCSD correlation energy              -0.449828379707

  Triples (T) contribution             -0.021033355996
  Total correlation energy             -0.470861735703

  CCSD total energy                  -130.288667621011
  CCSD[T] energy                     -130.310784102558
  CCSD-T energy                      -130.309293426835
 !CCSD(T) total energy               -130.309700977007

 Timing summary (sec):

 STEP                 CPU(USER)    SYS     CPU(TOT)    WALL
 Transformation          0.14      0.03      0.17      0.18
 CCSD iterations         3.66      0.51      4.17      4.17
 Triples                 1.12      0.06      1.18      1.18

 Program statistics:

 Available memory in ccsd:               994999756
 Min. memory needed in ccsd:                389120
 Max. memory used in ccsd:                  473124
 Max. memory used in cckext:                599488 (25 integral passes)



 **********************************************************************************************************************************
 DATASETS  * FILE   NREC   LENGTH (MB)   RECORD NAMES
              1      20      128.20       500      610      700      900      950      970     1000      129      960     1100   
                                          VAR    BASINP    GEOM    SYMINP    ZMAT    AOBASIS   BASIS     P2S    ABASIS      S 
                                         1400     1410     1200     1210     1080     1600     1650     1300     1700     1380   
                                           T        V       H0       H01     AOSYM     SMH    MOLCAS    ERIS     OPER     JKOP   

              2       4        2.94       700     1000      520     2100   
                                         GEOM     BASIS   MCVARS     RHF  

 PROGRAMS   *        TOTAL   CCSD(T)        HF       INT
 CPU TIMES  *         7.27      4.94      1.05      1.19
 REAL TIME  *         8.90 SEC
 DISK USED  *       327.55 MB      
 **********************************************************************************************************************************

 CCSD(T)/aug-cc-pVTZ energy=   -130.309700977007

        CCSD(T)         HF-SCF  
   -130.30970098   -129.83883924
 **********************************************************************************************************************************
 Molpro calculation terminated
 Variable memory released
