
 Primary working directories    : /tmp/r2666/282164.maple
 Secondary working directories  : /tmp/r2666/282164.maple
 Wavefunction directory         : /ddn/home4/r2666/wfu/
 Main file repository           : /tmp/r2666/282164.maple/

 SHA1      : d5ffa45e93fdbca01ffc919aa182cfdae0147319
 NAME      : 2015.1.35
 ARCHNAME  : linux/x86_64
 FC        : /opt/intel/composer_xe_2015.1.133/bin/intel64/ifort
 BLASLIB   : -Wl,-_start-group /opt/intel/mkl/lib/intel64/libmkl_intel_ilp64.a /opt/intel/mkl/lib/intel64/libmkl_intel_thread.a /opt/intel/mkl/lib/intel64/libmkl_core.a -Wl,-_end-group
 id        : olemiss

 Nodes     nprocs
 cn045        1

 Using customized tuning parameters: mindgm=1; mindgv=20; mindgc=4; mindgr=1; noblas=0; minvec=7
 default implementation of scratch files=df  

 ***,hno CCSD(T)/TZ-F12 QFF
 memory, 995, m;
 gthresh,energy=1.d-12,zero=1.d-22,oneint=1.d-22,twoint=1.d-22;
 gthresh,optgrad=1.d-8,optstep=1.d-8;
 nocompress;
 geomtyp=xyz
 bohr
 geometry={
 3
         61        61
 H        0.0000000000        1.6666363018       -1.9376186812
 N        0.0000000000       -0.1541043842       -1.1393258942
 O        0.0000000000        0.0292358723        1.1263549844
 }
 
 basis=avtz
   {hf,maxit=500;accu,20;}
 {ccsd(t),nocheck,maxit=250;orbital,IGNORE_ERROR;}

 Variables initialized (889), CPU time= 0.01 sec
 Commands  initialized (702), CPU time= 0.00 sec, 572 directives.
 Default parameters read. Elapsed time= 0.05 sec

 Checking input...
 Passed
1


                                         ***  PROGRAM SYSTEM MOLPRO  ***
                                       Copyright, TTI GmbH Stuttgart, 2015
                                    Version 2015.1 linked Jul  9 2018 13:16:40


 **********************************************************************************************************************************
 LABEL *   hno CCSD(T)/TZ-F12 QFF                                                        
  64 bit serial version                                                                  DATE: 04-Mar-20          TIME: 13:46:24  
 **********************************************************************************************************************************

 SHA1:             d5ffa45e93fdbca01ffc919aa182cfdae0147319
 **********************************************************************************************************************************

 THRESHOLDS:

 ZERO    =  1.00D-22  ONEINT  =  1.00D-22  TWOINT  =  1.00D-22  PREFAC  =  1.00D-14  LOCALI  =  1.00D-09  EORDER  =  1.00D-04
 ENERGY  =  1.00D-12  ETEST   =  0.00D+00  EDENS   =  0.00D+00  THRDEDEF=  1.00D-06  GRADIENT=  1.00D-02  STEP    =  1.00D-03
 ORBITAL =  1.00D-05  CIVEC   =  1.00D-05  COEFF   =  1.00D-04  PRINTCI =  5.00D-02  PUNCHCI =  9.90D+01  OPTGRAD =  3.00D-04
 OPTENERG=  1.00D-06  OPTSTEP =  3.00D-04  THRGRAD =  1.00D-10  COMPRESS=  1.00D-11  VARMIN  =  1.00D-07  VARMAX  =  1.00D-03
 THRDOUB =  0.00D+00  THRDIV  =  1.00D-05  THRRED  =  1.00D-07  THRPSP  =  1.00D+00  THRDC   =  1.00D-10  THRCS   =  1.00D-10
 THRNRM  =  1.00D-08  THREQ   =  0.00D+00  THRDE   =  1.00D+00  THRREF  =  1.00D-05  SPARFAC =  1.00D+00  THRDLP  =  1.00D-07
 THRDIA  =  1.00D-10  THRDLS  =  1.00D-07  THRGPS  =  0.00D+00  THRKEX  =  0.00D+00  THRDIS  =  2.00D-01  THRVAR  =  1.00D-10
 THRLOC  =  1.00D-06  THRGAP  =  1.00D-06  THRLOCT = -1.00D+00  THRGAPT = -1.00D+00  THRORB  =  1.00D-06  THRMLTP =  0.00D+00
 THRCPQCI=  1.00D-10  KEXTA   =  0.00D+00  THRCOARS=  0.00D+00  SYMTOL  =  1.00D-06  GRADTOL =  1.00D-06  THROVL  =  1.00D-08
 THRORTH =  1.00D-08  GRID    =  1.00D-06  GRIDMAX =  1.00D-03  DTMAX   =  0.00D+00  THROCCDE=  1.00D-01  THROCCDE=  1.00D-01



 THRESHOLDS:

 ZERO    =  1.00D-22  ONEINT  =  1.00D-22  TWOINT  =  1.00D-22  PREFAC  =  1.00D-14  LOCALI  =  1.00D-09  EORDER  =  1.00D-04
 ENERGY  =  1.00D-12  ETEST   =  0.00D+00  EDENS   =  0.00D+00  THRDEDEF=  1.00D-06  GRADIENT=  1.00D-02  STEP    =  1.00D-03
 ORBITAL =  1.00D-05  CIVEC   =  1.00D-05  COEFF   =  1.00D-04  PRINTCI =  5.00D-02  PUNCHCI =  9.90D+01  OPTGRAD =  1.00D-08
 OPTENERG=  1.00D-06  OPTSTEP =  1.00D-08  THRGRAD =  1.00D-10  COMPRESS=  1.00D-11  VARMIN  =  1.00D-07  VARMAX  =  1.00D-03
 THRDOUB =  0.00D+00  THRDIV  =  1.00D-05  THRRED  =  1.00D-07  THRPSP  =  1.00D+00  THRDC   =  1.00D-10  THRCS   =  1.00D-10
 THRNRM  =  1.00D-08  THREQ   =  0.00D+00  THRDE   =  1.00D+00  THRREF  =  1.00D-05  SPARFAC =  1.00D+00  THRDLP  =  1.00D-07
 THRDIA  =  1.00D-10  THRDLS  =  1.00D-07  THRGPS  =  0.00D+00  THRKEX  =  0.00D+00  THRDIS  =  2.00D-01  THRVAR  =  1.00D-10
 THRLOC  =  1.00D-06  THRGAP  =  1.00D-06  THRLOCT = -1.00D+00  THRGAPT = -1.00D+00  THRORB  =  1.00D-06  THRMLTP =  0.00D+00
 THRCPQCI=  1.00D-10  KEXTA   =  0.00D+00  THRCOARS=  0.00D+00  SYMTOL  =  1.00D-06  GRADTOL =  1.00D-06  THROVL  =  1.00D-08
 THRORTH =  1.00D-08  GRID    =  1.00D-06  GRIDMAX =  1.00D-03  DTMAX   =  0.00D+00  THROCCDE=  1.00D-01  THROCCDE=  1.00D-01



 Input parameters for SORTINT:

 COMPRESS =    0.000000
 C_FINAL  =    1.000000
 DEBUG    =   -1.000000
 C_SORT1  =    0.000000
 C_SEWARD =    0.000000
 THRESH   =    0.000000
 IO       =  molpro                                                          
 SPRI     =    0.000000
 SETTING GEOMTYP        =    XYZ
 ZUNIT=BOHR
 

 Variable memory set to  995000000 words,  buffer space   230000 words

 SETTING BASIS          =    AVTZ


 Recomputing integrals since basis changed


 Using spherical harmonics

 Library entry H      S aug-cc-pVTZ          selected for orbital group  1
 Library entry H      P aug-cc-pVTZ          selected for orbital group  1
 Library entry H      D aug-cc-pVTZ          selected for orbital group  1
 Library entry N      S aug-cc-pVTZ          selected for orbital group  2
 Library entry N      P aug-cc-pVTZ          selected for orbital group  2
 Library entry N      D aug-cc-pVTZ          selected for orbital group  2
 Library entry N      F aug-cc-pVTZ          selected for orbital group  2
 Library entry O      S aug-cc-pVTZ          selected for orbital group  3
 Library entry O      P aug-cc-pVTZ          selected for orbital group  3
 Library entry O      D aug-cc-pVTZ          selected for orbital group  3
 Library entry O      F aug-cc-pVTZ          selected for orbital group  3


 PROGRAM * SEWARD (Integral evaluation for generally contracted gaussian basis sets)     Author: Roland Lindh, 1990

 Geometry written to block  1 of record 700


 Point group  Cs  



 ATOMIC COORDINATES

 NR  ATOM    CHARGE       X              Y              Z

   1  H       1.00    0.000000000    1.666636302   -1.937618681
   2  N       7.00    0.000000000   -0.154104384   -1.139325894
   3  O       8.00    0.000000000    0.029235872    1.126354984

 Bond lengths in Bohr (Angstrom)

 1-2  1.988056342  2-3  2.273086776
     ( 1.052034110)     ( 1.202865721)

 Bond angles

  1-2-3  109.04843018

 NUCLEAR CHARGE:                   16
 NUMBER OF PRIMITIVE AOS:         161
 NUMBER OF SYMMETRY AOS:          141
 NUMBER OF CONTRACTIONS:          115   (  76A'  +  39A"  )
 NUMBER OF CORE ORBITALS:           2   (   2A'  +   0A"  )
 NUMBER OF VALENCE ORBITALS:        9   (   7A'  +   2A"  )


 NUCLEAR REPULSION ENERGY   30.45991863

 Eigenvalues of metric

         1 0.231E-03 0.494E-03 0.181E-02 0.211E-02 0.249E-02 0.350E-02 0.431E-02 0.510E-02
         2 0.389E-02 0.101E-01 0.260E-01 0.368E-01 0.508E-01 0.620E-01 0.804E-01 0.120E+00


 Contracted 2-electron integrals neglected if value below      1.0D-22

       10790064. INTEGRALS WRITTEN OUT IN    2635 BLOCKS ON RECORD 1290 OF FILE 1


 NUMBER OF SORTED TWO-ELECTRON INTEGRALS:   11433631.     BUFFER LENGTH:  32768
 NUMBER OF SEGMENTS:   1  SEGMENT LENGTH:   11433631      RECORD LENGTH: 524288

 Memory used in sort:      11.99 MW

 SORT1 READ    10790064. AND WROTE    10943632. INTEGRALS IN     32 RECORDS. CPU TIME:     0.25 SEC, REAL TIME:     0.36 SEC
 SORT2 READ    10943632. AND WROTE    11433631. INTEGRALS IN      1 RECORDS. CPU TIME:     0.20 SEC, REAL TIME:     0.26 SEC

 FILE SIZES:   FILE 1:   193.0 MBYTE,  FILE 4:   134.3 MBYTE,   TOTAL:    327.2 MBYTE

 OPERATOR DM      FOR CENTER  0  COORDINATES:    0.000000    0.000000    0.000000


 **********************************************************************************************************************************
 DATASETS  * FILE   NREC   LENGTH (MB)   RECORD NAMES
              1      19      111.05       500      610      700      900      950      970     1000      129      960     1100   
                                          VAR    BASINP    GEOM    SYMINP    ZMAT    AOBASIS   BASIS     P2S    ABASIS      S 
                                         1400     1410     1200     1210     1080     1600     1650     1300     1700   
                                           T        V       H0       H01     AOSYM     SMH    MOLCAS    ERIS     OPER   

 PROGRAMS   *        TOTAL       INT
 CPU TIMES  *         1.59      1.50
 REAL TIME  *         2.37 SEC
 DISK USED  *       327.55 MB      
 **********************************************************************************************************************************


 PROGRAM * RHF-SCF (CLOSED SHELL)       Authors: W. Meyer, H.-J. Werner


 NUMBER OF ELECTRONS:       8+    8-
 CONVERGENCE THRESHOLDS:    1.00E-10 (Density)    1.00E-13 (Energy)
 MAX. NUMBER OF ITERATIONS:      500
 INTERPOLATION TYPE:            DIIS
 INTERPOLATION STEPS:              2 (START)      1 (STEP)
 LEVEL SHIFTS:                  0.00 (CLOSED)  0.00 (OPEN) 



 Orbital guess generated from atomic densities. Full valence occupancy:    9   2

 Molecular orbital dump at record        2100.2

 Initial occupancy:   7   1

 ITERATION    DDIFF          GRAD             ENERGY        2-EL.EN.            DIPOLE MOMENTS         DIIS   ORB.
    1      0.000D+00      0.000D+00      -129.78981488    154.054148    0.00000    0.59704   -1.00637    0    start
    2      0.000D+00      0.107D-01      -129.81740958    155.337574    0.00000    0.60709   -0.21567    1    diag
    3      0.118D-01      0.806D-02      -129.83913002    155.436417    0.00000    0.55816   -0.58830    2    diag
    4      0.583D-02      0.127D-02      -129.83991234    155.151644    0.00000    0.56533   -0.52900    3    diag
    5      0.107D-02      0.417D-03      -129.84003582    155.245414    0.00000    0.57099   -0.53199    4    diag
    6      0.445D-03      0.120D-03      -129.84005544    155.229946    0.00000    0.57141   -0.52801    5    diag
    7      0.170D-03      0.593D-04      -129.84006099    155.232500    0.00000    0.57268   -0.52554    6    diag
    8      0.117D-03      0.199D-04      -129.84006157    155.231869    0.00000    0.57271   -0.52458    7    diag
    9      0.426D-04      0.375D-05      -129.84006159    155.231764    0.00000    0.57267   -0.52438    8    diag
   10      0.815D-05      0.870D-06      -129.84006159    155.231745    0.00000    0.57264   -0.52435    9    orth
   11      0.171D-05      0.174D-06      -129.84006159    155.231742    0.00000    0.57263   -0.52434    9    diag
   12      0.334D-06      0.353D-07      -129.84006159    155.231742    0.00000    0.57263   -0.52434    9    diag
   13      0.715D-07      0.880D-08      -129.84006159    155.231742    0.00000    0.57263   -0.52434    9    diag
   14      0.184D-07      0.184D-08      -129.84006159    155.231742    0.00000    0.57263   -0.52434    9    diag
   15      0.372D-08      0.518D-09      -129.84006159    155.231742    0.00000    0.57263   -0.52434    9    diag
   16      0.101D-08      0.144D-09      -129.84006159    155.231742    0.00000    0.57263   -0.52434    9    diag
   17      0.185D-09      0.410D-10      -129.84006159    155.231742    0.00000    0.57263   -0.52434    9    diag
   18      0.518D-10      0.147D-10      -129.84006159    155.231742    0.00000    0.57263   -0.52434    9    diag
   19      0.264D-10      0.329D-11      -129.84006159    155.231742    0.00000    0.57263   -0.52434    9    fixocc
   20      0.648D-11      0.561D-12      -129.84006159    155.231742    0.00000    0.57263   -0.52434    9    orth
   21      0.169D-11      0.199D-12      -129.84006159    155.231742    0.00000    0.57263   -0.52434    9    diag
   22      0.209D-11      0.718D-13      -129.84006159    155.231742    0.00000    0.57263   -0.52434    9    diag
   23      0.477D-12      0.462D-13      -129.84006159    155.231742    0.00000    0.57263   -0.52434    0    orth

 Final occupancy:   7   1

 !RHF STATE 1.1 Energy               -129.840061592056
 Nuclear energy                        30.45991863
 One-electron energy                 -237.91585098
 Two-electron energy                   77.61587076
 Virial quotient                       -1.00202496
 !RHF STATE 1.1 Dipole moment           0.00000000     0.57262849    -0.52434278
 Dipole moment /Debye                   0.00000000     1.45538111    -1.33265912

 Orbital energies:

         1.1          2.1          3.1          4.1          5.1          6.1          7.1          8.1          9.1
    -20.656288   -15.713431    -1.534542    -0.994380    -0.748829    -0.667741    -0.428287     0.029181     0.092140

         1.2          2.2          3.2
     -0.598556     0.066158     0.130311

 HOMO      7.1    -0.428287 =     -11.6543eV
 LUMO      8.1     0.029181 =       0.7941eV
 LUMO-HOMO         0.457468 =      12.4483eV


 **********************************************************************************************************************************
 DATASETS  * FILE   NREC   LENGTH (MB)   RECORD NAMES
              1      19      111.05       500      610      700      900      950      970     1000      129      960     1100   
                                          VAR    BASINP    GEOM    SYMINP    ZMAT    AOBASIS   BASIS     P2S    ABASIS      S 
                                         1400     1410     1200     1210     1080     1600     1650     1300     1700   
                                           T        V       H0       H01     AOSYM     SMH    MOLCAS    ERIS     OPER   

              2       4        2.94       700     1000      520     2100   
                                         GEOM     BASIS   MCVARS     RHF  

 PROGRAMS   *        TOTAL        HF       INT
 CPU TIMES  *         3.00      1.41      1.50
 REAL TIME  *         4.11 SEC
 DISK USED  *       327.55 MB      
 **********************************************************************************************************************************


 PROGRAM * CCSD (Closed-shell coupled cluster)     Authors: C. Hampel, H.-J. Werner, 1991, M. Deegan, P.J. Knowles, 1992


 Convergence thresholds:  THRVAR = 1.00D-08  THRDEN = 1.00D-12

 CCSD(T)     terms to be evaluated (factor= 1.000)


 Number of core orbitals:           2 (   2   0 )
 Number of closed-shell orbitals:   6 (   5   1 )
 Number of external orbitals:     107 (  69  38 )

 Molecular orbitals read from record     2100.2  Type=RHF/CANONICAL (state 1.1)

 Number of N-1 electron functions:               6
 Number of N-2 electron functions:              21
 Number of singly external CSFs:               383
 Number of doubly external CSFs:            107206
 Total number of CSFs:                      107590

 Length of J-op  integral file:               0.00 MB
 Length of K-op  integral file:               0.54 MB
 Length of 3-ext integral record:             0.00 MB

 Memory could be reduced to 5.94 Mwords without degradation in triples

 Integral transformation finished. Total CPU:   0.20 sec, npass=  1  Memory used:   1.65 MW

 Reference energy:                   -129.84006159

 MP2 singlet pair energy:              -0.27890805
 MP2 triplet pair energy:              -0.16483335
 MP2 correlation energy:               -0.44374140
 MP2 total energy:                   -130.28380299

 SCS-MP2 correlation energy:           -0.43725263   (PS=  1.200000  PT=  0.333333)
 SCS-MP2 total energy:               -130.27731422

 ITER.      SQ.NORM     CORR.ENERGY   TOTAL ENERGY   ENERGY CHANGE        DEN1      VAR(S)    VAR(P)  DIIS     TIME  TIME/IT
   1      1.12041911    -0.44804504  -130.28810664    -0.00430365     0.01157002  0.31D-02  0.31D-02  1  1     0.39     0.21
   2      1.13143228    -0.44827713  -130.28833872    -0.00023208    -0.01233078  0.99D-04  0.51D-03  2  2     0.58     0.22
   3      1.13783555    -0.44867130  -130.28873289    -0.00039417    -0.00297074  0.53D-04  0.50D-04  3  3     0.78     0.22
   4      1.14067336    -0.44868181  -130.28874340    -0.00001051    -0.00096251  0.41D-05  0.91D-05  4  4     1.00     0.22
   5      1.14170691    -0.44870987  -130.28877146    -0.00002805    -0.00021880  0.11D-05  0.17D-05  5  5     1.21     0.22
   6      1.14204735    -0.44869349  -130.28875508     0.00001638    -0.00004122  0.10D-06  0.40D-06  6  6     1.42     0.22
   7      1.14212388    -0.44869454  -130.28875613    -0.00000105    -0.00000204  0.19D-07  0.93D-07  6  1     1.62     0.22
   8      1.14214584    -0.44869531  -130.28875690    -0.00000077     0.00000142  0.38D-08  0.17D-07  6  2     1.82     0.22
   9      1.14215130    -0.44869486  -130.28875645     0.00000045     0.00000047  0.28D-08  0.18D-08  6  4     2.01     0.22
  10      1.14215358    -0.44869534  -130.28875693    -0.00000048    -0.00000071  0.45D-09  0.21D-09  6  3     2.23     0.22
  11      1.14215305    -0.44869537  -130.28875696    -0.00000003    -0.00000006  0.16D-09  0.33D-10  6  5     2.43     0.22
  12      1.14215198    -0.44869552  -130.28875711    -0.00000015     0.00000034  0.18D-10  0.11D-10  6  6     2.64     0.23
  13      1.14215113    -0.44869555  -130.28875715    -0.00000004     0.00000022  0.64D-11  0.22D-11  6  1     2.84     0.23
  14      1.14215059    -0.44869558  -130.28875717    -0.00000003     0.00000014  0.10D-11  0.69D-12  6  2     3.05     0.23
  15      1.14215036    -0.44869559  -130.28875718    -0.00000001     0.00000003  0.28D-12  0.22D-12  6  4     3.26     0.23
  16      1.14215023    -0.44869559  -130.28875718    -0.00000000     0.00000002  0.38D-13  0.26D-13  6  5     3.47     0.23
  17      1.14215020    -0.44869559  -130.28875719    -0.00000000     0.00000000  0.67D-15  0.19D-14  6  3     3.69     0.23
  18      1.14215020    -0.44869559  -130.28875719     0.00000000    -0.00000000  0.22D-15  0.26D-15  6  6     3.88     0.23
  19      1.14215020    -0.44869559  -130.28875719     0.00000000    -0.00000000  0.67D-16  0.36D-16  6  1     4.10     0.23
  20      1.14215020    -0.44869559  -130.28875719     0.00000000    -0.00000000  0.18D-16  0.63D-17  6  2     4.29     0.23
  21      1.14215020    -0.44869559  -130.28875719     0.00000000    -0.00000000  0.32D-17  0.17D-17  6  5     4.49     0.23
  22      1.14215020    -0.44869559  -130.28875719    -0.00000000     0.00000000  0.33D-18  0.19D-18  6  4     4.70     0.23
  23      1.14215020    -0.44869559  -130.28875719     0.00000000     0.00000000  0.11D-18  0.40D-19  6  3     4.90     0.23
  24      1.14215020    -0.44869559  -130.28875719     0.00000000     0.00000000  0.12D-19  0.56D-20  6  2     5.12     0.23
  25      1.14215020    -0.44869559  -130.28875719     0.00000000    -0.00000000  0.19D-20  0.91D-21  6  6     5.33     0.23
  26      1.14215020    -0.44869559  -130.28875719     0.00000000    -0.00000000  0.45D-21  0.23D-21  6  1     5.53     0.23

 Norm of t1 vector:      0.07786373      S-energy:     0.00000000      T1 diagnostic:  0.01589387
                                                                       D1 diagnostic:  0.04149113

 Doubles amplitudes (print threshold =  0.500E-01):

         I         J         SYM. A    SYM. B    A         B      T(IJ, AB)

         6         6         2         2         1         1     -0.10665226


 Total CPU time for triples:      1.69 sec


 RESULTS
 =======

  Reference energy                   -129.840061592056
  CCSD singlet pair energy             -0.307527599466
  CCSD triplet pair energy             -0.141167993724
  CCSD correlation energy              -0.448695593191

  Triples (T) contribution             -0.020766186740
  Total correlation energy             -0.469461779931

  CCSD total energy                  -130.288757185247
  CCSD[T] energy                     -130.310573033617
  CCSD-T energy                      -130.309122951530
 !CCSD(T) total energy               -130.309523371987

 Timing summary (sec):

 STEP                 CPU(USER)    SYS     CPU(TOT)    WALL
 Transformation          0.20      0.03      0.23      0.23
 CCSD iterations         5.33      0.61      5.94      5.94
 Triples                 1.69      0.02      1.71      1.71

 Program statistics:

 Available memory in ccsd:               994999756
 Min. memory needed in ccsd:                389120
 Max. memory used in ccsd:                  473124
 Max. memory used in cckext:                599488 (26 integral passes)



 **********************************************************************************************************************************
 DATASETS  * FILE   NREC   LENGTH (MB)   RECORD NAMES
              1      20      128.20       500      610      700      900      950      970     1000      129      960     1100   
                                          VAR    BASINP    GEOM    SYMINP    ZMAT    AOBASIS   BASIS     P2S    ABASIS      S 
                                         1400     1410     1200     1210     1080     1600     1650     1300     1700     1380   
                                           T        V       H0       H01     AOSYM     SMH    MOLCAS    ERIS     OPER     JKOP   

              2       4        2.94       700     1000      520     2100   
                                         GEOM     BASIS   MCVARS     RHF  

 PROGRAMS   *        TOTAL   CCSD(T)        HF       INT
 CPU TIMES  *        10.24      7.24      1.41      1.50
 REAL TIME  *        12.02 SEC
 DISK USED  *       327.55 MB      
 **********************************************************************************************************************************

 CCSD(T)/aug-cc-pVTZ energy=   -130.309523371987

        CCSD(T)         HF-SCF  
   -130.30952337   -129.84006159
 **********************************************************************************************************************************
 Molpro calculation terminated
 Variable memory released
