
 Primary working directories    : /tmp/r2666/282166.maple
 Secondary working directories  : /tmp/r2666/282166.maple
 Wavefunction directory         : /ddn/home4/r2666/wfu/
 Main file repository           : /tmp/r2666/282166.maple/

 SHA1      : d5ffa45e93fdbca01ffc919aa182cfdae0147319
 NAME      : 2015.1.35
 ARCHNAME  : linux/x86_64
 FC        : /opt/intel/composer_xe_2015.1.133/bin/intel64/ifort
 BLASLIB   : -Wl,-_start-group /opt/intel/mkl/lib/intel64/libmkl_intel_ilp64.a /opt/intel/mkl/lib/intel64/libmkl_intel_thread.a /opt/intel/mkl/lib/intel64/libmkl_core.a -Wl,-_end-group
 id        : olemiss

 Nodes     nprocs
 cn089        1

 Using customized tuning parameters: mindgm=1; mindgv=20; mindgc=4; mindgr=1; noblas=0; minvec=7
 default implementation of scratch files=df  

 ***,hno CCSD(T)/TZ-F12 QFF
 memory, 995, m;
 gthresh,energy=1.d-12,zero=1.d-22,oneint=1.d-22,twoint=1.d-22;
 gthresh,optgrad=1.d-8,optstep=1.d-8;
 nocompress;
 geomtyp=xyz
 bohr
 geometry={
 3
         63        63
 H        0.0000000000        1.6661752425       -1.9184816923
 N        0.0000000000       -0.1683408953       -1.1523755903
 O        0.0000000000        0.0439334428        1.1202676917
 }
 
 basis=avtz
   {hf,maxit=500;accu,20;}
 {ccsd(t),nocheck,maxit=250;orbital,IGNORE_ERROR;}

 Variables initialized (889), CPU time= 0.01 sec
 Commands  initialized (702), CPU time= 0.01 sec, 572 directives.
 Default parameters read. Elapsed time= 0.05 sec

 Checking input...
 Passed
1


                                         ***  PROGRAM SYSTEM MOLPRO  ***
                                       Copyright, TTI GmbH Stuttgart, 2015
                                    Version 2015.1 linked Jul  9 2018 13:16:40


 **********************************************************************************************************************************
 LABEL *   hno CCSD(T)/TZ-F12 QFF                                                        
  64 bit serial version                                                                  DATE: 04-Mar-20          TIME: 13:46:25  
 **********************************************************************************************************************************

 SHA1:             d5ffa45e93fdbca01ffc919aa182cfdae0147319
 **********************************************************************************************************************************

 THRESHOLDS:

 ZERO    =  1.00D-22  ONEINT  =  1.00D-22  TWOINT  =  1.00D-22  PREFAC  =  1.00D-14  LOCALI  =  1.00D-09  EORDER  =  1.00D-04
 ENERGY  =  1.00D-12  ETEST   =  0.00D+00  EDENS   =  0.00D+00  THRDEDEF=  1.00D-06  GRADIENT=  1.00D-02  STEP    =  1.00D-03
 ORBITAL =  1.00D-05  CIVEC   =  1.00D-05  COEFF   =  1.00D-04  PRINTCI =  5.00D-02  PUNCHCI =  9.90D+01  OPTGRAD =  3.00D-04
 OPTENERG=  1.00D-06  OPTSTEP =  3.00D-04  THRGRAD =  1.00D-10  COMPRESS=  1.00D-11  VARMIN  =  1.00D-07  VARMAX  =  1.00D-03
 THRDOUB =  0.00D+00  THRDIV  =  1.00D-05  THRRED  =  1.00D-07  THRPSP  =  1.00D+00  THRDC   =  1.00D-10  THRCS   =  1.00D-10
 THRNRM  =  1.00D-08  THREQ   =  0.00D+00  THRDE   =  1.00D+00  THRREF  =  1.00D-05  SPARFAC =  1.00D+00  THRDLP  =  1.00D-07
 THRDIA  =  1.00D-10  THRDLS  =  1.00D-07  THRGPS  =  0.00D+00  THRKEX  =  0.00D+00  THRDIS  =  2.00D-01  THRVAR  =  1.00D-10
 THRLOC  =  1.00D-06  THRGAP  =  1.00D-06  THRLOCT = -1.00D+00  THRGAPT = -1.00D+00  THRORB  =  1.00D-06  THRMLTP =  0.00D+00
 THRCPQCI=  1.00D-10  KEXTA   =  0.00D+00  THRCOARS=  0.00D+00  SYMTOL  =  1.00D-06  GRADTOL =  1.00D-06  THROVL  =  1.00D-08
 THRORTH =  1.00D-08  GRID    =  1.00D-06  GRIDMAX =  1.00D-03  DTMAX   =  0.00D+00  THROCCDE=  1.00D-01  THROCCDE=  1.00D-01



 THRESHOLDS:

 ZERO    =  1.00D-22  ONEINT  =  1.00D-22  TWOINT  =  1.00D-22  PREFAC  =  1.00D-14  LOCALI  =  1.00D-09  EORDER  =  1.00D-04
 ENERGY  =  1.00D-12  ETEST   =  0.00D+00  EDENS   =  0.00D+00  THRDEDEF=  1.00D-06  GRADIENT=  1.00D-02  STEP    =  1.00D-03
 ORBITAL =  1.00D-05  CIVEC   =  1.00D-05  COEFF   =  1.00D-04  PRINTCI =  5.00D-02  PUNCHCI =  9.90D+01  OPTGRAD =  1.00D-08
 OPTENERG=  1.00D-06  OPTSTEP =  1.00D-08  THRGRAD =  1.00D-10  COMPRESS=  1.00D-11  VARMIN  =  1.00D-07  VARMAX  =  1.00D-03
 THRDOUB =  0.00D+00  THRDIV  =  1.00D-05  THRRED  =  1.00D-07  THRPSP  =  1.00D+00  THRDC   =  1.00D-10  THRCS   =  1.00D-10
 THRNRM  =  1.00D-08  THREQ   =  0.00D+00  THRDE   =  1.00D+00  THRREF  =  1.00D-05  SPARFAC =  1.00D+00  THRDLP  =  1.00D-07
 THRDIA  =  1.00D-10  THRDLS  =  1.00D-07  THRGPS  =  0.00D+00  THRKEX  =  0.00D+00  THRDIS  =  2.00D-01  THRVAR  =  1.00D-10
 THRLOC  =  1.00D-06  THRGAP  =  1.00D-06  THRLOCT = -1.00D+00  THRGAPT = -1.00D+00  THRORB  =  1.00D-06  THRMLTP =  0.00D+00
 THRCPQCI=  1.00D-10  KEXTA   =  0.00D+00  THRCOARS=  0.00D+00  SYMTOL  =  1.00D-06  GRADTOL =  1.00D-06  THROVL  =  1.00D-08
 THRORTH =  1.00D-08  GRID    =  1.00D-06  GRIDMAX =  1.00D-03  DTMAX   =  0.00D+00  THROCCDE=  1.00D-01  THROCCDE=  1.00D-01



 Input parameters for SORTINT:

 COMPRESS =    0.000000
 C_FINAL  =    1.000000
 DEBUG    =   -1.000000
 C_SORT1  =    0.000000
 C_SEWARD =    0.000000
 THRESH   =    0.000000
 IO       =  molpro                                                          
 SPRI     =    0.000000
 SETTING GEOMTYP        =    XYZ
 ZUNIT=BOHR
 

 Variable memory set to  995000000 words,  buffer space   230000 words

 SETTING BASIS          =    AVTZ


 Recomputing integrals since basis changed


 Using spherical harmonics

 Library entry H      S aug-cc-pVTZ          selected for orbital group  1
 Library entry H      P aug-cc-pVTZ          selected for orbital group  1
 Library entry H      D aug-cc-pVTZ          selected for orbital group  1
 Library entry N      S aug-cc-pVTZ          selected for orbital group  2
 Library entry N      P aug-cc-pVTZ          selected for orbital group  2
 Library entry N      D aug-cc-pVTZ          selected for orbital group  2
 Library entry N      F aug-cc-pVTZ          selected for orbital group  2
 Library entry O      S aug-cc-pVTZ          selected for orbital group  3
 Library entry O      P aug-cc-pVTZ          selected for orbital group  3
 Library entry O      D aug-cc-pVTZ          selected for orbital group  3
 Library entry O      F aug-cc-pVTZ          selected for orbital group  3


 PROGRAM * SEWARD (Integral evaluation for generally contracted gaussian basis sets)     Author: Roland Lindh, 1990

 Geometry written to block  1 of record 700


 Point group  Cs  



 ATOMIC COORDINATES

 NR  ATOM    CHARGE       X              Y              Z

   1  H       1.00    0.000000000    1.666175243   -1.918481692
   2  N       7.00    0.000000000   -0.168340895   -1.152375590
   3  O       8.00    0.000000000    0.043933443    1.120267692

 Bond lengths in Bohr (Angstrom)

 1-2  1.988056342  2-3  2.282535406
     ( 1.052034110)     ( 1.207865720)

 Bond angles

  1-2-3  107.32955679

 NUCLEAR CHARGE:                   16
 NUMBER OF PRIMITIVE AOS:         161
 NUMBER OF SYMMETRY AOS:          141
 NUMBER OF CONTRACTIONS:          115   (  76A'  +  39A"  )
 NUMBER OF CORE ORBITALS:           2   (   2A'  +   0A"  )
 NUMBER OF VALENCE ORBITALS:        9   (   7A'  +   2A"  )


 NUCLEAR REPULSION ENERGY   30.37758493

 Eigenvalues of metric

         1 0.231E-03 0.502E-03 0.179E-02 0.212E-02 0.253E-02 0.358E-02 0.430E-02 0.517E-02
         2 0.395E-02 0.102E-01 0.262E-01 0.373E-01 0.514E-01 0.622E-01 0.822E-01 0.119E+00


 Contracted 2-electron integrals neglected if value below      1.0D-22

       10790064. INTEGRALS WRITTEN OUT IN    2635 BLOCKS ON RECORD 1290 OF FILE 1


 NUMBER OF SORTED TWO-ELECTRON INTEGRALS:   11433631.     BUFFER LENGTH:  32768
 NUMBER OF SEGMENTS:   1  SEGMENT LENGTH:   11433631      RECORD LENGTH: 524288

 Memory used in sort:      11.99 MW

 SORT1 READ    10790064. AND WROTE    10943632. INTEGRALS IN     32 RECORDS. CPU TIME:     0.15 SEC, REAL TIME:     0.22 SEC
 SORT2 READ    10943632. AND WROTE    11433631. INTEGRALS IN      1 RECORDS. CPU TIME:     0.17 SEC, REAL TIME:     0.22 SEC

 FILE SIZES:   FILE 1:   193.0 MBYTE,  FILE 4:   134.3 MBYTE,   TOTAL:    327.2 MBYTE

 OPERATOR DM      FOR CENTER  0  COORDINATES:    0.000000    0.000000    0.000000


 **********************************************************************************************************************************
 DATASETS  * FILE   NREC   LENGTH (MB)   RECORD NAMES
              1      19      111.05       500      610      700      900      950      970     1000      129      960     1100   
                                          VAR    BASINP    GEOM    SYMINP    ZMAT    AOBASIS   BASIS     P2S    ABASIS      S 
                                         1400     1410     1200     1210     1080     1600     1650     1300     1700   
                                           T        V       H0       H01     AOSYM     SMH    MOLCAS    ERIS     OPER   

 PROGRAMS   *        TOTAL       INT
 CPU TIMES  *         1.29      1.19
 REAL TIME  *         1.95 SEC
 DISK USED  *       327.55 MB      
 **********************************************************************************************************************************


 PROGRAM * RHF-SCF (CLOSED SHELL)       Authors: W. Meyer, H.-J. Werner


 NUMBER OF ELECTRONS:       8+    8-
 CONVERGENCE THRESHOLDS:    1.00E-10 (Density)    1.00E-13 (Energy)
 MAX. NUMBER OF ITERATIONS:      500
 INTERPOLATION TYPE:            DIIS
 INTERPOLATION STEPS:              2 (START)      1 (STEP)
 LEVEL SHIFTS:                  0.00 (CLOSED)  0.00 (OPEN) 



 Orbital guess generated from atomic densities. Full valence occupancy:    9   2

 Molecular orbital dump at record        2100.2

 Initial occupancy:   7   1

 ITERATION    DDIFF          GRAD             ENERGY        2-EL.EN.            DIPOLE MOMENTS         DIIS   ORB.
    1      0.000D+00      0.000D+00      -129.78828380    153.915303    0.00000    0.58452   -1.01883    0    start
    2      0.000D+00      0.108D-01      -129.81576864    155.180191    0.00000    0.61135   -0.20639    1    diag
    3      0.119D-01      0.823D-02      -129.83844698    155.292396    0.00000    0.55391   -0.58912    2    diag
    4      0.593D-02      0.127D-02      -129.83923618    155.004499    0.00000    0.56178   -0.52946    3    diag
    5      0.107D-02      0.422D-03      -129.83936219    155.098196    0.00000    0.56728   -0.53219    4    diag
    6      0.450D-03      0.122D-03      -129.83938233    155.082611    0.00000    0.56764   -0.52811    5    diag
    7      0.172D-03      0.604D-04      -129.83938812    155.085123    0.00000    0.56889   -0.52553    6    diag
    8      0.119D-03      0.205D-04      -129.83938874    155.084463    0.00000    0.56891   -0.52454    7    diag
    9      0.444D-04      0.386D-05      -129.83938877    155.084356    0.00000    0.56887   -0.52433    8    diag
   10      0.851D-05      0.876D-06      -129.83938877    155.084338    0.00000    0.56884   -0.52430    9    orth
   11      0.171D-05      0.175D-06      -129.83938877    155.084335    0.00000    0.56883   -0.52430    9    diag
   12      0.332D-06      0.362D-07      -129.83938877    155.084335    0.00000    0.56883   -0.52429    9    diag
   13      0.722D-07      0.914D-08      -129.83938877    155.084335    0.00000    0.56883   -0.52429    9    diag
   14      0.189D-07      0.188D-08      -129.83938877    155.084335    0.00000    0.56883   -0.52429    9    diag
   15      0.373D-08      0.525D-09      -129.83938877    155.084335    0.00000    0.56883   -0.52429    9    diag
   16      0.102D-08      0.144D-09      -129.83938877    155.084335    0.00000    0.56883   -0.52429    9    diag
   17      0.182D-09      0.411D-10      -129.83938877    155.084335    0.00000    0.56883   -0.52429    9    diag
   18      0.511D-10      0.147D-10      -129.83938877    155.084335    0.00000    0.56883   -0.52429    9    diag
   19      0.265D-10      0.323D-11      -129.83938877    155.084335    0.00000    0.56883   -0.52429    9    fixocc
   20      0.671D-11      0.571D-12      -129.83938877    155.084335    0.00000    0.56883   -0.52429    9    orth
   21      0.215D-11      0.196D-12      -129.83938877    155.084335    0.00000    0.56883   -0.52429    9    diag
   22      0.212D-11      0.809D-13      -129.83938877    155.084335    0.00000    0.56883   -0.52429    0    orth

 Final occupancy:   7   1

 !RHF STATE 1.1 Energy               -129.839388766419
 Nuclear energy                        30.37758493
 One-electron energy                 -237.75914103
 Two-electron energy                   77.54216733
 Virial quotient                       -1.00212766
 !RHF STATE 1.1 Dipole moment           0.00000000     0.56882673    -0.52429405
 Dipole moment /Debye                   0.00000000     1.44571864    -1.33253526

 Orbital energies:

         1.1          2.1          3.1          4.1          5.1          6.1          7.1          8.1          9.1
    -20.656329   -15.714599    -1.531296    -0.994484    -0.747381    -0.665950    -0.430983     0.029256     0.092214

         1.2          2.2          3.2
     -0.596382     0.065032     0.130222

 HOMO      7.1    -0.430983 =     -11.7276eV
 LUMO      8.1     0.029256 =       0.7961eV
 LUMO-HOMO         0.460238 =      12.5237eV


 **********************************************************************************************************************************
 DATASETS  * FILE   NREC   LENGTH (MB)   RECORD NAMES
              1      19      111.05       500      610      700      900      950      970     1000      129      960     1100   
                                          VAR    BASINP    GEOM    SYMINP    ZMAT    AOBASIS   BASIS     P2S    ABASIS      S 
                                         1400     1410     1200     1210     1080     1600     1650     1300     1700   
                                           T        V       H0       H01     AOSYM     SMH    MOLCAS    ERIS     OPER   

              2       4        2.94       700     1000      520     2100   
                                         GEOM     BASIS   MCVARS     RHF  

 PROGRAMS   *        TOTAL        HF       INT
 CPU TIMES  *         2.36      1.07      1.19
 REAL TIME  *         3.30 SEC
 DISK USED  *       327.55 MB      
 **********************************************************************************************************************************


 PROGRAM * CCSD (Closed-shell coupled cluster)     Authors: C. Hampel, H.-J. Werner, 1991, M. Deegan, P.J. Knowles, 1992


 Convergence thresholds:  THRVAR = 1.00D-08  THRDEN = 1.00D-12

 CCSD(T)     terms to be evaluated (factor= 1.000)


 Number of core orbitals:           2 (   2   0 )
 Number of closed-shell orbitals:   6 (   5   1 )
 Number of external orbitals:     107 (  69  38 )

 Molecular orbitals read from record     2100.2  Type=RHF/CANONICAL (state 1.1)

 Number of N-1 electron functions:               6
 Number of N-2 electron functions:              21
 Number of singly external CSFs:               383
 Number of doubly external CSFs:            107206
 Total number of CSFs:                      107590

 Length of J-op  integral file:               0.00 MB
 Length of K-op  integral file:               0.54 MB
 Length of 3-ext integral record:             0.00 MB

 Memory could be reduced to 5.94 Mwords without degradation in triples

 Integral transformation finished. Total CPU:   0.14 sec, npass=  1  Memory used:   1.65 MW

 Reference energy:                   -129.83938877

 MP2 singlet pair energy:              -0.27943161
 MP2 triplet pair energy:              -0.16517504
 MP2 correlation energy:               -0.44460664
 MP2 total energy:                   -130.28399541

 SCS-MP2 correlation energy:           -0.43809351   (PS=  1.200000  PT=  0.333333)
 SCS-MP2 total energy:               -130.27748227

 ITER.      SQ.NORM     CORR.ENERGY   TOTAL ENERGY   ENERGY CHANGE        DEN1      VAR(S)    VAR(P)  DIIS     TIME  TIME/IT
   1      1.12091177    -0.44872059  -130.28810935    -0.00411395     0.01193031  0.31D-02  0.31D-02  1  1     0.29     0.16
   2      1.13202001    -0.44892176  -130.28831052    -0.00020117    -0.01243351  0.10D-03  0.51D-03  2  2     0.45     0.16
   3      1.13849564    -0.44931979  -130.28870856    -0.00039804    -0.00300028  0.53D-04  0.51D-04  3  3     0.58     0.16
   4      1.14137193    -0.44933179  -130.28872055    -0.00001200    -0.00097400  0.41D-05  0.91D-05  4  4     0.72     0.16
   5      1.14241131    -0.44936039  -130.28874915    -0.00002860    -0.00022025  0.11D-05  0.16D-05  5  5     0.86     0.16
   6      1.14274959    -0.44934347  -130.28873224     0.00001691    -0.00004150  0.98D-07  0.39D-06  6  6     1.00     0.16
   7      1.14282254    -0.44934467  -130.28873344    -0.00000120    -0.00000164  0.18D-07  0.91D-07  6  1     1.14     0.16
   8      1.14284364    -0.44934531  -130.28873408    -0.00000064     0.00000155  0.35D-08  0.16D-07  6  2     1.27     0.16
   9      1.14285206    -0.44934475  -130.28873351     0.00000057    -0.00000084  0.24D-08  0.17D-08  6  3     1.43     0.16
  10      1.14285219    -0.44934525  -130.28873402    -0.00000050    -0.00000001  0.47D-09  0.24D-09  6  4     1.58     0.16
  11      1.14285059    -0.44934537  -130.28873414    -0.00000012     0.00000053  0.14D-09  0.30D-10  6  5     1.72     0.16
  12      1.14284931    -0.44934555  -130.28873431    -0.00000018     0.00000040  0.15D-10  0.85D-11  6  6     1.87     0.16
  13      1.14284861    -0.44934557  -130.28873433    -0.00000002     0.00000017  0.53D-11  0.16D-11  6  1     2.02     0.16
  14      1.14284820    -0.44934559  -130.28873435    -0.00000002     0.00000009  0.85D-12  0.51D-12  6  2     2.16     0.16
  15      1.14284803    -0.44934559  -130.28873436    -0.00000000     0.00000002  0.25D-12  0.16D-12  6  3     2.30     0.16
  16      1.14284795    -0.44934559  -130.28873436    -0.00000000     0.00000001  0.40D-13  0.55D-13  6  4     2.45     0.16
  17      1.14284789    -0.44934560  -130.28873436    -0.00000000     0.00000001  0.26D-14  0.13D-13  6  5     2.59     0.16
  18      1.14284789    -0.44934560  -130.28873436     0.00000000     0.00000000  0.10D-14  0.28D-14  6  6     2.72     0.16
  19      1.14284789    -0.44934560  -130.28873436     0.00000000     0.00000000  0.73D-15  0.47D-15  6  1     2.86     0.16
  20      1.14284789    -0.44934560  -130.28873436     0.00000000    -0.00000000  0.12D-15  0.79D-16  6  2     3.01     0.16
  21      1.14284789    -0.44934560  -130.28873436     0.00000000     0.00000000  0.58D-16  0.18D-16  6  3     3.16     0.16
  22      1.14284789    -0.44934560  -130.28873436     0.00000000    -0.00000000  0.28D-17  0.36D-17  6  5     3.31     0.16
  23      1.14284789    -0.44934560  -130.28873436     0.00000000     0.00000000  0.96D-18  0.31D-18  6  4     3.45     0.16
  24      1.14284789    -0.44934560  -130.28873436    -0.00000000    -0.00000000  0.25D-18  0.77D-19  6  6     3.58     0.16
  25      1.14284789    -0.44934560  -130.28873436     0.00000000    -0.00000000  0.31D-19  0.16D-19  6  1     3.72     0.16

 Norm of t1 vector:      0.07818039      S-energy:     0.00000000      T1 diagnostic:  0.01595851
                                                                       D1 diagnostic:  0.04199988

 Doubles amplitudes (print threshold =  0.500E-01):

         I         J         SYM. A    SYM. B    A         B      T(IJ, AB)

         6         6         2         2         1         1     -0.10888397


 Total CPU time for triples:      1.11 sec


 RESULTS
 =======

  Reference energy                   -129.839388766419
  CCSD singlet pair energy             -0.308088002854
  CCSD triplet pair energy             -0.141257593930
  CCSD correlation energy              -0.449345596779

  Triples (T) contribution             -0.020900403712
  Total correlation energy             -0.470246000491

  CCSD total energy                  -130.288734363198
  CCSD[T] energy                     -130.310696336627
  CCSD-T energy                      -130.309231585109
 !CCSD(T) total energy               -130.309634766910

 Timing summary (sec):

 STEP                 CPU(USER)    SYS     CPU(TOT)    WALL
 Transformation          0.14      0.04      0.18      0.17
 CCSD iterations         3.58      0.45      4.03      4.05
 Triples                 1.11      0.04      1.15      1.14

 Program statistics:

 Available memory in ccsd:               994999756
 Min. memory needed in ccsd:                389120
 Max. memory used in ccsd:                  473124
 Max. memory used in cckext:                599488 (25 integral passes)



 **********************************************************************************************************************************
 DATASETS  * FILE   NREC   LENGTH (MB)   RECORD NAMES
              1      20      128.20       500      610      700      900      950      970     1000      129      960     1100   
                                          VAR    BASINP    GEOM    SYMINP    ZMAT    AOBASIS   BASIS     P2S    ABASIS      S 
                                         1400     1410     1200     1210     1080     1600     1650     1300     1700     1380   
                                           T        V       H0       H01     AOSYM     SMH    MOLCAS    ERIS     OPER     JKOP   

              2       4        2.94       700     1000      520     2100   
                                         GEOM     BASIS   MCVARS     RHF  

 PROGRAMS   *        TOTAL   CCSD(T)        HF       INT
 CPU TIMES  *         7.22      4.86      1.07      1.19
 REAL TIME  *         9.08 SEC
 DISK USED  *       327.55 MB      
 **********************************************************************************************************************************

 CCSD(T)/aug-cc-pVTZ energy=   -130.309634766910

        CCSD(T)         HF-SCF  
   -130.30963477   -129.83938877
 **********************************************************************************************************************************
 Molpro calculation terminated
 Variable memory released
