
 Primary working directories    : /tmp/r2666/282198.maple
 Secondary working directories  : /tmp/r2666/282198.maple
 Wavefunction directory         : /ddn/home4/r2666/wfu/
 Main file repository           : /tmp/r2666/282198.maple/

 SHA1      : d5ffa45e93fdbca01ffc919aa182cfdae0147319
 NAME      : 2015.1.35
 ARCHNAME  : linux/x86_64
 FC        : /opt/intel/composer_xe_2015.1.133/bin/intel64/ifort
 BLASLIB   : -Wl,-_start-group /opt/intel/mkl/lib/intel64/libmkl_intel_ilp64.a /opt/intel/mkl/lib/intel64/libmkl_intel_thread.a /opt/intel/mkl/lib/intel64/libmkl_core.a -Wl,-_end-group
 id        : olemiss

 Nodes     nprocs
 cn080        1

 Using customized tuning parameters: mindgm=1; mindgv=20; mindgc=4; mindgr=1; noblas=0; minvec=7
 default implementation of scratch files=df  

 ***,hno CCSD(T)/TZ-F12 QFF
 memory, 995, m;
 gthresh,energy=1.d-12,zero=1.d-22,oneint=1.d-22,twoint=1.d-22;
 gthresh,optgrad=1.d-8,optstep=1.d-8;
 nocompress;
 geomtyp=xyz
 bohr
 geometry={
 3
         95        95
 H        0.0000000000        1.6707331804       -1.9220513773
 N        0.0000000000       -0.1717412768       -1.1504854450
 O        0.0000000000        0.0427758864        1.1219472313
 }
 
 basis=avtz
   {hf,maxit=500;accu,20;}
 {ccsd(t),nocheck,maxit=250;orbital,IGNORE_ERROR;}

 Variables initialized (889), CPU time= 0.01 sec
 Commands  initialized (702), CPU time= 0.01 sec, 572 directives.
 Default parameters read. Elapsed time= 0.07 sec

 Checking input...
 Passed
1


                                         ***  PROGRAM SYSTEM MOLPRO  ***
                                       Copyright, TTI GmbH Stuttgart, 2015
                                    Version 2015.1 linked Jul  9 2018 13:16:40


 **********************************************************************************************************************************
 LABEL *   hno CCSD(T)/TZ-F12 QFF                                                        
  64 bit serial version                                                                  DATE: 04-Mar-20          TIME: 13:46:38  
 **********************************************************************************************************************************

 SHA1:             d5ffa45e93fdbca01ffc919aa182cfdae0147319
 **********************************************************************************************************************************

 THRESHOLDS:

 ZERO    =  1.00D-22  ONEINT  =  1.00D-22  TWOINT  =  1.00D-22  PREFAC  =  1.00D-14  LOCALI  =  1.00D-09  EORDER  =  1.00D-04
 ENERGY  =  1.00D-12  ETEST   =  0.00D+00  EDENS   =  0.00D+00  THRDEDEF=  1.00D-06  GRADIENT=  1.00D-02  STEP    =  1.00D-03
 ORBITAL =  1.00D-05  CIVEC   =  1.00D-05  COEFF   =  1.00D-04  PRINTCI =  5.00D-02  PUNCHCI =  9.90D+01  OPTGRAD =  3.00D-04
 OPTENERG=  1.00D-06  OPTSTEP =  3.00D-04  THRGRAD =  1.00D-10  COMPRESS=  1.00D-11  VARMIN  =  1.00D-07  VARMAX  =  1.00D-03
 THRDOUB =  0.00D+00  THRDIV  =  1.00D-05  THRRED  =  1.00D-07  THRPSP  =  1.00D+00  THRDC   =  1.00D-10  THRCS   =  1.00D-10
 THRNRM  =  1.00D-08  THREQ   =  0.00D+00  THRDE   =  1.00D+00  THRREF  =  1.00D-05  SPARFAC =  1.00D+00  THRDLP  =  1.00D-07
 THRDIA  =  1.00D-10  THRDLS  =  1.00D-07  THRGPS  =  0.00D+00  THRKEX  =  0.00D+00  THRDIS  =  2.00D-01  THRVAR  =  1.00D-10
 THRLOC  =  1.00D-06  THRGAP  =  1.00D-06  THRLOCT = -1.00D+00  THRGAPT = -1.00D+00  THRORB  =  1.00D-06  THRMLTP =  0.00D+00
 THRCPQCI=  1.00D-10  KEXTA   =  0.00D+00  THRCOARS=  0.00D+00  SYMTOL  =  1.00D-06  GRADTOL =  1.00D-06  THROVL  =  1.00D-08
 THRORTH =  1.00D-08  GRID    =  1.00D-06  GRIDMAX =  1.00D-03  DTMAX   =  0.00D+00  THROCCDE=  1.00D-01  THROCCDE=  1.00D-01



 THRESHOLDS:

 ZERO    =  1.00D-22  ONEINT  =  1.00D-22  TWOINT  =  1.00D-22  PREFAC  =  1.00D-14  LOCALI  =  1.00D-09  EORDER  =  1.00D-04
 ENERGY  =  1.00D-12  ETEST   =  0.00D+00  EDENS   =  0.00D+00  THRDEDEF=  1.00D-06  GRADIENT=  1.00D-02  STEP    =  1.00D-03
 ORBITAL =  1.00D-05  CIVEC   =  1.00D-05  COEFF   =  1.00D-04  PRINTCI =  5.00D-02  PUNCHCI =  9.90D+01  OPTGRAD =  1.00D-08
 OPTENERG=  1.00D-06  OPTSTEP =  1.00D-08  THRGRAD =  1.00D-10  COMPRESS=  1.00D-11  VARMIN  =  1.00D-07  VARMAX  =  1.00D-03
 THRDOUB =  0.00D+00  THRDIV  =  1.00D-05  THRRED  =  1.00D-07  THRPSP  =  1.00D+00  THRDC   =  1.00D-10  THRCS   =  1.00D-10
 THRNRM  =  1.00D-08  THREQ   =  0.00D+00  THRDE   =  1.00D+00  THRREF  =  1.00D-05  SPARFAC =  1.00D+00  THRDLP  =  1.00D-07
 THRDIA  =  1.00D-10  THRDLS  =  1.00D-07  THRGPS  =  0.00D+00  THRKEX  =  0.00D+00  THRDIS  =  2.00D-01  THRVAR  =  1.00D-10
 THRLOC  =  1.00D-06  THRGAP  =  1.00D-06  THRLOCT = -1.00D+00  THRGAPT = -1.00D+00  THRORB  =  1.00D-06  THRMLTP =  0.00D+00
 THRCPQCI=  1.00D-10  KEXTA   =  0.00D+00  THRCOARS=  0.00D+00  SYMTOL  =  1.00D-06  GRADTOL =  1.00D-06  THROVL  =  1.00D-08
 THRORTH =  1.00D-08  GRID    =  1.00D-06  GRIDMAX =  1.00D-03  DTMAX   =  0.00D+00  THROCCDE=  1.00D-01  THROCCDE=  1.00D-01



 Input parameters for SORTINT:

 COMPRESS =    0.000000
 C_FINAL  =    1.000000
 DEBUG    =   -1.000000
 C_SORT1  =    0.000000
 C_SEWARD =    0.000000
 THRESH   =    0.000000
 IO       =  molpro                                                          
 SPRI     =    0.000000
 SETTING GEOMTYP        =    XYZ
 ZUNIT=BOHR
 

 Variable memory set to  995000000 words,  buffer space   230000 words

 SETTING BASIS          =    AVTZ


 Recomputing integrals since basis changed


 Using spherical harmonics

 Library entry H      S aug-cc-pVTZ          selected for orbital group  1
 Library entry H      P aug-cc-pVTZ          selected for orbital group  1
 Library entry H      D aug-cc-pVTZ          selected for orbital group  1
 Library entry N      S aug-cc-pVTZ          selected for orbital group  2
 Library entry N      P aug-cc-pVTZ          selected for orbital group  2
 Library entry N      D aug-cc-pVTZ          selected for orbital group  2
 Library entry N      F aug-cc-pVTZ          selected for orbital group  2
 Library entry O      S aug-cc-pVTZ          selected for orbital group  3
 Library entry O      P aug-cc-pVTZ          selected for orbital group  3
 Library entry O      D aug-cc-pVTZ          selected for orbital group  3
 Library entry O      F aug-cc-pVTZ          selected for orbital group  3


 PROGRAM * SEWARD (Integral evaluation for generally contracted gaussian basis sets)     Author: Roland Lindh, 1990

 Geometry written to block  1 of record 700


 Point group  Cs  



 ATOMIC COORDINATES

 NR  ATOM    CHARGE       X              Y              Z

   1  H       1.00    0.000000000    1.670733180   -1.922051377
   2  N       7.00    0.000000000   -0.171741277   -1.150485445
   3  O       8.00    0.000000000    0.042775886    1.121947231

 Bond lengths in Bohr (Angstrom)

 1-2  1.997504972  2-3  2.282535406
     ( 1.057034110)     ( 1.207865720)

 Bond angles

  1-2-3  107.32955680

 NUCLEAR CHARGE:                   16
 NUMBER OF PRIMITIVE AOS:         161
 NUMBER OF SYMMETRY AOS:          141
 NUMBER OF CONTRACTIONS:          115   (  76A'  +  39A"  )
 NUMBER OF CORE ORBITALS:           2   (   2A'  +   0A"  )
 NUMBER OF VALENCE ORBITALS:        9   (   7A'  +   2A"  )


 NUCLEAR REPULSION ENERGY   30.35600271

 Eigenvalues of metric

         1 0.232E-03 0.505E-03 0.180E-02 0.214E-02 0.254E-02 0.358E-02 0.432E-02 0.522E-02
         2 0.396E-02 0.103E-01 0.263E-01 0.374E-01 0.515E-01 0.625E-01 0.824E-01 0.119E+00


 Contracted 2-electron integrals neglected if value below      1.0D-22

       10790064. INTEGRALS WRITTEN OUT IN    2635 BLOCKS ON RECORD 1290 OF FILE 1


 NUMBER OF SORTED TWO-ELECTRON INTEGRALS:   11433631.     BUFFER LENGTH:  32768
 NUMBER OF SEGMENTS:   1  SEGMENT LENGTH:   11433631      RECORD LENGTH: 524288

 Memory used in sort:      11.99 MW

 SORT1 READ    10790064. AND WROTE    10943632. INTEGRALS IN     32 RECORDS. CPU TIME:     0.15 SEC, REAL TIME:     0.23 SEC
 SORT2 READ    10943632. AND WROTE    11433631. INTEGRALS IN      1 RECORDS. CPU TIME:     0.16 SEC, REAL TIME:     0.23 SEC

 FILE SIZES:   FILE 1:   193.0 MBYTE,  FILE 4:   134.3 MBYTE,   TOTAL:    327.2 MBYTE

 OPERATOR DM      FOR CENTER  0  COORDINATES:    0.000000    0.000000    0.000000


 **********************************************************************************************************************************
 DATASETS  * FILE   NREC   LENGTH (MB)   RECORD NAMES
              1      19      111.05       500      610      700      900      950      970     1000      129      960     1100   
                                          VAR    BASINP    GEOM    SYMINP    ZMAT    AOBASIS   BASIS     P2S    ABASIS      S 
                                         1400     1410     1200     1210     1080     1600     1650     1300     1700   
                                           T        V       H0       H01     AOSYM     SMH    MOLCAS    ERIS     OPER   

 PROGRAMS   *        TOTAL       INT
 CPU TIMES  *         1.30      1.19
 REAL TIME  *         2.03 SEC
 DISK USED  *       327.55 MB      
 **********************************************************************************************************************************


 PROGRAM * RHF-SCF (CLOSED SHELL)       Authors: W. Meyer, H.-J. Werner


 NUMBER OF ELECTRONS:       8+    8-
 CONVERGENCE THRESHOLDS:    1.00E-10 (Density)    1.00E-13 (Energy)
 MAX. NUMBER OF ITERATIONS:      500
 INTERPOLATION TYPE:            DIIS
 INTERPOLATION STEPS:              2 (START)      1 (STEP)
 LEVEL SHIFTS:                  0.00 (CLOSED)  0.00 (OPEN) 



 Orbital guess generated from atomic densities. Full valence occupancy:    9   2

 Molecular orbital dump at record        2100.2

 Initial occupancy:   7   1

 ITERATION    DDIFF          GRAD             ENERGY        2-EL.EN.            DIPOLE MOMENTS         DIIS   ORB.
    1      0.000D+00      0.000D+00      -129.78786088    153.872659    0.00000    0.58123   -1.01939    0    start
    2      0.000D+00      0.108D-01      -129.81533964    155.143676    0.00000    0.61097   -0.20428    1    diag
    3      0.119D-01      0.827D-02      -129.83824578    155.254376    0.00000    0.55220   -0.58852    2    diag
    4      0.595D-02      0.127D-02      -129.83903593    154.965766    0.00000    0.56003   -0.52887    3    diag
    5      0.107D-02      0.423D-03      -129.83916291    155.059873    0.00000    0.56561   -0.53163    4    diag
    6      0.451D-03      0.122D-03      -129.83918326    155.044222    0.00000    0.56597   -0.52753    5    diag
    7      0.173D-03      0.606D-04      -129.83918911    155.046757    0.00000    0.56723   -0.52496    6    diag
    8      0.119D-03      0.206D-04      -129.83918973    155.046093    0.00000    0.56725   -0.52396    7    diag
    9      0.446D-04      0.389D-05      -129.83918976    155.045985    0.00000    0.56722   -0.52375    8    diag
   10      0.857D-05      0.883D-06      -129.83918976    155.045966    0.00000    0.56718   -0.52372    9    orth
   11      0.173D-05      0.177D-06      -129.83918976    155.045963    0.00000    0.56717   -0.52372    9    diag
   12      0.336D-06      0.365D-07      -129.83918976    155.045963    0.00000    0.56717   -0.52372    9    diag
   13      0.733D-07      0.926D-08      -129.83918976    155.045962    0.00000    0.56717   -0.52372    9    diag
   14      0.193D-07      0.191D-08      -129.83918976    155.045962    0.00000    0.56717   -0.52372    9    diag
   15      0.380D-08      0.535D-09      -129.83918976    155.045962    0.00000    0.56717   -0.52372    9    diag
   16      0.104D-08      0.146D-09      -129.83918976    155.045962    0.00000    0.56717   -0.52372    9    diag
   17      0.186D-09      0.424D-10      -129.83918976    155.045962    0.00000    0.56717   -0.52372    9    diag
   18      0.529D-10      0.152D-10      -129.83918976    155.045962    0.00000    0.56717   -0.52372    9    diag
   19      0.273D-10      0.335D-11      -129.83918976    155.045962    0.00000    0.56717   -0.52372    9    fixocc
   20      0.671D-11      0.581D-12      -129.83918976    155.045962    0.00000    0.56717   -0.52372    9    orth
   21      0.143D-11      0.200D-12      -129.83918976    155.045962    0.00000    0.56717   -0.52372    9    diag
   22      0.112D-11      0.886D-13      -129.83918976    155.045962    0.00000    0.56717   -0.52372    0    orth

 Final occupancy:   7   1

 !RHF STATE 1.1 Energy               -129.839189761240
 Nuclear energy                        30.35600271
 One-electron energy                 -237.71817367
 Two-electron energy                   77.52298120
 Virial quotient                       -1.00218733
 !RHF STATE 1.1 Dipole moment           0.00000000     0.56717231    -0.52371604
 Dipole moment /Debye                   0.00000000     1.44151379    -1.33106621

 Orbital energies:

         1.1          2.1          3.1          4.1          5.1          6.1          7.1          8.1          9.1
    -20.656428   -15.715278    -1.531235    -0.993243    -0.746832    -0.665953    -0.430681     0.029252     0.092213

         1.2          2.2          3.2
     -0.596456     0.065037     0.130313

 HOMO      7.1    -0.430681 =     -11.7194eV
 LUMO      8.1     0.029252 =       0.7960eV
 LUMO-HOMO         0.459932 =      12.5154eV


 **********************************************************************************************************************************
 DATASETS  * FILE   NREC   LENGTH (MB)   RECORD NAMES
              1      19      111.05       500      610      700      900      950      970     1000      129      960     1100   
                                          VAR    BASINP    GEOM    SYMINP    ZMAT    AOBASIS   BASIS     P2S    ABASIS      S 
                                         1400     1410     1200     1210     1080     1600     1650     1300     1700   
                                           T        V       H0       H01     AOSYM     SMH    MOLCAS    ERIS     OPER   

              2       4        2.94       700     1000      520     2100   
                                         GEOM     BASIS   MCVARS     RHF  

 PROGRAMS   *        TOTAL        HF       INT
 CPU TIMES  *         2.45      1.15      1.19
 REAL TIME  *         3.61 SEC
 DISK USED  *       327.55 MB      
 **********************************************************************************************************************************


 PROGRAM * CCSD (Closed-shell coupled cluster)     Authors: C. Hampel, H.-J. Werner, 1991, M. Deegan, P.J. Knowles, 1992


 Convergence thresholds:  THRVAR = 1.00D-08  THRDEN = 1.00D-12

 CCSD(T)     terms to be evaluated (factor= 1.000)


 Number of core orbitals:           2 (   2   0 )
 Number of closed-shell orbitals:   6 (   5   1 )
 Number of external orbitals:     107 (  69  38 )

 Molecular orbitals read from record     2100.2  Type=RHF/CANONICAL (state 1.1)

 Number of N-1 electron functions:               6
 Number of N-2 electron functions:              21
 Number of singly external CSFs:               383
 Number of doubly external CSFs:            107206
 Total number of CSFs:                      107590

 Length of J-op  integral file:               0.00 MB
 Length of K-op  integral file:               0.54 MB
 Length of 3-ext integral record:             0.00 MB

 Memory could be reduced to 5.94 Mwords without degradation in triples

 Integral transformation finished. Total CPU:   0.16 sec, npass=  1  Memory used:   1.65 MW

 Reference energy:                   -129.83918976

 MP2 singlet pair energy:              -0.27955085
 MP2 triplet pair energy:              -0.16524465
 MP2 correlation energy:               -0.44479550
 MP2 total energy:                   -130.28398526

 SCS-MP2 correlation energy:           -0.43827991   (PS=  1.200000  PT=  0.333333)
 SCS-MP2 total energy:               -130.27746967

 ITER.      SQ.NORM     CORR.ENERGY   TOTAL ENERGY   ENERGY CHANGE        DEN1      VAR(S)    VAR(P)  DIIS     TIME  TIME/IT
   1      1.12108372    -0.44889751  -130.28808727    -0.00410201     0.01198576  0.31D-02  0.31D-02  1  1     0.32     0.16
   2      1.13222446    -0.44909588  -130.28828564    -0.00019838    -0.01246040  0.10D-03  0.51D-03  2  2     0.45     0.16
   3      1.13873058    -0.44949734  -130.28868710    -0.00040146    -0.00301140  0.54D-04  0.51D-04  3  3     0.58     0.16
   4      1.14161612    -0.44950860  -130.28869836    -0.00001126    -0.00097731  0.42D-05  0.91D-05  4  4     0.70     0.16
   5      1.14266364    -0.44953753  -130.28872729    -0.00002893    -0.00022210  0.11D-05  0.16D-05  5  5     0.85     0.16
   6      1.14300424    -0.44952054  -130.28871030     0.00001699    -0.00004174  0.10D-06  0.39D-06  6  6     0.98     0.16
   7      1.14307801    -0.44952163  -130.28871139    -0.00000109    -0.00000171  0.19D-07  0.90D-07  6  1     1.13     0.16
   8      1.14309948    -0.44952226  -130.28871202    -0.00000063     0.00000145  0.35D-08  0.16D-07  6  2     1.28     0.16
   9      1.14310485    -0.44952181  -130.28871157     0.00000045     0.00000045  0.27D-08  0.18D-08  6  4     1.41     0.16
  10      1.14310717    -0.44952228  -130.28871204    -0.00000048    -0.00000071  0.43D-09  0.21D-09  6  3     1.56     0.16
  11      1.14310668    -0.44952230  -130.28871207    -0.00000002    -0.00000007  0.15D-09  0.32D-10  6  5     1.70     0.17
  12      1.14310563    -0.44952246  -130.28871222    -0.00000015     0.00000033  0.17D-10  0.10D-10  6  6     1.84     0.17
  13      1.14310479    -0.44952249  -130.28871225    -0.00000003     0.00000021  0.62D-11  0.21D-11  6  1     1.99     0.17
  14      1.14310425    -0.44952252  -130.28871228    -0.00000003     0.00000014  0.97D-12  0.67D-12  6  2     2.16     0.17
  15      1.14310403    -0.44952253  -130.28871229    -0.00000001     0.00000003  0.28D-12  0.21D-12  6  4     2.32     0.17
  16      1.14310393    -0.44952253  -130.28871229    -0.00000000     0.00000001  0.52D-13  0.73D-13  6  3     2.47     0.17
  17      1.14310388    -0.44952253  -130.28871229    -0.00000000     0.00000001  0.37D-14  0.17D-13  6  5     2.63     0.17
  18      1.14310387    -0.44952253  -130.28871229     0.00000000    -0.00000000  0.12D-14  0.36D-14  6  6     2.78     0.17
  19      1.14310387    -0.44952253  -130.28871229    -0.00000000     0.00000000  0.10D-14  0.64D-15  6  1     2.95     0.17
  20      1.14310387    -0.44952253  -130.28871229     0.00000000    -0.00000000  0.21D-15  0.11D-15  6  2     3.10     0.17
  21      1.14310387    -0.44952253  -130.28871229     0.00000000    -0.00000000  0.52D-16  0.29D-16  6  3     3.25     0.17
  22      1.14310387    -0.44952253  -130.28871229     0.00000000     0.00000000  0.59D-17  0.26D-17  6  4     3.41     0.17
  23      1.14310387    -0.44952253  -130.28871229     0.00000000    -0.00000000  0.22D-17  0.54D-18  6  5     3.57     0.17
  24      1.14310387    -0.44952253  -130.28871229     0.00000000     0.00000000  0.14D-18  0.47D-19  6  2     3.73     0.17
  25      1.14310387    -0.44952253  -130.28871229    -0.00000000    -0.00000000  0.21D-19  0.12D-19  6  6     3.88     0.17
  26      1.14310387    -0.44952253  -130.28871229     0.00000000    -0.00000000  0.32D-20  0.21D-20  6  1     4.05     0.17
  27      1.14310387    -0.44952253  -130.28871229    -0.00000000    -0.00000000  0.47D-21  0.48D-21  6  4     4.18     0.17

 Norm of t1 vector:      0.07840359      S-energy:    -0.00000000      T1 diagnostic:  0.01600407
                                                                       D1 diagnostic:  0.04201253

 Doubles amplitudes (print threshold =  0.500E-01):

         I         J         SYM. A    SYM. B    A         B      T(IJ, AB)

         6         6         2         2         1         1     -0.10885091


 Total CPU time for triples:      1.09 sec


 RESULTS
 =======

  Reference energy                   -129.839189761240
  CCSD singlet pair energy             -0.308238959958
  CCSD triplet pair energy             -0.141283570713
  CCSD correlation energy              -0.449522530671

  Triples (T) contribution             -0.020933722834
  Total correlation energy             -0.470456253506

  CCSD total energy                  -130.288712291911
  CCSD[T] energy                     -130.310712838085
  CCSD-T energy                      -130.309240837263
 !CCSD(T) total energy               -130.309646014745

 Timing summary (sec):

 STEP                 CPU(USER)    SYS     CPU(TOT)    WALL
 Transformation          0.16      0.02      0.18      0.21
 CCSD iterations         4.03      0.60      4.63      4.61
 Triples                 1.09      0.08      1.17      1.17

 Program statistics:

 Available memory in ccsd:               994999756
 Min. memory needed in ccsd:                389120
 Max. memory used in ccsd:                  473124
 Max. memory used in cckext:                599488 (27 integral passes)



 **********************************************************************************************************************************
 DATASETS  * FILE   NREC   LENGTH (MB)   RECORD NAMES
              1      20      128.20       500      610      700      900      950      970     1000      129      960     1100   
                                          VAR    BASINP    GEOM    SYMINP    ZMAT    AOBASIS   BASIS     P2S    ABASIS      S 
                                         1400     1410     1200     1210     1080     1600     1650     1300     1700     1380   
                                           T        V       H0       H01     AOSYM     SMH    MOLCAS    ERIS     OPER     JKOP   

              2       4        2.94       700     1000      520     2100   
                                         GEOM     BASIS   MCVARS     RHF  

 PROGRAMS   *        TOTAL   CCSD(T)        HF       INT
 CPU TIMES  *         7.76      5.30      1.15      1.19
 REAL TIME  *         9.68 SEC
 DISK USED  *       327.55 MB      
 **********************************************************************************************************************************

 CCSD(T)/aug-cc-pVTZ energy=   -130.309646014745

        CCSD(T)         HF-SCF  
   -130.30964601   -129.83918976
 **********************************************************************************************************************************
 Molpro calculation terminated
 Variable memory released
