
 Primary working directories    : /tmp/r2666/282229.maple
 Secondary working directories  : /tmp/r2666/282229.maple
 Wavefunction directory         : /ddn/home4/r2666/wfu/
 Main file repository           : /tmp/r2666/282229.maple/

 SHA1      : d5ffa45e93fdbca01ffc919aa182cfdae0147319
 NAME      : 2015.1.35
 ARCHNAME  : linux/x86_64
 FC        : /opt/intel/composer_xe_2015.1.133/bin/intel64/ifort
 BLASLIB   : -Wl,-_start-group /opt/intel/mkl/lib/intel64/libmkl_intel_ilp64.a /opt/intel/mkl/lib/intel64/libmkl_intel_thread.a /opt/intel/mkl/lib/intel64/libmkl_core.a -Wl,-_end-group
 id        : olemiss

 Nodes     nprocs
 cn053        1

 Using customized tuning parameters: mindgm=1; mindgv=20; mindgc=4; mindgr=1; noblas=0; minvec=7
 default implementation of scratch files=df  

 ***,hno CCSD(T)/TZ-F12 QFF
 memory, 995, m;
 gthresh,energy=1.d-12,zero=1.d-22,oneint=1.d-22,twoint=1.d-22;
 gthresh,optgrad=1.d-8,optstep=1.d-8;
 nocompress;
 geomtyp=xyz
 bohr
 geometry={
 3
        126       126
 H        0.0000000000        1.6805078646       -1.9399823437
 N        0.0000000000       -0.1712808513       -1.1420120983
 O        0.0000000000        0.0325407768        1.1314048510
 }
 
 basis=avtz
   {hf,maxit=500;accu,20;}
 {ccsd(t),nocheck,maxit=250;orbital,IGNORE_ERROR;}

 Variables initialized (889), CPU time= 0.00 sec
 Commands  initialized (702), CPU time= 0.01 sec, 572 directives.
 Default parameters read. Elapsed time= 0.05 sec

 Checking input...
 Passed
1


                                         ***  PROGRAM SYSTEM MOLPRO  ***
                                       Copyright, TTI GmbH Stuttgart, 2015
                                    Version 2015.1 linked Jul  9 2018 13:16:40


 **********************************************************************************************************************************
 LABEL *   hno CCSD(T)/TZ-F12 QFF                                                        
  64 bit serial version                                                                  DATE: 04-Mar-20          TIME: 13:46:47  
 **********************************************************************************************************************************

 SHA1:             d5ffa45e93fdbca01ffc919aa182cfdae0147319
 **********************************************************************************************************************************

 THRESHOLDS:

 ZERO    =  1.00D-22  ONEINT  =  1.00D-22  TWOINT  =  1.00D-22  PREFAC  =  1.00D-14  LOCALI  =  1.00D-09  EORDER  =  1.00D-04
 ENERGY  =  1.00D-12  ETEST   =  0.00D+00  EDENS   =  0.00D+00  THRDEDEF=  1.00D-06  GRADIENT=  1.00D-02  STEP    =  1.00D-03
 ORBITAL =  1.00D-05  CIVEC   =  1.00D-05  COEFF   =  1.00D-04  PRINTCI =  5.00D-02  PUNCHCI =  9.90D+01  OPTGRAD =  3.00D-04
 OPTENERG=  1.00D-06  OPTSTEP =  3.00D-04  THRGRAD =  1.00D-10  COMPRESS=  1.00D-11  VARMIN  =  1.00D-07  VARMAX  =  1.00D-03
 THRDOUB =  0.00D+00  THRDIV  =  1.00D-05  THRRED  =  1.00D-07  THRPSP  =  1.00D+00  THRDC   =  1.00D-10  THRCS   =  1.00D-10
 THRNRM  =  1.00D-08  THREQ   =  0.00D+00  THRDE   =  1.00D+00  THRREF  =  1.00D-05  SPARFAC =  1.00D+00  THRDLP  =  1.00D-07
 THRDIA  =  1.00D-10  THRDLS  =  1.00D-07  THRGPS  =  0.00D+00  THRKEX  =  0.00D+00  THRDIS  =  2.00D-01  THRVAR  =  1.00D-10
 THRLOC  =  1.00D-06  THRGAP  =  1.00D-06  THRLOCT = -1.00D+00  THRGAPT = -1.00D+00  THRORB  =  1.00D-06  THRMLTP =  0.00D+00
 THRCPQCI=  1.00D-10  KEXTA   =  0.00D+00  THRCOARS=  0.00D+00  SYMTOL  =  1.00D-06  GRADTOL =  1.00D-06  THROVL  =  1.00D-08
 THRORTH =  1.00D-08  GRID    =  1.00D-06  GRIDMAX =  1.00D-03  DTMAX   =  0.00D+00  THROCCDE=  1.00D-01  THROCCDE=  1.00D-01



 THRESHOLDS:

 ZERO    =  1.00D-22  ONEINT  =  1.00D-22  TWOINT  =  1.00D-22  PREFAC  =  1.00D-14  LOCALI  =  1.00D-09  EORDER  =  1.00D-04
 ENERGY  =  1.00D-12  ETEST   =  0.00D+00  EDENS   =  0.00D+00  THRDEDEF=  1.00D-06  GRADIENT=  1.00D-02  STEP    =  1.00D-03
 ORBITAL =  1.00D-05  CIVEC   =  1.00D-05  COEFF   =  1.00D-04  PRINTCI =  5.00D-02  PUNCHCI =  9.90D+01  OPTGRAD =  1.00D-08
 OPTENERG=  1.00D-06  OPTSTEP =  1.00D-08  THRGRAD =  1.00D-10  COMPRESS=  1.00D-11  VARMIN  =  1.00D-07  VARMAX  =  1.00D-03
 THRDOUB =  0.00D+00  THRDIV  =  1.00D-05  THRRED  =  1.00D-07  THRPSP  =  1.00D+00  THRDC   =  1.00D-10  THRCS   =  1.00D-10
 THRNRM  =  1.00D-08  THREQ   =  0.00D+00  THRDE   =  1.00D+00  THRREF  =  1.00D-05  SPARFAC =  1.00D+00  THRDLP  =  1.00D-07
 THRDIA  =  1.00D-10  THRDLS  =  1.00D-07  THRGPS  =  0.00D+00  THRKEX  =  0.00D+00  THRDIS  =  2.00D-01  THRVAR  =  1.00D-10
 THRLOC  =  1.00D-06  THRGAP  =  1.00D-06  THRLOCT = -1.00D+00  THRGAPT = -1.00D+00  THRORB  =  1.00D-06  THRMLTP =  0.00D+00
 THRCPQCI=  1.00D-10  KEXTA   =  0.00D+00  THRCOARS=  0.00D+00  SYMTOL  =  1.00D-06  GRADTOL =  1.00D-06  THROVL  =  1.00D-08
 THRORTH =  1.00D-08  GRID    =  1.00D-06  GRIDMAX =  1.00D-03  DTMAX   =  0.00D+00  THROCCDE=  1.00D-01  THROCCDE=  1.00D-01



 Input parameters for SORTINT:

 COMPRESS =    0.000000
 C_FINAL  =    1.000000
 DEBUG    =   -1.000000
 C_SORT1  =    0.000000
 C_SEWARD =    0.000000
 THRESH   =    0.000000
 IO       =  molpro                                                          
 SPRI     =    0.000000
 SETTING GEOMTYP        =    XYZ
 ZUNIT=BOHR
 

 Variable memory set to  995000000 words,  buffer space   230000 words

 SETTING BASIS          =    AVTZ


 Recomputing integrals since basis changed


 Using spherical harmonics

 Library entry H      S aug-cc-pVTZ          selected for orbital group  1
 Library entry H      P aug-cc-pVTZ          selected for orbital group  1
 Library entry H      D aug-cc-pVTZ          selected for orbital group  1
 Library entry N      S aug-cc-pVTZ          selected for orbital group  2
 Library entry N      P aug-cc-pVTZ          selected for orbital group  2
 Library entry N      D aug-cc-pVTZ          selected for orbital group  2
 Library entry N      F aug-cc-pVTZ          selected for orbital group  2
 Library entry O      S aug-cc-pVTZ          selected for orbital group  3
 Library entry O      P aug-cc-pVTZ          selected for orbital group  3
 Library entry O      D aug-cc-pVTZ          selected for orbital group  3
 Library entry O      F aug-cc-pVTZ          selected for orbital group  3


 PROGRAM * SEWARD (Integral evaluation for generally contracted gaussian basis sets)     Author: Roland Lindh, 1990

 Geometry written to block  1 of record 700


 Point group  Cs  



 ATOMIC COORDINATES

 NR  ATOM    CHARGE       X              Y              Z

   1  H       1.00    0.000000000    1.680507865   -1.939982344
   2  N       7.00    0.000000000   -0.171280851   -1.142012098
   3  O       8.00    0.000000000    0.032540777    1.131404851

 Bond lengths in Bohr (Angstrom)

 1-2  2.016402232  2-3  2.282535406
     ( 1.067034109)     ( 1.207865720)

 Bond angles

  1-2-3  108.18899349

 NUCLEAR CHARGE:                   16
 NUMBER OF PRIMITIVE AOS:         161
 NUMBER OF SYMMETRY AOS:          141
 NUMBER OF CONTRACTIONS:          115   (  76A'  +  39A"  )
 NUMBER OF CORE ORBITALS:           2   (   2A'  +   0A"  )
 NUMBER OF VALENCE ORBITALS:        9   (   7A'  +   2A"  )


 NUCLEAR REPULSION ENERGY   30.30082605

 Eigenvalues of metric

         1 0.234E-03 0.507E-03 0.182E-02 0.217E-02 0.254E-02 0.359E-02 0.438E-02 0.531E-02
         2 0.396E-02 0.105E-01 0.264E-01 0.375E-01 0.513E-01 0.630E-01 0.825E-01 0.121E+00


 Contracted 2-electron integrals neglected if value below      1.0D-22

       10790064. INTEGRALS WRITTEN OUT IN    2635 BLOCKS ON RECORD 1290 OF FILE 1


 NUMBER OF SORTED TWO-ELECTRON INTEGRALS:   11433631.     BUFFER LENGTH:  32768
 NUMBER OF SEGMENTS:   1  SEGMENT LENGTH:   11433631      RECORD LENGTH: 524288

 Memory used in sort:      11.99 MW

 SORT1 READ    10790064. AND WROTE    10943632. INTEGRALS IN     32 RECORDS. CPU TIME:     0.33 SEC, REAL TIME:     0.45 SEC
 SORT2 READ    10943632. AND WROTE    11433631. INTEGRALS IN      1 RECORDS. CPU TIME:     0.32 SEC, REAL TIME:     0.41 SEC

 FILE SIZES:   FILE 1:   193.0 MBYTE,  FILE 4:   134.3 MBYTE,   TOTAL:    327.2 MBYTE

 OPERATOR DM      FOR CENTER  0  COORDINATES:    0.000000    0.000000    0.000000


 **********************************************************************************************************************************
 DATASETS  * FILE   NREC   LENGTH (MB)   RECORD NAMES
              1      19      111.05       500      610      700      900      950      970     1000      129      960     1100   
                                          VAR    BASINP    GEOM    SYMINP    ZMAT    AOBASIS   BASIS     P2S    ABASIS      S 
                                         1400     1410     1200     1210     1080     1600     1650     1300     1700   
                                           T        V       H0       H01     AOSYM     SMH    MOLCAS    ERIS     OPER   

 PROGRAMS   *        TOTAL       INT
 CPU TIMES  *         2.10      2.01
 REAL TIME  *         3.99 SEC
 DISK USED  *       327.55 MB      
 **********************************************************************************************************************************


 PROGRAM * RHF-SCF (CLOSED SHELL)       Authors: W. Meyer, H.-J. Werner


 NUMBER OF ELECTRONS:       8+    8-
 CONVERGENCE THRESHOLDS:    1.00E-10 (Density)    1.00E-13 (Energy)
 MAX. NUMBER OF ITERATIONS:      500
 INTERPOLATION TYPE:            DIIS
 INTERPOLATION STEPS:              2 (START)      1 (STEP)
 LEVEL SHIFTS:                  0.00 (CLOSED)  0.00 (OPEN) 



 Orbital guess generated from atomic densities. Full valence occupancy:    9   2

 Molecular orbital dump at record        2100.2

 Initial occupancy:   7   1

 ITERATION    DDIFF          GRAD             ENERGY        2-EL.EN.            DIPOLE MOMENTS         DIIS   ORB.
    1      0.000D+00      0.000D+00      -129.78706294    153.760691    0.00000    0.58195   -1.02204    0    start
    2      0.000D+00      0.108D-01      -129.81450648    155.048813    0.00000    0.60939   -0.20362    1    diag
    3      0.120D-01      0.833D-02      -129.83778265    155.155343    0.00000    0.55194   -0.59062    2    diag
    4      0.599D-02      0.128D-02      -129.83857703    154.864809    0.00000    0.55928   -0.53074    3    diag
    5      0.107D-02      0.424D-03      -129.83870574    154.960025    0.00000    0.56509   -0.53366    4    diag
    6      0.454D-03      0.123D-03      -129.83872645    154.944268    0.00000    0.56547   -0.52953    5    diag
    7      0.175D-03      0.609D-04      -129.83873237    154.946850    0.00000    0.56677   -0.52698    6    diag
    8      0.120D-03      0.207D-04      -129.83873301    154.946185    0.00000    0.56680   -0.52598    7    diag
    9      0.450D-04      0.396D-05      -129.83873304    154.946072    0.00000    0.56676   -0.52576    8    diag
   10      0.871D-05      0.904D-06      -129.83873304    154.946051    0.00000    0.56672   -0.52573    9    orth
   11      0.178D-05      0.181D-06      -129.83873304    154.946047    0.00000    0.56671   -0.52573    9    diag
   12      0.347D-06      0.372D-07      -129.83873304    154.946047    0.00000    0.56671   -0.52573    9    diag
   13      0.752D-07      0.948D-08      -129.83873304    154.946047    0.00000    0.56671   -0.52573    9    diag
   14      0.199D-07      0.198D-08      -129.83873304    154.946047    0.00000    0.56671   -0.52573    9    diag
   15      0.396D-08      0.553D-09      -129.83873304    154.946047    0.00000    0.56671   -0.52573    9    diag
   16      0.108D-08      0.151D-09      -129.83873304    154.946047    0.00000    0.56671   -0.52573    9    diag
   17      0.192D-09      0.442D-10      -129.83873304    154.946047    0.00000    0.56671   -0.52573    9    diag
   18      0.553D-10      0.160D-10      -129.83873304    154.946047    0.00000    0.56671   -0.52573    9    diag
   19      0.288D-10      0.353D-11      -129.83873304    154.946047    0.00000    0.56671   -0.52573    9    fixocc
   20      0.687D-11      0.602D-12      -129.83873304    154.946047    0.00000    0.56671   -0.52573    9    orth
   21      0.150D-11      0.217D-12      -129.83873304    154.946047    0.00000    0.56671   -0.52573    9    diag
   22      0.193D-11      0.103D-12      -129.83873304    154.946047    0.00000    0.56671   -0.52573    9    diag
   23      0.101D-11      0.599D-13      -129.83873304    154.946047    0.00000    0.56671   -0.52573    9    diag
   24      0.604D-12      0.690D-13      -129.83873304    154.946047    0.00000    0.56671   -0.52573    9    diag
   25      0.272D-12      0.422D-13      -129.83873304    154.946047    0.00000    0.56671   -0.52573    9    diag
   26      0.335D-12      0.519D-13      -129.83873304    154.946047    0.00000    0.56671   -0.52573    9    diag
   27      0.172D-12      0.360D-13      -129.83873304    154.946047    0.00000    0.56671   -0.52573    9    diag
   28      0.121D-12      0.374D-13      -129.83873304    154.946047    0.00000    0.56671   -0.52573    9    diag
   29      0.886D-13      0.366D-13      -129.83873304    154.946047    0.00000    0.56671   -0.52573    9    diag
   30      0.538D-13      0.442D-13      -129.83873304    154.946047    0.00000    0.56671   -0.52573    0    orth

 Final occupancy:   7   1

 !RHF STATE 1.1 Energy               -129.838733037381
 Nuclear energy                        30.30082605
 One-electron energy                 -237.61258254
 Two-electron energy                   77.47302345
 Virial quotient                       -1.00232924
 !RHF STATE 1.1 Dipole moment           0.00000000     0.56671239    -0.52573005
 Dipole moment /Debye                   0.00000000     1.44034487    -1.33618498

 Orbital energies:

         1.1          2.1          3.1          4.1          5.1          6.1          7.1          8.1          9.1
    -20.656867   -15.716484    -1.530713    -0.991338    -0.745681    -0.666142    -0.429532     0.029171     0.092163

         1.2          2.2          3.2
     -0.596511     0.064911     0.130470

 HOMO      7.1    -0.429532 =     -11.6882eV
 LUMO      8.1     0.029171 =       0.7938eV
 LUMO-HOMO         0.458703 =      12.4820eV


 **********************************************************************************************************************************
 DATASETS  * FILE   NREC   LENGTH (MB)   RECORD NAMES
              1      19      111.05       500      610      700      900      950      970     1000      129      960     1100   
                                          VAR    BASINP    GEOM    SYMINP    ZMAT    AOBASIS   BASIS     P2S    ABASIS      S 
                                         1400     1410     1200     1210     1080     1600     1650     1300     1700   
                                           T        V       H0       H01     AOSYM     SMH    MOLCAS    ERIS     OPER   

              2       4        2.94       700     1000      520     2100   
                                         GEOM     BASIS   MCVARS     RHF  

 PROGRAMS   *        TOTAL        HF       INT
 CPU TIMES  *         4.13      2.03      2.01
 REAL TIME  *         6.77 SEC
 DISK USED  *       327.55 MB      
 **********************************************************************************************************************************


 PROGRAM * CCSD (Closed-shell coupled cluster)     Authors: C. Hampel, H.-J. Werner, 1991, M. Deegan, P.J. Knowles, 1992


 Convergence thresholds:  THRVAR = 1.00D-08  THRDEN = 1.00D-12

 CCSD(T)     terms to be evaluated (factor= 1.000)


 Number of core orbitals:           2 (   2   0 )
 Number of closed-shell orbitals:   6 (   5   1 )
 Number of external orbitals:     107 (  69  38 )

 Molecular orbitals read from record     2100.2  Type=RHF/CANONICAL (state 1.1)

 Number of N-1 electron functions:               6
 Number of N-2 electron functions:              21
 Number of singly external CSFs:               383
 Number of doubly external CSFs:            107206
 Total number of CSFs:                      107590

 Length of J-op  integral file:               0.00 MB
 Length of K-op  integral file:               0.54 MB
 Length of 3-ext integral record:             0.00 MB

 Memory could be reduced to 5.94 Mwords without degradation in triples

 Integral transformation finished. Total CPU:   0.21 sec, npass=  1  Memory used:   1.65 MW

 Reference energy:                   -129.83873304

 MP2 singlet pair energy:              -0.27979290
 MP2 triplet pair energy:              -0.16538982
 MP2 correlation energy:               -0.44518271
 MP2 total energy:                   -130.28391575

 SCS-MP2 correlation energy:           -0.43866070   (PS=  1.200000  PT=  0.333333)
 SCS-MP2 total energy:               -130.27739373

 ITER.      SQ.NORM     CORR.ENERGY   TOTAL ENERGY   ENERGY CHANGE        DEN1      VAR(S)    VAR(P)  DIIS     TIME  TIME/IT
   1      1.12145958    -0.44925999  -130.28799302    -0.00407727     0.01211890  0.32D-02  0.32D-02  1  1     0.46     0.26
   2      1.13268146    -0.44944874  -130.28818178    -0.00018876    -0.01252482  0.10D-03  0.52D-03  2  2     0.71     0.27
   3      1.13926826    -0.44985960  -130.28859264    -0.00041086    -0.00303625  0.56D-04  0.52D-04  3  3     0.93     0.27
   4      1.14218499    -0.44986869  -130.28860173    -0.00000909    -0.00098679  0.44D-05  0.94D-05  4  4     1.15     0.27
   5      1.14326234    -0.44989846  -130.28863150    -0.00002977    -0.00022842  0.12D-05  0.16D-05  5  5     1.41     0.27
   6      1.14361270    -0.44988126  -130.28861430     0.00001720    -0.00004262  0.11D-06  0.39D-06  6  6     1.65     0.27
   7      1.14369001    -0.44988210  -130.28861514    -0.00000084    -0.00000197  0.21D-07  0.91D-07  6  1     1.90     0.27
   8      1.14371274    -0.44988275  -130.28861578    -0.00000065     0.00000120  0.36D-08  0.17D-07  6  2     2.11     0.27
   9      1.14371858    -0.44988224  -130.28861528     0.00000050     0.00000056  0.27D-08  0.19D-08  6  4     2.35     0.27
  10      1.14372100    -0.44988273  -130.28861577    -0.00000049    -0.00000075  0.45D-09  0.22D-09  6  3     2.61     0.27
  11      1.14372050    -0.44988276  -130.28861580    -0.00000002    -0.00000006  0.16D-09  0.35D-10  6  5     2.84     0.27
  12      1.14371940    -0.44988291  -130.28861595    -0.00000015     0.00000034  0.19D-10  0.11D-10  6  6     3.08     0.27
  13      1.14371852    -0.44988295  -130.28861599    -0.00000004     0.00000022  0.67D-11  0.22D-11  6  1     3.32     0.27
  14      1.14371795    -0.44988298  -130.28861602    -0.00000003     0.00000014  0.11D-11  0.69D-12  6  2     3.57     0.27
  15      1.14371772    -0.44988299  -130.28861603    -0.00000001     0.00000003  0.31D-12  0.21D-12  6  4     3.80     0.27
  16      1.14371762    -0.44988299  -130.28861603    -0.00000000     0.00000001  0.60D-13  0.75D-13  6  3     4.02     0.27
  17      1.14371756    -0.44988299  -130.28861603    -0.00000000     0.00000001  0.40D-14  0.18D-13  6  5     4.26     0.27
  18      1.14371756    -0.44988299  -130.28861603     0.00000000    -0.00000000  0.12D-14  0.39D-14  6  6     4.49     0.27
  19      1.14371755    -0.44988299  -130.28861603    -0.00000000     0.00000000  0.11D-14  0.72D-15  6  1     4.71     0.27
  20      1.14371755    -0.44988299  -130.28861603     0.00000000    -0.00000000  0.23D-15  0.13D-15  6  2     4.94     0.27
  21      1.14371755    -0.44988299  -130.28861603     0.00000000    -0.00000000  0.53D-16  0.32D-16  6  3     5.17     0.27
  22      1.14371755    -0.44988299  -130.28861603     0.00000000     0.00000000  0.63D-17  0.30D-17  6  4     5.40     0.27
  23      1.14371755    -0.44988299  -130.28861603     0.00000000    -0.00000000  0.23D-17  0.61D-18  6  5     5.64     0.27
  24      1.14371755    -0.44988299  -130.28861603     0.00000000     0.00000000  0.16D-18  0.52D-19  6  2     5.88     0.27
  25      1.14371755    -0.44988299  -130.28861603    -0.00000000    -0.00000000  0.24D-19  0.13D-19  6  6     6.13     0.27
  26      1.14371755    -0.44988299  -130.28861603     0.00000000    -0.00000000  0.38D-20  0.22D-20  6  1     6.34     0.27
  27      1.14371755    -0.44988299  -130.28861603    -0.00000000    -0.00000000  0.53D-21  0.52D-21  6  4     6.59     0.27

 Norm of t1 vector:      0.07912128      S-energy:    -0.00000000      T1 diagnostic:  0.01615056
                                                                       D1 diagnostic:  0.04211648

 Doubles amplitudes (print threshold =  0.500E-01):

         I         J         SYM. A    SYM. B    A         B      T(IJ, AB)

         6         6         2         2         1         1     -0.10879018


 Total CPU time for triples:      2.38 sec


 RESULTS
 =======

  Reference energy                   -129.838733037381
  CCSD singlet pair energy             -0.308546164202
  CCSD triplet pair energy             -0.141336828064
  CCSD correlation energy              -0.449882992266

  Triples (T) contribution             -0.021012006687
  Total correlation energy             -0.470894998953

  CCSD total energy                  -130.288616029648
  CCSD[T] energy                     -130.310710731215
  CCSD-T energy                      -130.309217481604
 !CCSD(T) total energy               -130.309628036334

 Timing summary (sec):

 STEP                 CPU(USER)    SYS     CPU(TOT)    WALL
 Transformation          0.22      0.08      0.30      0.52
 CCSD iterations         6.38      0.94      7.32      7.31
 Triples                 2.38      0.09      2.47      2.47

 Program statistics:

 Available memory in ccsd:               994999756
 Min. memory needed in ccsd:                389120
 Max. memory used in ccsd:                  473124
 Max. memory used in cckext:                599488 (27 integral passes)



 **********************************************************************************************************************************
 DATASETS  * FILE   NREC   LENGTH (MB)   RECORD NAMES
              1      20      128.20       500      610      700      900      950      970     1000      129      960     1100   
                                          VAR    BASINP    GEOM    SYMINP    ZMAT    AOBASIS   BASIS     P2S    ABASIS      S 
                                         1400     1410     1200     1210     1080     1600     1650     1300     1700     1380   
                                           T        V       H0       H01     AOSYM     SMH    MOLCAS    ERIS     OPER     JKOP   

              2       4        2.94       700     1000      520     2100   
                                         GEOM     BASIS   MCVARS     RHF  

 PROGRAMS   *        TOTAL   CCSD(T)        HF       INT
 CPU TIMES  *        13.13      9.00      2.03      2.01
 REAL TIME  *        17.12 SEC
 DISK USED  *       327.55 MB      
 **********************************************************************************************************************************

 CCSD(T)/aug-cc-pVTZ energy=   -130.309628036334

        CCSD(T)         HF-SCF  
   -130.30962804   -129.83873304
 **********************************************************************************************************************************
 Molpro calculation terminated
 Variable memory released
