
 Primary working directories    : /tmp/r2666/282157.maple
 Secondary working directories  : /tmp/r2666/282157.maple
 Wavefunction directory         : /ddn/home4/r2666/wfu/
 Main file repository           : /tmp/r2666/282157.maple/

 SHA1      : d5ffa45e93fdbca01ffc919aa182cfdae0147319
 NAME      : 2015.1.35
 ARCHNAME  : linux/x86_64
 FC        : /opt/intel/composer_xe_2015.1.133/bin/intel64/ifort
 BLASLIB   : -Wl,-_start-group /opt/intel/mkl/lib/intel64/libmkl_intel_ilp64.a /opt/intel/mkl/lib/intel64/libmkl_intel_thread.a /opt/intel/mkl/lib/intel64/libmkl_core.a -Wl,-_end-group
 id        : olemiss

 Nodes     nprocs
 cn076        1

 Using customized tuning parameters: mindgm=1; mindgv=20; mindgc=4; mindgr=1; noblas=0; minvec=7
 default implementation of scratch files=df  

 ***,hno CCSD(T)/TZ-F12 QFF
 memory, 995, m;
 gthresh,energy=1.d-12,zero=1.d-22,oneint=1.d-22,twoint=1.d-22;
 gthresh,optgrad=1.d-8,optstep=1.d-8;
 nocompress;
 geomtyp=xyz
 bohr
 geometry={
 3
         54        54
 H        0.0000000000        1.6656352333       -1.9319196047
 N        0.0000000000       -0.1566605258       -1.1371830535
 O        0.0000000000        0.0327930825        1.1185130672
 }
 
 basis=avtz
   {hf,maxit=500;accu,20;}
 {ccsd(t),nocheck,maxit=250;orbital,IGNORE_ERROR;}

 Variables initialized (889), CPU time= 0.01 sec
 Commands  initialized (702), CPU time= 0.01 sec, 572 directives.
 Default parameters read. Elapsed time= 0.04 sec

 Checking input...
 Passed
1


                                         ***  PROGRAM SYSTEM MOLPRO  ***
                                       Copyright, TTI GmbH Stuttgart, 2015
                                    Version 2015.1 linked Jul  9 2018 13:16:40


 **********************************************************************************************************************************
 LABEL *   hno CCSD(T)/TZ-F12 QFF                                                        
  64 bit serial version                                                                  DATE: 04-Mar-20          TIME: 13:46:21  
 **********************************************************************************************************************************

 SHA1:             d5ffa45e93fdbca01ffc919aa182cfdae0147319
 **********************************************************************************************************************************

 THRESHOLDS:

 ZERO    =  1.00D-22  ONEINT  =  1.00D-22  TWOINT  =  1.00D-22  PREFAC  =  1.00D-14  LOCALI  =  1.00D-09  EORDER  =  1.00D-04
 ENERGY  =  1.00D-12  ETEST   =  0.00D+00  EDENS   =  0.00D+00  THRDEDEF=  1.00D-06  GRADIENT=  1.00D-02  STEP    =  1.00D-03
 ORBITAL =  1.00D-05  CIVEC   =  1.00D-05  COEFF   =  1.00D-04  PRINTCI =  5.00D-02  PUNCHCI =  9.90D+01  OPTGRAD =  3.00D-04
 OPTENERG=  1.00D-06  OPTSTEP =  3.00D-04  THRGRAD =  1.00D-10  COMPRESS=  1.00D-11  VARMIN  =  1.00D-07  VARMAX  =  1.00D-03
 THRDOUB =  0.00D+00  THRDIV  =  1.00D-05  THRRED  =  1.00D-07  THRPSP  =  1.00D+00  THRDC   =  1.00D-10  THRCS   =  1.00D-10
 THRNRM  =  1.00D-08  THREQ   =  0.00D+00  THRDE   =  1.00D+00  THRREF  =  1.00D-05  SPARFAC =  1.00D+00  THRDLP  =  1.00D-07
 THRDIA  =  1.00D-10  THRDLS  =  1.00D-07  THRGPS  =  0.00D+00  THRKEX  =  0.00D+00  THRDIS  =  2.00D-01  THRVAR  =  1.00D-10
 THRLOC  =  1.00D-06  THRGAP  =  1.00D-06  THRLOCT = -1.00D+00  THRGAPT = -1.00D+00  THRORB  =  1.00D-06  THRMLTP =  0.00D+00
 THRCPQCI=  1.00D-10  KEXTA   =  0.00D+00  THRCOARS=  0.00D+00  SYMTOL  =  1.00D-06  GRADTOL =  1.00D-06  THROVL  =  1.00D-08
 THRORTH =  1.00D-08  GRID    =  1.00D-06  GRIDMAX =  1.00D-03  DTMAX   =  0.00D+00  THROCCDE=  1.00D-01  THROCCDE=  1.00D-01



 THRESHOLDS:

 ZERO    =  1.00D-22  ONEINT  =  1.00D-22  TWOINT  =  1.00D-22  PREFAC  =  1.00D-14  LOCALI  =  1.00D-09  EORDER  =  1.00D-04
 ENERGY  =  1.00D-12  ETEST   =  0.00D+00  EDENS   =  0.00D+00  THRDEDEF=  1.00D-06  GRADIENT=  1.00D-02  STEP    =  1.00D-03
 ORBITAL =  1.00D-05  CIVEC   =  1.00D-05  COEFF   =  1.00D-04  PRINTCI =  5.00D-02  PUNCHCI =  9.90D+01  OPTGRAD =  1.00D-08
 OPTENERG=  1.00D-06  OPTSTEP =  1.00D-08  THRGRAD =  1.00D-10  COMPRESS=  1.00D-11  VARMIN  =  1.00D-07  VARMAX  =  1.00D-03
 THRDOUB =  0.00D+00  THRDIV  =  1.00D-05  THRRED  =  1.00D-07  THRPSP  =  1.00D+00  THRDC   =  1.00D-10  THRCS   =  1.00D-10
 THRNRM  =  1.00D-08  THREQ   =  0.00D+00  THRDE   =  1.00D+00  THRREF  =  1.00D-05  SPARFAC =  1.00D+00  THRDLP  =  1.00D-07
 THRDIA  =  1.00D-10  THRDLS  =  1.00D-07  THRGPS  =  0.00D+00  THRKEX  =  0.00D+00  THRDIS  =  2.00D-01  THRVAR  =  1.00D-10
 THRLOC  =  1.00D-06  THRGAP  =  1.00D-06  THRLOCT = -1.00D+00  THRGAPT = -1.00D+00  THRORB  =  1.00D-06  THRMLTP =  0.00D+00
 THRCPQCI=  1.00D-10  KEXTA   =  0.00D+00  THRCOARS=  0.00D+00  SYMTOL  =  1.00D-06  GRADTOL =  1.00D-06  THROVL  =  1.00D-08
 THRORTH =  1.00D-08  GRID    =  1.00D-06  GRIDMAX =  1.00D-03  DTMAX   =  0.00D+00  THROCCDE=  1.00D-01  THROCCDE=  1.00D-01



 Input parameters for SORTINT:

 COMPRESS =    0.000000
 C_FINAL  =    1.000000
 DEBUG    =   -1.000000
 C_SORT1  =    0.000000
 C_SEWARD =    0.000000
 THRESH   =    0.000000
 IO       =  molpro                                                          
 SPRI     =    0.000000
 SETTING GEOMTYP        =    XYZ
 ZUNIT=BOHR
 

 Variable memory set to  995000000 words,  buffer space   230000 words

 SETTING BASIS          =    AVTZ


 Recomputing integrals since basis changed


 Using spherical harmonics

 Library entry H      S aug-cc-pVTZ          selected for orbital group  1
 Library entry H      P aug-cc-pVTZ          selected for orbital group  1
 Library entry H      D aug-cc-pVTZ          selected for orbital group  1
 Library entry N      S aug-cc-pVTZ          selected for orbital group  2
 Library entry N      P aug-cc-pVTZ          selected for orbital group  2
 Library entry N      D aug-cc-pVTZ          selected for orbital group  2
 Library entry N      F aug-cc-pVTZ          selected for orbital group  2
 Library entry O      S aug-cc-pVTZ          selected for orbital group  3
 Library entry O      P aug-cc-pVTZ          selected for orbital group  3
 Library entry O      D aug-cc-pVTZ          selected for orbital group  3
 Library entry O      F aug-cc-pVTZ          selected for orbital group  3


 PROGRAM * SEWARD (Integral evaluation for generally contracted gaussian basis sets)     Author: Roland Lindh, 1990

 Geometry written to block  1 of record 700


 Point group  Cs  



 ATOMIC COORDINATES

 NR  ATOM    CHARGE       X              Y              Z

   1  H       1.00    0.000000000    1.665635233   -1.931919605
   2  N       7.00    0.000000000   -0.156660526   -1.137183054
   3  O       8.00    0.000000000    0.032793083    1.118513067

 Bond lengths in Bohr (Angstrom)

 1-2  1.988056342  2-3  2.263638147
     ( 1.052034110)     ( 1.197865721)

 Bond angles

  1-2-3  108.76195128

 NUCLEAR CHARGE:                   16
 NUMBER OF PRIMITIVE AOS:         161
 NUMBER OF SYMMETRY AOS:          141
 NUMBER OF CONTRACTIONS:          115   (  76A'  +  39A"  )
 NUMBER OF CORE ORBITALS:           2   (   2A'  +   0A"  )
 NUMBER OF VALENCE ORBITALS:        9   (   7A'  +   2A"  )


 NUCLEAR REPULSION ENERGY   30.57212975

 Eigenvalues of metric

         1 0.229E-03 0.493E-03 0.179E-02 0.210E-02 0.245E-02 0.343E-02 0.429E-02 0.508E-02
         2 0.383E-02 0.100E-01 0.257E-01 0.368E-01 0.508E-01 0.619E-01 0.797E-01 0.119E+00


 Contracted 2-electron integrals neglected if value below      1.0D-22

       10790064. INTEGRALS WRITTEN OUT IN    2635 BLOCKS ON RECORD 1290 OF FILE 1


 NUMBER OF SORTED TWO-ELECTRON INTEGRALS:   11433631.     BUFFER LENGTH:  32768
 NUMBER OF SEGMENTS:   1  SEGMENT LENGTH:   11433631      RECORD LENGTH: 524288

 Memory used in sort:      11.99 MW

 SORT1 READ    10790064. AND WROTE    10943632. INTEGRALS IN     32 RECORDS. CPU TIME:     0.16 SEC, REAL TIME:     0.23 SEC
 SORT2 READ    10943632. AND WROTE    11433631. INTEGRALS IN      1 RECORDS. CPU TIME:     0.15 SEC, REAL TIME:     0.22 SEC

 FILE SIZES:   FILE 1:   193.0 MBYTE,  FILE 4:   134.3 MBYTE,   TOTAL:    327.2 MBYTE

 OPERATOR DM      FOR CENTER  0  COORDINATES:    0.000000    0.000000    0.000000


 **********************************************************************************************************************************
 DATASETS  * FILE   NREC   LENGTH (MB)   RECORD NAMES
              1      19      111.05       500      610      700      900      950      970     1000      129      960     1100   
                                          VAR    BASINP    GEOM    SYMINP    ZMAT    AOBASIS   BASIS     P2S    ABASIS      S 
                                         1400     1410     1200     1210     1080     1600     1650     1300     1700   
                                           T        V       H0       H01     AOSYM     SMH    MOLCAS    ERIS     OPER   

 PROGRAMS   *        TOTAL       INT
 CPU TIMES  *         1.24      1.15
 REAL TIME  *         1.98 SEC
 DISK USED  *       327.55 MB      
 **********************************************************************************************************************************


 PROGRAM * RHF-SCF (CLOSED SHELL)       Authors: W. Meyer, H.-J. Werner


 NUMBER OF ELECTRONS:       8+    8-
 CONVERGENCE THRESHOLDS:    1.00E-10 (Density)    1.00E-13 (Energy)
 MAX. NUMBER OF ITERATIONS:      500
 INTERPOLATION TYPE:            DIIS
 INTERPOLATION STEPS:              2 (START)      1 (STEP)
 LEVEL SHIFTS:                  0.00 (CLOSED)  0.00 (OPEN) 



 Orbital guess generated from atomic densities. Full valence occupancy:    9   2

 Molecular orbital dump at record        2100.2

 Initial occupancy:   7   1

 ITERATION    DDIFF          GRAD             ENERGY        2-EL.EN.            DIPOLE MOMENTS         DIIS   ORB.
    1      0.000D+00      0.000D+00      -129.79108467    154.256204    0.00000    0.59218   -0.98963    0    start
    2      0.000D+00      0.106D-01      -129.81880690    155.547682    0.00000    0.60407   -0.21627    1    diag
    3      0.116D-01      0.793D-02      -129.83977463    155.635698    0.00000    0.55464   -0.57954    2    diag
    4      0.575D-02      0.126D-02      -129.84054519    155.355063    0.00000    0.56207   -0.52116    3    diag
    5      0.106D-02      0.414D-03      -129.84066674    155.448291    0.00000    0.56770   -0.52421    4    diag
    6      0.441D-03      0.119D-03      -129.84068603    155.432889    0.00000    0.56814   -0.52032    5    diag
    7      0.169D-03      0.586D-04      -129.84069143    155.435492    0.00000    0.56943   -0.51792    6    diag
    8      0.115D-03      0.193D-04      -129.84069196    155.434875    0.00000    0.56946   -0.51700    7    diag
    9      0.410D-04      0.362D-05      -129.84069198    155.434775    0.00000    0.56942   -0.51680    8    diag
   10      0.776D-05      0.848D-06      -129.84069199    155.434756    0.00000    0.56939   -0.51677    9    orth
   11      0.167D-05      0.171D-06      -129.84069199    155.434753    0.00000    0.56938   -0.51677    9    diag
   12      0.330D-06      0.346D-07      -129.84069199    155.434752    0.00000    0.56938   -0.51677    9    diag
   13      0.711D-07      0.856D-08      -129.84069199    155.434752    0.00000    0.56938   -0.51677    9    diag
   14      0.181D-07      0.180D-08      -129.84069199    155.434752    0.00000    0.56938   -0.51677    9    diag
   15      0.371D-08      0.514D-09      -129.84069199    155.434752    0.00000    0.56938   -0.51677    9    diag
   16      0.101D-08      0.146D-09      -129.84069199    155.434752    0.00000    0.56938   -0.51677    9    diag
   17      0.190D-09      0.424D-10      -129.84069199    155.434752    0.00000    0.56938   -0.51677    9    diag
   18      0.549D-10      0.151D-10      -129.84069199    155.434752    0.00000    0.56938   -0.51677    0    orth

 Final occupancy:   7   1

 !RHF STATE 1.1 Energy               -129.840691985061
 Nuclear energy                        30.57212975
 One-electron energy                 -238.13019785
 Two-electron energy                   77.71737611
 Virial quotient                       -1.00185915
 !RHF STATE 1.1 Dipole moment           0.00000000     0.56937898    -0.51676804
 Dipole moment /Debye                   0.00000000     1.44712224    -1.31340732

 Orbital energies:

         1.1          2.1          3.1          4.1          5.1          6.1          7.1          8.1          9.1
    -20.655732   -15.712626    -1.538850    -0.993040    -0.750389    -0.669141    -0.426932     0.029277     0.092173

         1.2          2.2          3.2
     -0.601013     0.067577     0.130467

 HOMO      7.1    -0.426932 =     -11.6174eV
 LUMO      8.1     0.029277 =       0.7967eV
 LUMO-HOMO         0.456209 =      12.4141eV


 **********************************************************************************************************************************
 DATASETS  * FILE   NREC   LENGTH (MB)   RECORD NAMES
              1      19      111.05       500      610      700      900      950      970     1000      129      960     1100   
                                          VAR    BASINP    GEOM    SYMINP    ZMAT    AOBASIS   BASIS     P2S    ABASIS      S 
                                         1400     1410     1200     1210     1080     1600     1650     1300     1700   
                                           T        V       H0       H01     AOSYM     SMH    MOLCAS    ERIS     OPER   

              2       4        2.94       700     1000      520     2100   
                                         GEOM     BASIS   MCVARS     RHF  

 PROGRAMS   *        TOTAL        HF       INT
 CPU TIMES  *         2.20      0.96      1.15
 REAL TIME  *         3.18 SEC
 DISK USED  *       327.55 MB      
 **********************************************************************************************************************************


 PROGRAM * CCSD (Closed-shell coupled cluster)     Authors: C. Hampel, H.-J. Werner, 1991, M. Deegan, P.J. Knowles, 1992


 Convergence thresholds:  THRVAR = 1.00D-08  THRDEN = 1.00D-12

 CCSD(T)     terms to be evaluated (factor= 1.000)


 Number of core orbitals:           2 (   2   0 )
 Number of closed-shell orbitals:   6 (   5   1 )
 Number of external orbitals:     107 (  69  38 )

 Molecular orbitals read from record     2100.2  Type=RHF/CANONICAL (state 1.1)

 Number of N-1 electron functions:               6
 Number of N-2 electron functions:              21
 Number of singly external CSFs:               383
 Number of doubly external CSFs:            107206
 Total number of CSFs:                      107590

 Length of J-op  integral file:               0.00 MB
 Length of K-op  integral file:               0.54 MB
 Length of 3-ext integral record:             0.00 MB

 Memory could be reduced to 5.94 Mwords without degradation in triples

 Integral transformation finished. Total CPU:   0.12 sec, npass=  1  Memory used:   1.65 MW

 Reference energy:                   -129.84069199

 MP2 singlet pair energy:              -0.27838657
 MP2 triplet pair energy:              -0.16448529
 MP2 correlation energy:               -0.44287187
 MP2 total energy:                   -130.28356385

 SCS-MP2 correlation energy:           -0.43641029   (PS=  1.200000  PT=  0.333333)
 SCS-MP2 total energy:               -130.27710228

 ITER.      SQ.NORM     CORR.ENERGY   TOTAL ENERGY   ENERGY CHANGE        DEN1      VAR(S)    VAR(P)  DIIS     TIME  TIME/IT
   1      1.11986845    -0.44736431  -130.28805630    -0.00449244     0.01117178  0.30D-02  0.30D-02  1  1     0.29     0.16
   2      1.13075587    -0.44763417  -130.28832616    -0.00026986    -0.01220884  0.96D-04  0.50D-03  2  2     0.43     0.16
   3      1.13704852    -0.44801931  -130.28871129    -0.00038513    -0.00293645  0.51D-04  0.49D-04  3  3     0.55     0.17
   4      1.13982254    -0.44802971  -130.28872170    -0.00001041    -0.00094540  0.39D-05  0.89D-05  4  4     0.70     0.17
   5      1.14082249    -0.44805682  -130.28874880    -0.00002710    -0.00021199  0.11D-05  0.16D-05  5  5     0.84     0.17
   6      1.14115414    -0.44804108  -130.28873306     0.00001574    -0.00004006  0.98D-07  0.40D-06  6  6     1.00     0.17
   7      1.14123001    -0.44804205  -130.28873403    -0.00000097    -0.00000216  0.19D-07  0.91D-07  6  1     1.15     0.17
   8      1.14125171    -0.44804284  -130.28873483    -0.00000080     0.00000142  0.38D-08  0.16D-07  6  2     1.31     0.18
   9      1.14125704    -0.44804241  -130.28873440     0.00000043     0.00000044  0.27D-08  0.17D-08  6  4     1.46     0.18
  10      1.14125922    -0.44804288  -130.28873487    -0.00000047    -0.00000068  0.43D-09  0.20D-09  6  3     1.62     0.18
  11      1.14125868    -0.44804291  -130.28873489    -0.00000003    -0.00000005  0.15D-09  0.31D-10  6  5     1.78     0.18
  12      1.14125764    -0.44804305  -130.28873504    -0.00000014     0.00000033  0.17D-10  0.10D-10  6  6     1.92     0.18
  13      1.14125682    -0.44804309  -130.28873507    -0.00000003     0.00000021  0.61D-11  0.20D-11  6  1     2.07     0.18
  14      1.14125631    -0.44804311  -130.28873510    -0.00000003     0.00000013  0.99D-12  0.64D-12  6  2     2.22     0.18
  15      1.14125609    -0.44804312  -130.28873511    -0.00000001     0.00000003  0.27D-12  0.21D-12  6  4     2.37     0.18
  16      1.14125597    -0.44804312  -130.28873511    -0.00000000     0.00000001  0.36D-13  0.25D-13  6  5     2.51     0.18
  17      1.14125594    -0.44804312  -130.28873511    -0.00000000     0.00000000  0.66D-15  0.18D-14  6  3     2.65     0.18
  18      1.14125594    -0.44804312  -130.28873511     0.00000000    -0.00000000  0.23D-15  0.25D-15  6  6     2.78     0.18
  19      1.14125594    -0.44804312  -130.28873511     0.00000000    -0.00000000  0.70D-16  0.36D-16  6  1     2.92     0.18
  20      1.14125594    -0.44804312  -130.28873511     0.00000000    -0.00000000  0.19D-16  0.64D-17  6  2     3.06     0.18
  21      1.14125594    -0.44804312  -130.28873511     0.00000000    -0.00000000  0.32D-17  0.17D-17  6  5     3.20     0.18
  22      1.14125594    -0.44804312  -130.28873511    -0.00000000     0.00000000  0.34D-18  0.20D-18  6  4     3.35     0.18
  23      1.14125594    -0.44804312  -130.28873511     0.00000000     0.00000000  0.12D-18  0.41D-19  6  3     3.49     0.18
  24      1.14125594    -0.44804312  -130.28873511     0.00000000    -0.00000000  0.12D-19  0.57D-20  6  2     3.62     0.18
  25      1.14125594    -0.44804312  -130.28873511     0.00000000    -0.00000000  0.19D-20  0.90D-21  6  6     3.77     0.18
  26      1.14125594    -0.44804312  -130.28873511     0.00000000    -0.00000000  0.45D-21  0.22D-21  6  1     3.92     0.18

 Norm of t1 vector:      0.07698546      S-energy:     0.00000000      T1 diagnostic:  0.01571459
                                                                       D1 diagnostic:  0.04080633

 Doubles amplitudes (print threshold =  0.500E-01):

         I         J         SYM. A    SYM. B    A         B      T(IJ, AB)

         6         6         2         2         1         1     -0.10438473


 Total CPU time for triples:      1.12 sec


 RESULTS
 =======

  Reference energy                   -129.840691985061
  CCSD singlet pair energy             -0.306965953441
  CCSD triplet pair energy             -0.141077170922
  CCSD correlation energy              -0.448043124362

  Triples (T) contribution             -0.020610142557
  Total correlation energy             -0.468653266918

  CCSD total energy                  -130.288735109423
  CCSD[T] energy                     -130.310372379256
  CCSD-T energy                      -130.308950330174
 !CCSD(T) total energy               -130.309345251980

 Timing summary (sec):

 STEP                 CPU(USER)    SYS     CPU(TOT)    WALL
 Transformation          0.13      0.04      0.17      0.18
 CCSD iterations         3.79      0.79      4.58      4.58
 Triples                 1.12      0.06      1.18      1.17

 Program statistics:

 Available memory in ccsd:               994999756
 Min. memory needed in ccsd:                389120
 Max. memory used in ccsd:                  473124
 Max. memory used in cckext:                599488 (26 integral passes)



 **********************************************************************************************************************************
 DATASETS  * FILE   NREC   LENGTH (MB)   RECORD NAMES
              1      20      128.20       500      610      700      900      950      970     1000      129      960     1100   
                                          VAR    BASINP    GEOM    SYMINP    ZMAT    AOBASIS   BASIS     P2S    ABASIS      S 
                                         1400     1410     1200     1210     1080     1600     1650     1300     1700     1380   
                                           T        V       H0       H01     AOSYM     SMH    MOLCAS    ERIS     OPER     JKOP   

              2       4        2.94       700     1000      520     2100   
                                         GEOM     BASIS   MCVARS     RHF  

 PROGRAMS   *        TOTAL   CCSD(T)        HF       INT
 CPU TIMES  *         7.28      5.07      0.96      1.15
 REAL TIME  *         9.17 SEC
 DISK USED  *       327.55 MB      
 **********************************************************************************************************************************

 CCSD(T)/aug-cc-pVTZ energy=   -130.309345251980

        CCSD(T)         HF-SCF  
   -130.30934525   -129.84069199
 **********************************************************************************************************************************
 Molpro calculation terminated
 Variable memory released
