
 Primary working directories    : /tmp/r2666/282213.maple
 Secondary working directories  : /tmp/r2666/282213.maple
 Wavefunction directory         : /ddn/home4/r2666/wfu/
 Main file repository           : /tmp/r2666/282213.maple/

 SHA1      : d5ffa45e93fdbca01ffc919aa182cfdae0147319
 NAME      : 2015.1.35
 ARCHNAME  : linux/x86_64
 FC        : /opt/intel/composer_xe_2015.1.133/bin/intel64/ifort
 BLASLIB   : -Wl,-_start-group /opt/intel/mkl/lib/intel64/libmkl_intel_ilp64.a /opt/intel/mkl/lib/intel64/libmkl_intel_thread.a /opt/intel/mkl/lib/intel64/libmkl_core.a -Wl,-_end-group
 id        : olemiss

 Nodes     nprocs
 cn074        1

 Using customized tuning parameters: mindgm=1; mindgv=20; mindgc=4; mindgr=1; noblas=0; minvec=7
 default implementation of scratch files=df  

 ***,hno CCSD(T)/TZ-F12 QFF
 memory, 995, m;
 gthresh,energy=1.d-12,zero=1.d-22,oneint=1.d-22,twoint=1.d-22;
 gthresh,optgrad=1.d-8,optstep=1.d-8;
 nocompress;
 geomtyp=xyz
 bohr
 geometry={
 3
        110       110
 H        0.0000000000        1.6738228769       -1.9392761901
 N        0.0000000000       -0.1640990632       -1.1569277669
 O        0.0000000000        0.0320439762        1.1456143660
 }
 
 basis=avtz
   {hf,maxit=500;accu,20;}
 {ccsd(t),nocheck,maxit=250;orbital,IGNORE_ERROR;}

 Variables initialized (889), CPU time= 0.00 sec
 Commands  initialized (702), CPU time= 0.01 sec, 572 directives.
 Default parameters read. Elapsed time= 0.05 sec

 Checking input...
 Passed
1


                                         ***  PROGRAM SYSTEM MOLPRO  ***
                                       Copyright, TTI GmbH Stuttgart, 2015
                                    Version 2015.1 linked Jul  9 2018 13:16:40


 **********************************************************************************************************************************
 LABEL *   hno CCSD(T)/TZ-F12 QFF                                                        
  64 bit serial version                                                                  DATE: 04-Mar-20          TIME: 13:46:43  
 **********************************************************************************************************************************

 SHA1:             d5ffa45e93fdbca01ffc919aa182cfdae0147319
 **********************************************************************************************************************************

 THRESHOLDS:

 ZERO    =  1.00D-22  ONEINT  =  1.00D-22  TWOINT  =  1.00D-22  PREFAC  =  1.00D-14  LOCALI  =  1.00D-09  EORDER  =  1.00D-04
 ENERGY  =  1.00D-12  ETEST   =  0.00D+00  EDENS   =  0.00D+00  THRDEDEF=  1.00D-06  GRADIENT=  1.00D-02  STEP    =  1.00D-03
 ORBITAL =  1.00D-05  CIVEC   =  1.00D-05  COEFF   =  1.00D-04  PRINTCI =  5.00D-02  PUNCHCI =  9.90D+01  OPTGRAD =  3.00D-04
 OPTENERG=  1.00D-06  OPTSTEP =  3.00D-04  THRGRAD =  1.00D-10  COMPRESS=  1.00D-11  VARMIN  =  1.00D-07  VARMAX  =  1.00D-03
 THRDOUB =  0.00D+00  THRDIV  =  1.00D-05  THRRED  =  1.00D-07  THRPSP  =  1.00D+00  THRDC   =  1.00D-10  THRCS   =  1.00D-10
 THRNRM  =  1.00D-08  THREQ   =  0.00D+00  THRDE   =  1.00D+00  THRREF  =  1.00D-05  SPARFAC =  1.00D+00  THRDLP  =  1.00D-07
 THRDIA  =  1.00D-10  THRDLS  =  1.00D-07  THRGPS  =  0.00D+00  THRKEX  =  0.00D+00  THRDIS  =  2.00D-01  THRVAR  =  1.00D-10
 THRLOC  =  1.00D-06  THRGAP  =  1.00D-06  THRLOCT = -1.00D+00  THRGAPT = -1.00D+00  THRORB  =  1.00D-06  THRMLTP =  0.00D+00
 THRCPQCI=  1.00D-10  KEXTA   =  0.00D+00  THRCOARS=  0.00D+00  SYMTOL  =  1.00D-06  GRADTOL =  1.00D-06  THROVL  =  1.00D-08
 THRORTH =  1.00D-08  GRID    =  1.00D-06  GRIDMAX =  1.00D-03  DTMAX   =  0.00D+00  THROCCDE=  1.00D-01  THROCCDE=  1.00D-01



 THRESHOLDS:

 ZERO    =  1.00D-22  ONEINT  =  1.00D-22  TWOINT  =  1.00D-22  PREFAC  =  1.00D-14  LOCALI  =  1.00D-09  EORDER  =  1.00D-04
 ENERGY  =  1.00D-12  ETEST   =  0.00D+00  EDENS   =  0.00D+00  THRDEDEF=  1.00D-06  GRADIENT=  1.00D-02  STEP    =  1.00D-03
 ORBITAL =  1.00D-05  CIVEC   =  1.00D-05  COEFF   =  1.00D-04  PRINTCI =  5.00D-02  PUNCHCI =  9.90D+01  OPTGRAD =  1.00D-08
 OPTENERG=  1.00D-06  OPTSTEP =  1.00D-08  THRGRAD =  1.00D-10  COMPRESS=  1.00D-11  VARMIN  =  1.00D-07  VARMAX  =  1.00D-03
 THRDOUB =  0.00D+00  THRDIV  =  1.00D-05  THRRED  =  1.00D-07  THRPSP  =  1.00D+00  THRDC   =  1.00D-10  THRCS   =  1.00D-10
 THRNRM  =  1.00D-08  THREQ   =  0.00D+00  THRDE   =  1.00D+00  THRREF  =  1.00D-05  SPARFAC =  1.00D+00  THRDLP  =  1.00D-07
 THRDIA  =  1.00D-10  THRDLS  =  1.00D-07  THRGPS  =  0.00D+00  THRKEX  =  0.00D+00  THRDIS  =  2.00D-01  THRVAR  =  1.00D-10
 THRLOC  =  1.00D-06  THRGAP  =  1.00D-06  THRLOCT = -1.00D+00  THRGAPT = -1.00D+00  THRORB  =  1.00D-06  THRMLTP =  0.00D+00
 THRCPQCI=  1.00D-10  KEXTA   =  0.00D+00  THRCOARS=  0.00D+00  SYMTOL  =  1.00D-06  GRADTOL =  1.00D-06  THROVL  =  1.00D-08
 THRORTH =  1.00D-08  GRID    =  1.00D-06  GRIDMAX =  1.00D-03  DTMAX   =  0.00D+00  THROCCDE=  1.00D-01  THROCCDE=  1.00D-01



 Input parameters for SORTINT:

 COMPRESS =    0.000000
 C_FINAL  =    1.000000
 DEBUG    =   -1.000000
 C_SORT1  =    0.000000
 C_SEWARD =    0.000000
 THRESH   =    0.000000
 IO       =  molpro                                                          
 SPRI     =    0.000000
 SETTING GEOMTYP        =    XYZ
 ZUNIT=BOHR
 

 Variable memory set to  995000000 words,  buffer space   230000 words

 SETTING BASIS          =    AVTZ


 Recomputing integrals since basis changed


 Using spherical harmonics

 Library entry H      S aug-cc-pVTZ          selected for orbital group  1
 Library entry H      P aug-cc-pVTZ          selected for orbital group  1
 Library entry H      D aug-cc-pVTZ          selected for orbital group  1
 Library entry N      S aug-cc-pVTZ          selected for orbital group  2
 Library entry N      P aug-cc-pVTZ          selected for orbital group  2
 Library entry N      D aug-cc-pVTZ          selected for orbital group  2
 Library entry N      F aug-cc-pVTZ          selected for orbital group  2
 Library entry O      S aug-cc-pVTZ          selected for orbital group  3
 Library entry O      P aug-cc-pVTZ          selected for orbital group  3
 Library entry O      D aug-cc-pVTZ          selected for orbital group  3
 Library entry O      F aug-cc-pVTZ          selected for orbital group  3


 PROGRAM * SEWARD (Integral evaluation for generally contracted gaussian basis sets)     Author: Roland Lindh, 1990

 Geometry written to block  1 of record 700


 Point group  Cs  



 ATOMIC COORDINATES

 NR  ATOM    CHARGE       X              Y              Z

   1  H       1.00    0.000000000    1.673822877   -1.939276190
   2  N       7.00    0.000000000   -0.164099063   -1.156927767
   3  O       8.00    0.000000000    0.032043976    1.145614366

 Bond lengths in Bohr (Angstrom)

 1-2  1.997504972  2-3  2.310881296
     ( 1.057034110)     ( 1.222865719)

 Bond angles

  1-2-3  108.18899349

 NUCLEAR CHARGE:                   16
 NUMBER OF PRIMITIVE AOS:         161
 NUMBER OF SYMMETRY AOS:          141
 NUMBER OF CONTRACTIONS:          115   (  76A'  +  39A"  )
 NUMBER OF CORE ORBITALS:           2   (   2A'  +   0A"  )
 NUMBER OF VALENCE ORBITALS:        9   (   7A'  +   2A"  )


 NUCLEAR REPULSION ENERGY   30.02681961

 Eigenvalues of metric

         1 0.237E-03 0.509E-03 0.184E-02 0.219E-02 0.266E-02 0.381E-02 0.438E-02 0.528E-02
         2 0.412E-02 0.103E-01 0.270E-01 0.376E-01 0.516E-01 0.628E-01 0.845E-01 0.121E+00


 Contracted 2-electron integrals neglected if value below      1.0D-22

       10790064. INTEGRALS WRITTEN OUT IN    2635 BLOCKS ON RECORD 1290 OF FILE 1


 NUMBER OF SORTED TWO-ELECTRON INTEGRALS:   11433631.     BUFFER LENGTH:  32768
 NUMBER OF SEGMENTS:   1  SEGMENT LENGTH:   11433631      RECORD LENGTH: 524288

 Memory used in sort:      11.99 MW

 SORT1 READ    10790064. AND WROTE    10943632. INTEGRALS IN     32 RECORDS. CPU TIME:     0.16 SEC, REAL TIME:     0.23 SEC
 SORT2 READ    10943632. AND WROTE    11433631. INTEGRALS IN      1 RECORDS. CPU TIME:     0.19 SEC, REAL TIME:     0.25 SEC

 FILE SIZES:   FILE 1:   193.0 MBYTE,  FILE 4:   134.3 MBYTE,   TOTAL:    327.2 MBYTE

 OPERATOR DM      FOR CENTER  0  COORDINATES:    0.000000    0.000000    0.000000


 **********************************************************************************************************************************
 DATASETS  * FILE   NREC   LENGTH (MB)   RECORD NAMES
              1      19      111.05       500      610      700      900      950      970     1000      129      960     1100   
                                          VAR    BASINP    GEOM    SYMINP    ZMAT    AOBASIS   BASIS     P2S    ABASIS      S 
                                         1400     1410     1200     1210     1080     1600     1650     1300     1700   
                                           T        V       H0       H01     AOSYM     SMH    MOLCAS    ERIS     OPER   

 PROGRAMS   *        TOTAL       INT
 CPU TIMES  *         1.27      1.19
 REAL TIME  *         2.12 SEC
 DISK USED  *       327.55 MB      
 **********************************************************************************************************************************


 PROGRAM * RHF-SCF (CLOSED SHELL)       Authors: W. Meyer, H.-J. Werner


 NUMBER OF ELECTRONS:       8+    8-
 CONVERGENCE THRESHOLDS:    1.00E-10 (Density)    1.00E-13 (Energy)
 MAX. NUMBER OF ITERATIONS:      500
 INTERPOLATION TYPE:            DIIS
 INTERPOLATION STEPS:              2 (START)      1 (STEP)
 LEVEL SHIFTS:                  0.00 (CLOSED)  0.00 (OPEN) 



 Orbital guess generated from atomic densities. Full valence occupancy:    9   2

 Molecular orbital dump at record        2100.2

 Initial occupancy:   7   1

 ITERATION    DDIFF          GRAD             ENERGY        2-EL.EN.            DIPOLE MOMENTS         DIIS   ORB.
    1      0.000D+00      0.000D+00      -129.78339097    153.280619    0.00000    0.59541   -1.07048    0    start
    2      0.000D+00      0.110D-01      -129.81027261    154.521850    0.00000    0.61978   -0.19947    1    diag
    3      0.123D-01      0.869D-02      -129.83575570    154.666896    0.00000    0.56247   -0.61418    2    diag
    4      0.620D-02      0.130D-02      -129.83657941    154.366298    0.00000    0.56948   -0.55192    3    diag
    5      0.109D-02      0.431D-03      -129.83671219    154.462064    0.00000    0.57514   -0.55451    4    diag
    6      0.463D-03      0.125D-03      -129.83673349    154.446212    0.00000    0.57545   -0.55014    5    diag
    7      0.177D-03      0.626D-04      -129.83673983    154.448602    0.00000    0.57667   -0.54737    6    diag
    8      0.123D-03      0.223D-04      -129.83674061    154.447888    0.00000    0.57669   -0.54625    7    diag
    9      0.499D-04      0.431D-05      -129.83674064    154.447765    0.00000    0.57665   -0.54601    8    diag
   10      0.994D-05      0.952D-06      -129.83674064    154.447745    0.00000    0.57661   -0.54598    9    orth
   11      0.188D-05      0.187D-06      -129.83674064    154.447742    0.00000    0.57661   -0.54598    9    diag
   12      0.350D-06      0.396D-07      -129.83674064    154.447742    0.00000    0.57660   -0.54598    9    diag
   13      0.755D-07      0.105D-07      -129.83674064    154.447741    0.00000    0.57660   -0.54598    9    diag
   14      0.208D-07      0.216D-08      -129.83674064    154.447741    0.00000    0.57660   -0.54598    9    diag
   15      0.395D-08      0.591D-09      -129.83674064    154.447741    0.00000    0.57660   -0.54598    9    diag
   16      0.109D-08      0.154D-09      -129.83674064    154.447741    0.00000    0.57660   -0.54598    9    diag
   17      0.176D-09      0.416D-10      -129.83674064    154.447741    0.00000    0.57660   -0.54598    9    diag
   18      0.488D-10      0.145D-10      -129.83674064    154.447741    0.00000    0.57660   -0.54598    9    diag
   19      0.246D-10      0.299D-11      -129.83674064    154.447741    0.00000    0.57660   -0.54598    0    orth

 Final occupancy:   7   1

 !RHF STATE 1.1 Energy               -129.836740641863
 Nuclear energy                        30.02681961
 One-electron energy                 -237.08743093
 Two-electron energy                   77.22387069
 Virial quotient                       -1.00265205
 !RHF STATE 1.1 Dipole moment           0.00000000     0.57660462    -0.54597865
 Dipole moment /Debye                   0.00000000     1.46548676    -1.38764841

 Orbital energies:

         1.1          2.1          3.1          4.1          5.1          6.1          7.1          8.1          9.1
    -20.658080   -15.717709    -1.518682    -0.997286    -0.742251    -0.661847    -0.434660     0.028965     0.092106

         1.2          2.2          3.2
     -0.589329     0.060705     0.129941

 HOMO      7.1    -0.434660 =     -11.8277eV
 LUMO      8.1     0.028965 =       0.7882eV
 LUMO-HOMO         0.463626 =      12.6159eV


 **********************************************************************************************************************************
 DATASETS  * FILE   NREC   LENGTH (MB)   RECORD NAMES
              1      19      111.05       500      610      700      900      950      970     1000      129      960     1100   
                                          VAR    BASINP    GEOM    SYMINP    ZMAT    AOBASIS   BASIS     P2S    ABASIS      S 
                                         1400     1410     1200     1210     1080     1600     1650     1300     1700   
                                           T        V       H0       H01     AOSYM     SMH    MOLCAS    ERIS     OPER   

              2       4        2.94       700     1000      520     2100   
                                         GEOM     BASIS   MCVARS     RHF  

 PROGRAMS   *        TOTAL        HF       INT
 CPU TIMES  *         2.34      1.06      1.19
 REAL TIME  *         3.40 SEC
 DISK USED  *       327.55 MB      
 **********************************************************************************************************************************


 PROGRAM * CCSD (Closed-shell coupled cluster)     Authors: C. Hampel, H.-J. Werner, 1991, M. Deegan, P.J. Knowles, 1992


 Convergence thresholds:  THRVAR = 1.00D-08  THRDEN = 1.00D-12

 CCSD(T)     terms to be evaluated (factor= 1.000)


 Number of core orbitals:           2 (   2   0 )
 Number of closed-shell orbitals:   6 (   5   1 )
 Number of external orbitals:     107 (  69  38 )

 Molecular orbitals read from record     2100.2  Type=RHF/CANONICAL (state 1.1)

 Number of N-1 electron functions:               6
 Number of N-2 electron functions:              21
 Number of singly external CSFs:               383
 Number of doubly external CSFs:            107206
 Total number of CSFs:                      107590

 Length of J-op  integral file:               0.00 MB
 Length of K-op  integral file:               0.54 MB
 Length of 3-ext integral record:             0.00 MB

 Memory could be reduced to 5.94 Mwords without degradation in triples

 Integral transformation finished. Total CPU:   0.14 sec, npass=  1  Memory used:   1.65 MW

 Reference energy:                   -129.83674064

 MP2 singlet pair energy:              -0.28114665
 MP2 triplet pair energy:              -0.16631857
 MP2 correlation energy:               -0.44746522
 MP2 total energy:                   -130.28420586

 SCS-MP2 correlation energy:           -0.44086309   (PS=  1.200000  PT=  0.333333)
 SCS-MP2 total energy:               -130.27760373

 ITER.      SQ.NORM     CORR.ENERGY   TOTAL ENERGY   ENERGY CHANGE        DEN1      VAR(S)    VAR(P)  DIIS     TIME  TIME/IT
   1      1.12276472    -0.45097539  -130.28771603    -0.00351017     0.01324467  0.34D-02  0.33D-02  1  1     0.27     0.16
   2      1.13430203    -0.45104743  -130.28778808    -0.00007204    -0.01284591  0.11D-03  0.54D-03  2  2     0.41     0.16
   3      1.14115792    -0.45147777  -130.28821842    -0.00043034    -0.00311657  0.59D-04  0.55D-04  3  3     0.56     0.16
   4      1.14424915    -0.45148937  -130.28823001    -0.00001160    -0.00103134  0.48D-05  0.99D-05  4  4     0.72     0.16
   5      1.14541129    -0.45152164  -130.28826228    -0.00003227    -0.00024513  0.12D-05  0.17D-05  5  5     0.87     0.16
   6      1.14578243    -0.45150250  -130.28824314     0.00001914    -0.00004573  0.11D-06  0.40D-06  6  6     1.01     0.16
   7      1.14585860    -0.45150384  -130.28824449    -0.00000135    -0.00000134  0.19D-07  0.97D-07  6  1     1.17     0.16
   8      1.14588080    -0.45150437  -130.28824501    -0.00000053     0.00000146  0.34D-08  0.19D-07  6  2     1.30     0.16
   9      1.14588649    -0.45150385  -130.28824450     0.00000052     0.00000056  0.30D-08  0.22D-08  6  4     1.46     0.16
  10      1.14588911    -0.45150437  -130.28824501    -0.00000051    -0.00000081  0.51D-09  0.27D-09  6  3     1.61     0.17
  11      1.14588866    -0.45150438  -130.28824503    -0.00000002    -0.00000010  0.18D-09  0.40D-10  6  5     1.77     0.17
  12      1.14588753    -0.45150456  -130.28824520    -0.00000017     0.00000036  0.20D-10  0.12D-10  6  6     1.94     0.17
  13      1.14588658    -0.45150459  -130.28824524    -0.00000004     0.00000023  0.71D-11  0.26D-11  6  1     2.07     0.17
  14      1.14588596    -0.45150463  -130.28824527    -0.00000003     0.00000016  0.11D-11  0.83D-12  6  2     2.20     0.17
  15      1.14588569    -0.45150464  -130.28824528    -0.00000001     0.00000004  0.31D-12  0.25D-12  6  4     2.33     0.17
  16      1.14588558    -0.45150464  -130.28824528    -0.00000000     0.00000001  0.58D-13  0.88D-13  6  3     2.49     0.17
  17      1.14588552    -0.45150464  -130.28824528    -0.00000000     0.00000001  0.43D-14  0.21D-13  6  5     2.64     0.17
  18      1.14588551    -0.45150464  -130.28824528     0.00000000    -0.00000000  0.14D-14  0.47D-14  6  6     2.79     0.17
  19      1.14588551    -0.45150464  -130.28824528     0.00000000    -0.00000000  0.17D-15  0.30D-15  6  5     2.93     0.17
  20      1.14588551    -0.45150464  -130.28824528    -0.00000000     0.00000000  0.67D-16  0.51D-16  6  1     3.09     0.17
  21      1.14588551    -0.45150464  -130.28824528    -0.00000000     0.00000000  0.14D-16  0.11D-16  6  2     3.23     0.17
  22      1.14588551    -0.45150464  -130.28824528    -0.00000000     0.00000000  0.51D-17  0.12D-17  6  4     3.38     0.17
  23      1.14588551    -0.45150464  -130.28824528     0.00000000     0.00000000  0.15D-17  0.41D-18  6  3     3.52     0.17
  24      1.14588551    -0.45150464  -130.28824528    -0.00000000     0.00000000  0.41D-18  0.81D-19  6  6     3.67     0.17
  25      1.14588551    -0.45150464  -130.28824528     0.00000000    -0.00000000  0.59D-19  0.40D-19  6  5     3.82     0.17
  26      1.14588551    -0.45150464  -130.28824528     0.00000000    -0.00000000  0.93D-20  0.16D-19  6  1     3.96     0.17
  27      1.14588551    -0.45150464  -130.28824528    -0.00000000    -0.00000000  0.47D-21  0.23D-20  6  4     4.11     0.17
  28      1.14588551    -0.45150464  -130.28824528     0.00000000     0.00000000  0.93D-22  0.26D-21  6  2     4.27     0.17

 Norm of t1 vector:      0.08119152      S-energy:     0.00000000      T1 diagnostic:  0.01657315
                                                                       D1 diagnostic:  0.04416098

 Doubles amplitudes (print threshold =  0.500E-01):

         I         J         SYM. A    SYM. B    A         B      T(IJ, AB)

         6         6         2         2         1         1     -0.11538397


 Total CPU time for triples:      1.15 sec


 RESULTS
 =======

  Reference energy                   -129.836740641863
  CCSD singlet pair energy             -0.309948845769
  CCSD triplet pair energy             -0.141555796651
  CCSD correlation energy              -0.451504642418

  Triples (T) contribution             -0.021417066398
  Total correlation energy             -0.472921708816

  CCSD total energy                  -130.288245284281
  CCSD[T] energy                     -130.310802162268
  CCSD-T energy                      -130.309240435470
 !CCSD(T) total energy               -130.309662350679

 Timing summary (sec):

 STEP                 CPU(USER)    SYS     CPU(TOT)    WALL
 Transformation          0.14      0.03      0.17      0.17
 CCSD iterations         4.14      0.56      4.70      4.70
 Triples                 1.15      0.03      1.18      1.19

 Program statistics:

 Available memory in ccsd:               994999756
 Min. memory needed in ccsd:                389120
 Max. memory used in ccsd:                  473124
 Max. memory used in cckext:                599488 (28 integral passes)



 **********************************************************************************************************************************
 DATASETS  * FILE   NREC   LENGTH (MB)   RECORD NAMES
              1      20      128.20       500      610      700      900      950      970     1000      129      960     1100   
                                          VAR    BASINP    GEOM    SYMINP    ZMAT    AOBASIS   BASIS     P2S    ABASIS      S 
                                         1400     1410     1200     1210     1080     1600     1650     1300     1700     1380   
                                           T        V       H0       H01     AOSYM     SMH    MOLCAS    ERIS     OPER     JKOP   

              2       4        2.94       700     1000      520     2100   
                                         GEOM     BASIS   MCVARS     RHF  

 PROGRAMS   *        TOTAL   CCSD(T)        HF       INT
 CPU TIMES  *         7.80      5.46      1.06      1.19
 REAL TIME  *         9.95 SEC
 DISK USED  *       327.55 MB      
 **********************************************************************************************************************************

 CCSD(T)/aug-cc-pVTZ energy=   -130.309662350679

        CCSD(T)         HF-SCF  
   -130.30966235   -129.83674064
 **********************************************************************************************************************************
 Molpro calculation terminated
 Variable memory released
