
 Primary working directories    : /tmp/r2666/282145.maple
 Secondary working directories  : /tmp/r2666/282145.maple
 Wavefunction directory         : /ddn/home4/r2666/wfu/
 Main file repository           : /tmp/r2666/282145.maple/

 SHA1      : d5ffa45e93fdbca01ffc919aa182cfdae0147319
 NAME      : 2015.1.35
 ARCHNAME  : linux/x86_64
 FC        : /opt/intel/composer_xe_2015.1.133/bin/intel64/ifort
 BLASLIB   : -Wl,-_start-group /opt/intel/mkl/lib/intel64/libmkl_intel_ilp64.a /opt/intel/mkl/lib/intel64/libmkl_intel_thread.a /opt/intel/mkl/lib/intel64/libmkl_core.a -Wl,-_end-group
 id        : olemiss

 Nodes     nprocs
 cn089        1

 Using customized tuning parameters: mindgm=1; mindgv=20; mindgc=4; mindgr=1; noblas=0; minvec=7
 default implementation of scratch files=df  

 ***,hno CCSD(T)/TZ-F12 QFF
 memory, 995, m;
 gthresh,energy=1.d-12,zero=1.d-22,oneint=1.d-22,twoint=1.d-22;
 gthresh,optgrad=1.d-8,optstep=1.d-8;
 nocompress;
 geomtyp=xyz
 bohr
 geometry={
 3
         42        42
 H        0.0000000000        1.6636847993       -1.9263750735
 N        0.0000000000       -0.1598709410       -1.1585645887
 O        0.0000000000        0.0379539317        1.1343500712
 }
 
 basis=avtz
   {hf,maxit=500;accu,20;}
 {ccsd(t),nocheck,maxit=250;orbital,IGNORE_ERROR;}

 Variables initialized (889), CPU time= 0.01 sec
 Commands  initialized (702), CPU time= 0.01 sec, 572 directives.
 Default parameters read. Elapsed time= 0.07 sec

 Checking input...
 Passed
1


                                         ***  PROGRAM SYSTEM MOLPRO  ***
                                       Copyright, TTI GmbH Stuttgart, 2015
                                    Version 2015.1 linked Jul  9 2018 13:16:40


 **********************************************************************************************************************************
 LABEL *   hno CCSD(T)/TZ-F12 QFF                                                        
  64 bit serial version                                                                  DATE: 04-Mar-20          TIME: 13:46:13  
 **********************************************************************************************************************************

 SHA1:             d5ffa45e93fdbca01ffc919aa182cfdae0147319
 **********************************************************************************************************************************

 THRESHOLDS:

 ZERO    =  1.00D-22  ONEINT  =  1.00D-22  TWOINT  =  1.00D-22  PREFAC  =  1.00D-14  LOCALI  =  1.00D-09  EORDER  =  1.00D-04
 ENERGY  =  1.00D-12  ETEST   =  0.00D+00  EDENS   =  0.00D+00  THRDEDEF=  1.00D-06  GRADIENT=  1.00D-02  STEP    =  1.00D-03
 ORBITAL =  1.00D-05  CIVEC   =  1.00D-05  COEFF   =  1.00D-04  PRINTCI =  5.00D-02  PUNCHCI =  9.90D+01  OPTGRAD =  3.00D-04
 OPTENERG=  1.00D-06  OPTSTEP =  3.00D-04  THRGRAD =  1.00D-10  COMPRESS=  1.00D-11  VARMIN  =  1.00D-07  VARMAX  =  1.00D-03
 THRDOUB =  0.00D+00  THRDIV  =  1.00D-05  THRRED  =  1.00D-07  THRPSP  =  1.00D+00  THRDC   =  1.00D-10  THRCS   =  1.00D-10
 THRNRM  =  1.00D-08  THREQ   =  0.00D+00  THRDE   =  1.00D+00  THRREF  =  1.00D-05  SPARFAC =  1.00D+00  THRDLP  =  1.00D-07
 THRDIA  =  1.00D-10  THRDLS  =  1.00D-07  THRGPS  =  0.00D+00  THRKEX  =  0.00D+00  THRDIS  =  2.00D-01  THRVAR  =  1.00D-10
 THRLOC  =  1.00D-06  THRGAP  =  1.00D-06  THRLOCT = -1.00D+00  THRGAPT = -1.00D+00  THRORB  =  1.00D-06  THRMLTP =  0.00D+00
 THRCPQCI=  1.00D-10  KEXTA   =  0.00D+00  THRCOARS=  0.00D+00  SYMTOL  =  1.00D-06  GRADTOL =  1.00D-06  THROVL  =  1.00D-08
 THRORTH =  1.00D-08  GRID    =  1.00D-06  GRIDMAX =  1.00D-03  DTMAX   =  0.00D+00  THROCCDE=  1.00D-01  THROCCDE=  1.00D-01



 THRESHOLDS:

 ZERO    =  1.00D-22  ONEINT  =  1.00D-22  TWOINT  =  1.00D-22  PREFAC  =  1.00D-14  LOCALI  =  1.00D-09  EORDER  =  1.00D-04
 ENERGY  =  1.00D-12  ETEST   =  0.00D+00  EDENS   =  0.00D+00  THRDEDEF=  1.00D-06  GRADIENT=  1.00D-02  STEP    =  1.00D-03
 ORBITAL =  1.00D-05  CIVEC   =  1.00D-05  COEFF   =  1.00D-04  PRINTCI =  5.00D-02  PUNCHCI =  9.90D+01  OPTGRAD =  1.00D-08
 OPTENERG=  1.00D-06  OPTSTEP =  1.00D-08  THRGRAD =  1.00D-10  COMPRESS=  1.00D-11  VARMIN  =  1.00D-07  VARMAX  =  1.00D-03
 THRDOUB =  0.00D+00  THRDIV  =  1.00D-05  THRRED  =  1.00D-07  THRPSP  =  1.00D+00  THRDC   =  1.00D-10  THRCS   =  1.00D-10
 THRNRM  =  1.00D-08  THREQ   =  0.00D+00  THRDE   =  1.00D+00  THRREF  =  1.00D-05  SPARFAC =  1.00D+00  THRDLP  =  1.00D-07
 THRDIA  =  1.00D-10  THRDLS  =  1.00D-07  THRGPS  =  0.00D+00  THRKEX  =  0.00D+00  THRDIS  =  2.00D-01  THRVAR  =  1.00D-10
 THRLOC  =  1.00D-06  THRGAP  =  1.00D-06  THRLOCT = -1.00D+00  THRGAPT = -1.00D+00  THRORB  =  1.00D-06  THRMLTP =  0.00D+00
 THRCPQCI=  1.00D-10  KEXTA   =  0.00D+00  THRCOARS=  0.00D+00  SYMTOL  =  1.00D-06  GRADTOL =  1.00D-06  THROVL  =  1.00D-08
 THRORTH =  1.00D-08  GRID    =  1.00D-06  GRIDMAX =  1.00D-03  DTMAX   =  0.00D+00  THROCCDE=  1.00D-01  THROCCDE=  1.00D-01



 Input parameters for SORTINT:

 COMPRESS =    0.000000
 C_FINAL  =    1.000000
 DEBUG    =   -1.000000
 C_SORT1  =    0.000000
 C_SEWARD =    0.000000
 THRESH   =    0.000000
 IO       =  molpro                                                          
 SPRI     =    0.000000
 SETTING GEOMTYP        =    XYZ
 ZUNIT=BOHR
 

 Variable memory set to  995000000 words,  buffer space   230000 words

 SETTING BASIS          =    AVTZ


 Recomputing integrals since basis changed


 Using spherical harmonics

 Library entry H      S aug-cc-pVTZ          selected for orbital group  1
 Library entry H      P aug-cc-pVTZ          selected for orbital group  1
 Library entry H      D aug-cc-pVTZ          selected for orbital group  1
 Library entry N      S aug-cc-pVTZ          selected for orbital group  2
 Library entry N      P aug-cc-pVTZ          selected for orbital group  2
 Library entry N      D aug-cc-pVTZ          selected for orbital group  2
 Library entry N      F aug-cc-pVTZ          selected for orbital group  2
 Library entry O      S aug-cc-pVTZ          selected for orbital group  3
 Library entry O      P aug-cc-pVTZ          selected for orbital group  3
 Library entry O      D aug-cc-pVTZ          selected for orbital group  3
 Library entry O      F aug-cc-pVTZ          selected for orbital group  3


 PROGRAM * SEWARD (Integral evaluation for generally contracted gaussian basis sets)     Author: Roland Lindh, 1990

 Geometry written to block  1 of record 700


 Point group  Cs  



 ATOMIC COORDINATES

 NR  ATOM    CHARGE       X              Y              Z

   1  H       1.00    0.000000000    1.663684799   -1.926375074
   2  N       7.00    0.000000000   -0.159870941   -1.158564589
   3  O       8.00    0.000000000    0.037953932    1.134350071

 Bond lengths in Bohr (Angstrom)

 1-2  1.978607712  2-3  2.301432666
     ( 1.047034111)     ( 1.217865720)

 Bond angles

  1-2-3  107.90251459

 NUCLEAR CHARGE:                   16
 NUMBER OF PRIMITIVE AOS:         161
 NUMBER OF SYMMETRY AOS:          141
 NUMBER OF CONTRACTIONS:          115   (  76A'  +  39A"  )
 NUMBER OF CORE ORBITALS:           2   (   2A'  +   0A"  )
 NUMBER OF VALENCE ORBITALS:        9   (   7A'  +   2A"  )


 NUCLEAR REPULSION ENERGY   30.17885012

 Eigenvalues of metric

         1 0.234E-03 0.502E-03 0.182E-02 0.214E-02 0.261E-02 0.373E-02 0.431E-02 0.516E-02
         2 0.406E-02 0.101E-01 0.266E-01 0.372E-01 0.515E-01 0.622E-01 0.832E-01 0.120E+00


 Contracted 2-electron integrals neglected if value below      1.0D-22

       10790064. INTEGRALS WRITTEN OUT IN    2635 BLOCKS ON RECORD 1290 OF FILE 1


 NUMBER OF SORTED TWO-ELECTRON INTEGRALS:   11433631.     BUFFER LENGTH:  32768
 NUMBER OF SEGMENTS:   1  SEGMENT LENGTH:   11433631      RECORD LENGTH: 524288

 Memory used in sort:      11.99 MW

 SORT1 READ    10790064. AND WROTE    10943632. INTEGRALS IN     32 RECORDS. CPU TIME:     0.15 SEC, REAL TIME:     0.22 SEC
 SORT2 READ    10943632. AND WROTE    11433631. INTEGRALS IN      1 RECORDS. CPU TIME:     0.16 SEC, REAL TIME:     0.22 SEC

 FILE SIZES:   FILE 1:   193.0 MBYTE,  FILE 4:   134.3 MBYTE,   TOTAL:    327.2 MBYTE

 OPERATOR DM      FOR CENTER  0  COORDINATES:    0.000000    0.000000    0.000000


 **********************************************************************************************************************************
 DATASETS  * FILE   NREC   LENGTH (MB)   RECORD NAMES
              1      19      111.05       500      610      700      900      950      970     1000      129      960     1100   
                                          VAR    BASINP    GEOM    SYMINP    ZMAT    AOBASIS   BASIS     P2S    ABASIS      S 
                                         1400     1410     1200     1210     1080     1600     1650     1300     1700   
                                           T        V       H0       H01     AOSYM     SMH    MOLCAS    ERIS     OPER   

 PROGRAMS   *        TOTAL       INT
 CPU TIMES  *         1.30      1.19
 REAL TIME  *         1.98 SEC
 DISK USED  *       327.55 MB      
 **********************************************************************************************************************************


 PROGRAM * RHF-SCF (CLOSED SHELL)       Authors: W. Meyer, H.-J. Werner


 NUMBER OF ELECTRONS:       8+    8-
 CONVERGENCE THRESHOLDS:    1.00E-10 (Density)    1.00E-13 (Energy)
 MAX. NUMBER OF ITERATIONS:      500
 INTERPOLATION TYPE:            DIIS
 INTERPOLATION STEPS:              2 (START)      1 (STEP)
 LEVEL SHIFTS:                  0.00 (CLOSED)  0.00 (OPEN) 



 Orbital guess generated from atomic densities. Full valence occupancy:    9   2

 Molecular orbital dump at record        2100.2

 Initial occupancy:   7   1

 ITERATION    DDIFF          GRAD             ENERGY        2-EL.EN.            DIPOLE MOMENTS         DIIS   ORB.
    1      0.000D+00      0.000D+00      -129.78583069    153.560343    0.00000    0.59695   -1.05174    0    start
    2      0.000D+00      0.108D-01      -129.81296081    154.800773    0.00000    0.61741   -0.20550    1    diag
    3      0.121D-01      0.847D-02      -129.83706145    154.936892    0.00000    0.56225   -0.60661    2    diag
    4      0.607D-02      0.129D-02      -129.83787250    154.641656    0.00000    0.56962   -0.54517    3    diag
    5      0.109D-02      0.427D-03      -129.83800141    154.736039    0.00000    0.57511   -0.54776    4    diag
    6      0.456D-03      0.123D-03      -129.83802196    154.720392    0.00000    0.57543   -0.54350    5    diag
    7      0.174D-03      0.615D-04      -129.83802803    154.722784    0.00000    0.57664   -0.54080    6    diag
    8      0.121D-03      0.215D-04      -129.83802873    154.722097    0.00000    0.57665   -0.53973    7    diag
    9      0.477D-04      0.411D-05      -129.83802877    154.721983    0.00000    0.57661   -0.53950    8    diag
   10      0.932D-05      0.914D-06      -129.83802877    154.721964    0.00000    0.57658   -0.53947    9    orth
   11      0.180D-05      0.180D-06      -129.83802877    154.721961    0.00000    0.57657   -0.53947    9    diag
   12      0.337D-06      0.377D-07      -129.83802877    154.721961    0.00000    0.57657   -0.53947    9    diag
   13      0.725D-07      0.977D-08      -129.83802877    154.721961    0.00000    0.57657   -0.53947    9    diag
   14      0.195D-07      0.200D-08      -129.83802877    154.721961    0.00000    0.57657   -0.53947    9    diag
   15      0.373D-08      0.549D-09      -129.83802877    154.721961    0.00000    0.57657   -0.53947    9    diag
   16      0.103D-08      0.144D-09      -129.83802877    154.721961    0.00000    0.57657   -0.53947    9    diag
   17      0.168D-09      0.386D-10      -129.83802877    154.721961    0.00000    0.57657   -0.53947    9    diag
   18      0.454D-10      0.132D-10      -129.83802877    154.721961    0.00000    0.57657   -0.53947    9    diag
   19      0.228D-10      0.267D-11      -129.83802877    154.721961    0.00000    0.57657   -0.53947    9    fixocc
   20      0.540D-11      0.362D-12      -129.83802877    154.721961    0.00000    0.57657   -0.53947    0    orth

 Final occupancy:   7   1

 !RHF STATE 1.1 Energy               -129.838028767409
 Nuclear energy                        30.17885012
 One-electron energy                 -237.37785947
 Two-electron energy                   77.36098058
 Virial quotient                       -1.00238124
 !RHF STATE 1.1 Dipole moment           0.00000000     0.57657161    -0.53946756
 Dipole moment /Debye                   0.00000000     1.46540288    -1.37109997

 Orbital energies:

         1.1          2.1          3.1          4.1          5.1          6.1          7.1          8.1          9.1
    -20.657363   -15.715560    -1.522964    -0.998458    -0.744877    -0.663227    -0.433954     0.029073     0.092144

         1.2          2.2          3.2
     -0.591546     0.062136     0.129865

 HOMO      7.1    -0.433954 =     -11.8085eV
 LUMO      8.1     0.029073 =       0.7911eV
 LUMO-HOMO         0.463027 =      12.5996eV


 **********************************************************************************************************************************
 DATASETS  * FILE   NREC   LENGTH (MB)   RECORD NAMES
              1      19      111.05       500      610      700      900      950      970     1000      129      960     1100   
                                          VAR    BASINP    GEOM    SYMINP    ZMAT    AOBASIS   BASIS     P2S    ABASIS      S 
                                         1400     1410     1200     1210     1080     1600     1650     1300     1700   
                                           T        V       H0       H01     AOSYM     SMH    MOLCAS    ERIS     OPER   

              2       4        2.94       700     1000      520     2100   
                                         GEOM     BASIS   MCVARS     RHF  

 PROGRAMS   *        TOTAL        HF       INT
 CPU TIMES  *         2.33      1.03      1.19
 REAL TIME  *         3.22 SEC
 DISK USED  *       327.55 MB      
 **********************************************************************************************************************************


 PROGRAM * CCSD (Closed-shell coupled cluster)     Authors: C. Hampel, H.-J. Werner, 1991, M. Deegan, P.J. Knowles, 1992


 Convergence thresholds:  THRVAR = 1.00D-08  THRDEN = 1.00D-12

 CCSD(T)     terms to be evaluated (factor= 1.000)


 Number of core orbitals:           2 (   2   0 )
 Number of closed-shell orbitals:   6 (   5   1 )
 Number of external orbitals:     107 (  69  38 )

 Molecular orbitals read from record     2100.2  Type=RHF/CANONICAL (state 1.1)

 Number of N-1 electron functions:               6
 Number of N-2 electron functions:              21
 Number of singly external CSFs:               383
 Number of doubly external CSFs:            107206
 Total number of CSFs:                      107590

 Length of J-op  integral file:               0.00 MB
 Length of K-op  integral file:               0.54 MB
 Length of 3-ext integral record:             0.00 MB

 Memory could be reduced to 5.94 Mwords without degradation in triples

 Integral transformation finished. Total CPU:   0.13 sec, npass=  1  Memory used:   1.65 MW

 Reference energy:                   -129.83802877

 MP2 singlet pair energy:              -0.28037427
 MP2 triplet pair energy:              -0.16581834
 MP2 correlation energy:               -0.44619261
 MP2 total energy:                   -130.28422138

 SCS-MP2 correlation energy:           -0.43962498   (PS=  1.200000  PT=  0.333333)
 SCS-MP2 total energy:               -130.27765375

 ITER.      SQ.NORM     CORR.ENERGY   TOTAL ENERGY   ENERGY CHANGE        DEN1      VAR(S)    VAR(P)  DIIS     TIME  TIME/IT
   1      1.12186103    -0.44992664  -130.28795541    -0.00373403     0.01270665  0.33D-02  0.32D-02  1  1     0.28     0.15
   2      1.13319996    -0.45004855  -130.28807732    -0.00012191    -0.01266154  0.11D-03  0.52D-03  2  2     0.43     0.16
   3      1.13987655    -0.45046210  -130.28849087    -0.00041355    -0.00305920  0.56D-04  0.53D-04  3  3     0.58     0.16
   4      1.14287921    -0.45047509  -130.28850385    -0.00001299    -0.00100643  0.44D-05  0.96D-05  4  4     0.73     0.16
   5      1.14398462    -0.45050550  -130.28853427    -0.00003041    -0.00023332  0.11D-05  0.17D-05  5  5     0.88     0.16
   6      1.14434030    -0.45048726  -130.28851603     0.00001824    -0.00004385  0.99D-07  0.40D-06  6  6     1.03     0.16
   7      1.14441401    -0.45048874  -130.28851750    -0.00000147    -0.00000133  0.17D-07  0.96D-07  6  1     1.18     0.16
   8      1.14443526    -0.45048932  -130.28851809    -0.00000058     0.00000166  0.35D-08  0.18D-07  6  2     1.33     0.16
   9      1.14444395    -0.45048872  -130.28851749     0.00000060    -0.00000089  0.26D-08  0.19D-08  6  3     1.48     0.16
  10      1.14444412    -0.45048925  -130.28851802    -0.00000053    -0.00000002  0.52D-09  0.27D-09  6  4     1.63     0.16
  11      1.14444248    -0.45048937  -130.28851814    -0.00000012     0.00000053  0.16D-09  0.34D-10  6  5     1.77     0.16
  12      1.14444114    -0.45048956  -130.28851833    -0.00000019     0.00000043  0.16D-10  0.95D-11  6  6     1.90     0.16
  13      1.14444039    -0.45048959  -130.28851835    -0.00000002     0.00000018  0.56D-11  0.18D-11  6  1     2.04     0.16
  14      1.14443994    -0.45048961  -130.28851838    -0.00000002     0.00000010  0.85D-12  0.59D-12  6  2     2.18     0.16
  15      1.14443975    -0.45048961  -130.28851838    -0.00000000     0.00000002  0.25D-12  0.18D-12  6  3     2.33     0.16
  16      1.14443966    -0.45048962  -130.28851838    -0.00000000     0.00000001  0.41D-13  0.63D-13  6  4     2.46     0.16
  17      1.14443961    -0.45048962  -130.28851839    -0.00000000     0.00000001  0.28D-14  0.14D-13  6  5     2.60     0.16
  18      1.14443960    -0.45048962  -130.28851839     0.00000000     0.00000000  0.11D-14  0.33D-14  6  6     2.75     0.16
  19      1.14443960    -0.45048962  -130.28851839     0.00000000    -0.00000000  0.15D-15  0.23D-15  6  5     2.89     0.16
  20      1.14443960    -0.45048962  -130.28851839    -0.00000000    -0.00000000  0.60D-16  0.39D-16  6  1     3.02     0.16
  21      1.14443960    -0.45048962  -130.28851839     0.00000000     0.00000000  0.14D-16  0.87D-17  6  2     3.18     0.16
  22      1.14443960    -0.45048962  -130.28851839    -0.00000000     0.00000000  0.37D-17  0.99D-18  6  3     3.31     0.16
  23      1.14443960    -0.45048962  -130.28851839     0.00000000     0.00000000  0.91D-18  0.31D-18  6  4     3.45     0.16
  24      1.14443960    -0.45048962  -130.28851839    -0.00000000     0.00000000  0.26D-18  0.59D-19  6  6     3.58     0.16
  25      1.14443960    -0.45048962  -130.28851839     0.00000000    -0.00000000  0.44D-19  0.27D-19  6  5     3.73     0.16
  26      1.14443960    -0.45048962  -130.28851839     0.00000000    -0.00000000  0.65D-20  0.11D-19  6  1     3.87     0.16
  27      1.14443960    -0.45048962  -130.28851839    -0.00000000    -0.00000000  0.30D-21  0.14D-20  6  3     4.02     0.16
  28      1.14443960    -0.45048962  -130.28851839     0.00000000     0.00000000  0.74D-22  0.18D-21  6  2     4.15     0.16

 Norm of t1 vector:      0.07980218      S-energy:     0.00000000      T1 diagnostic:  0.01628955
                                                                       D1 diagnostic:  0.04340140

 Doubles amplitudes (print threshold =  0.500E-01):

         I         J         SYM. A    SYM. B    A         B      T(IJ, AB)

         6         6         2         2         1         1     -0.11331891


 Total CPU time for triples:      1.10 sec


 RESULTS
 =======

  Reference energy                   -129.838028767409
  CCSD singlet pair energy             -0.309076224569
  CCSD triplet pair energy             -0.141413393691
  CCSD correlation energy              -0.450489618260

  Triples (T) contribution             -0.021188151708
  Total correlation energy             -0.471677769968

  CCSD total energy                  -130.288518385669
  CCSD[T] energy                     -130.310810684737
  CCSD-T energy                      -130.309294184898
 !CCSD(T) total energy               -130.309706537377

 Timing summary (sec):

 STEP                 CPU(USER)    SYS     CPU(TOT)    WALL
 Transformation          0.13      0.03      0.16      0.16
 CCSD iterations         4.02      0.49      4.51      4.52
 Triples                 1.10      0.03      1.13      1.13

 Program statistics:

 Available memory in ccsd:               994999756
 Min. memory needed in ccsd:                389120
 Max. memory used in ccsd:                  473124
 Max. memory used in cckext:                599488 (28 integral passes)



 **********************************************************************************************************************************
 DATASETS  * FILE   NREC   LENGTH (MB)   RECORD NAMES
              1      20      128.20       500      610      700      900      950      970     1000      129      960     1100   
                                          VAR    BASINP    GEOM    SYMINP    ZMAT    AOBASIS   BASIS     P2S    ABASIS      S 
                                         1400     1410     1200     1210     1080     1600     1650     1300     1700     1380   
                                           T        V       H0       H01     AOSYM     SMH    MOLCAS    ERIS     OPER     JKOP   

              2       4        2.94       700     1000      520     2100   
                                         GEOM     BASIS   MCVARS     RHF  

 PROGRAMS   *        TOTAL   CCSD(T)        HF       INT
 CPU TIMES  *         7.63      5.29      1.03      1.19
 REAL TIME  *         9.08 SEC
 DISK USED  *       327.55 MB      
 **********************************************************************************************************************************

 CCSD(T)/aug-cc-pVTZ energy=   -130.309706537377

        CCSD(T)         HF-SCF  
   -130.30970654   -129.83802877
 **********************************************************************************************************************************
 Molpro calculation terminated
 Variable memory released
