
 Primary working directories    : /tmp/r2666/282121.maple
 Secondary working directories  : /tmp/r2666/282121.maple
 Wavefunction directory         : /ddn/home4/r2666/wfu/
 Main file repository           : /tmp/r2666/282121.maple/

 SHA1      : d5ffa45e93fdbca01ffc919aa182cfdae0147319
 NAME      : 2015.1.35
 ARCHNAME  : linux/x86_64
 FC        : /opt/intel/composer_xe_2015.1.133/bin/intel64/ifort
 BLASLIB   : -Wl,-_start-group /opt/intel/mkl/lib/intel64/libmkl_intel_ilp64.a /opt/intel/mkl/lib/intel64/libmkl_intel_thread.a /opt/intel/mkl/lib/intel64/libmkl_core.a -Wl,-_end-group
 id        : olemiss

 Nodes     nprocs
 cn084        1

 Using customized tuning parameters: mindgm=1; mindgv=20; mindgc=4; mindgr=1; noblas=0; minvec=7
 default implementation of scratch files=df  

 ***,hno CCSD(T)/TZ-F12 QFF
 memory, 995, m;
 gthresh,energy=1.d-12,zero=1.d-22,oneint=1.d-22,twoint=1.d-22;
 gthresh,optgrad=1.d-8,optstep=1.d-8;
 nocompress;
 geomtyp=xyz
 bohr
 geometry={
 3
         18        18
 H        0.0000000000        1.6585473352       -1.9241830682
 N        0.0000000000       -0.1542462744       -1.1551792843
 O        0.0000000000        0.0374667292        1.1287727615
 }
 
 basis=avtz
   {hf,maxit=500;accu,20;}
 {ccsd(t),nocheck,maxit=250;orbital,IGNORE_ERROR;}

 Variables initialized (889), CPU time= 0.01 sec
 Commands  initialized (702), CPU time= 0.01 sec, 572 directives.
 Default parameters read. Elapsed time= 0.05 sec

 Checking input...
 Passed
1


                                         ***  PROGRAM SYSTEM MOLPRO  ***
                                       Copyright, TTI GmbH Stuttgart, 2015
                                    Version 2015.1 linked Jul  9 2018 13:16:40


 **********************************************************************************************************************************
 LABEL *   hno CCSD(T)/TZ-F12 QFF                                                        
  64 bit serial version                                                                  DATE: 04-Mar-20          TIME: 13:45:57  
 **********************************************************************************************************************************

 SHA1:             d5ffa45e93fdbca01ffc919aa182cfdae0147319
 **********************************************************************************************************************************

 THRESHOLDS:

 ZERO    =  1.00D-22  ONEINT  =  1.00D-22  TWOINT  =  1.00D-22  PREFAC  =  1.00D-14  LOCALI  =  1.00D-09  EORDER  =  1.00D-04
 ENERGY  =  1.00D-12  ETEST   =  0.00D+00  EDENS   =  0.00D+00  THRDEDEF=  1.00D-06  GRADIENT=  1.00D-02  STEP    =  1.00D-03
 ORBITAL =  1.00D-05  CIVEC   =  1.00D-05  COEFF   =  1.00D-04  PRINTCI =  5.00D-02  PUNCHCI =  9.90D+01  OPTGRAD =  3.00D-04
 OPTENERG=  1.00D-06  OPTSTEP =  3.00D-04  THRGRAD =  1.00D-10  COMPRESS=  1.00D-11  VARMIN  =  1.00D-07  VARMAX  =  1.00D-03
 THRDOUB =  0.00D+00  THRDIV  =  1.00D-05  THRRED  =  1.00D-07  THRPSP  =  1.00D+00  THRDC   =  1.00D-10  THRCS   =  1.00D-10
 THRNRM  =  1.00D-08  THREQ   =  0.00D+00  THRDE   =  1.00D+00  THRREF  =  1.00D-05  SPARFAC =  1.00D+00  THRDLP  =  1.00D-07
 THRDIA  =  1.00D-10  THRDLS  =  1.00D-07  THRGPS  =  0.00D+00  THRKEX  =  0.00D+00  THRDIS  =  2.00D-01  THRVAR  =  1.00D-10
 THRLOC  =  1.00D-06  THRGAP  =  1.00D-06  THRLOCT = -1.00D+00  THRGAPT = -1.00D+00  THRORB  =  1.00D-06  THRMLTP =  0.00D+00
 THRCPQCI=  1.00D-10  KEXTA   =  0.00D+00  THRCOARS=  0.00D+00  SYMTOL  =  1.00D-06  GRADTOL =  1.00D-06  THROVL  =  1.00D-08
 THRORTH =  1.00D-08  GRID    =  1.00D-06  GRIDMAX =  1.00D-03  DTMAX   =  0.00D+00  THROCCDE=  1.00D-01  THROCCDE=  1.00D-01



 THRESHOLDS:

 ZERO    =  1.00D-22  ONEINT  =  1.00D-22  TWOINT  =  1.00D-22  PREFAC  =  1.00D-14  LOCALI  =  1.00D-09  EORDER  =  1.00D-04
 ENERGY  =  1.00D-12  ETEST   =  0.00D+00  EDENS   =  0.00D+00  THRDEDEF=  1.00D-06  GRADIENT=  1.00D-02  STEP    =  1.00D-03
 ORBITAL =  1.00D-05  CIVEC   =  1.00D-05  COEFF   =  1.00D-04  PRINTCI =  5.00D-02  PUNCHCI =  9.90D+01  OPTGRAD =  1.00D-08
 OPTENERG=  1.00D-06  OPTSTEP =  1.00D-08  THRGRAD =  1.00D-10  COMPRESS=  1.00D-11  VARMIN  =  1.00D-07  VARMAX  =  1.00D-03
 THRDOUB =  0.00D+00  THRDIV  =  1.00D-05  THRRED  =  1.00D-07  THRPSP  =  1.00D+00  THRDC   =  1.00D-10  THRCS   =  1.00D-10
 THRNRM  =  1.00D-08  THREQ   =  0.00D+00  THRDE   =  1.00D+00  THRREF  =  1.00D-05  SPARFAC =  1.00D+00  THRDLP  =  1.00D-07
 THRDIA  =  1.00D-10  THRDLS  =  1.00D-07  THRGPS  =  0.00D+00  THRKEX  =  0.00D+00  THRDIS  =  2.00D-01  THRVAR  =  1.00D-10
 THRLOC  =  1.00D-06  THRGAP  =  1.00D-06  THRLOCT = -1.00D+00  THRGAPT = -1.00D+00  THRORB  =  1.00D-06  THRMLTP =  0.00D+00
 THRCPQCI=  1.00D-10  KEXTA   =  0.00D+00  THRCOARS=  0.00D+00  SYMTOL  =  1.00D-06  GRADTOL =  1.00D-06  THROVL  =  1.00D-08
 THRORTH =  1.00D-08  GRID    =  1.00D-06  GRIDMAX =  1.00D-03  DTMAX   =  0.00D+00  THROCCDE=  1.00D-01  THROCCDE=  1.00D-01



 Input parameters for SORTINT:

 COMPRESS =    0.000000
 C_FINAL  =    1.000000
 DEBUG    =   -1.000000
 C_SORT1  =    0.000000
 C_SEWARD =    0.000000
 THRESH   =    0.000000
 IO       =  molpro                                                          
 SPRI     =    0.000000
 SETTING GEOMTYP        =    XYZ
 ZUNIT=BOHR
 

 Variable memory set to  995000000 words,  buffer space   230000 words

 SETTING BASIS          =    AVTZ


 Recomputing integrals since basis changed


 Using spherical harmonics

 Library entry H      S aug-cc-pVTZ          selected for orbital group  1
 Library entry H      P aug-cc-pVTZ          selected for orbital group  1
 Library entry H      D aug-cc-pVTZ          selected for orbital group  1
 Library entry N      S aug-cc-pVTZ          selected for orbital group  2
 Library entry N      P aug-cc-pVTZ          selected for orbital group  2
 Library entry N      D aug-cc-pVTZ          selected for orbital group  2
 Library entry N      F aug-cc-pVTZ          selected for orbital group  2
 Library entry O      S aug-cc-pVTZ          selected for orbital group  3
 Library entry O      P aug-cc-pVTZ          selected for orbital group  3
 Library entry O      D aug-cc-pVTZ          selected for orbital group  3
 Library entry O      F aug-cc-pVTZ          selected for orbital group  3


 PROGRAM * SEWARD (Integral evaluation for generally contracted gaussian basis sets)     Author: Roland Lindh, 1990

 Geometry written to block  1 of record 700


 Point group  Cs  



 ATOMIC COORDINATES

 NR  ATOM    CHARGE       X              Y              Z

   1  H       1.00    0.000000000    1.658547335   -1.924183068
   2  N       7.00    0.000000000   -0.154246274   -1.155179284
   3  O       8.00    0.000000000    0.037466729    1.128772762

 Bond lengths in Bohr (Angstrom)

 1-2  1.969159082  2-3  2.291984036
     ( 1.042034111)     ( 1.212865720)

 Bond angles

  1-2-3  108.18899349

 NUCLEAR CHARGE:                   16
 NUMBER OF PRIMITIVE AOS:         161
 NUMBER OF SYMMETRY AOS:          141
 NUMBER OF CONTRACTIONS:          115   (  76A'  +  39A"  )
 NUMBER OF CORE ORBITALS:           2   (   2A'  +   0A"  )
 NUMBER OF VALENCE ORBITALS:        9   (   7A'  +   2A"  )


 NUCLEAR REPULSION ENERGY   30.30217518

 Eigenvalues of metric

         1 0.232E-03 0.496E-03 0.180E-02 0.211E-02 0.257E-02 0.365E-02 0.428E-02 0.507E-02
         2 0.400E-02 0.991E-02 0.263E-01 0.369E-01 0.513E-01 0.618E-01 0.819E-01 0.119E+00


 Contracted 2-electron integrals neglected if value below      1.0D-22

       10790064. INTEGRALS WRITTEN OUT IN    2635 BLOCKS ON RECORD 1290 OF FILE 1


 NUMBER OF SORTED TWO-ELECTRON INTEGRALS:   11433631.     BUFFER LENGTH:  32768
 NUMBER OF SEGMENTS:   1  SEGMENT LENGTH:   11433631      RECORD LENGTH: 524288

 Memory used in sort:      11.99 MW

 SORT1 READ    10790064. AND WROTE    10943632. INTEGRALS IN     32 RECORDS. CPU TIME:     0.15 SEC, REAL TIME:     0.22 SEC
 SORT2 READ    10943632. AND WROTE    11433631. INTEGRALS IN      1 RECORDS. CPU TIME:     0.17 SEC, REAL TIME:     0.22 SEC

 FILE SIZES:   FILE 1:   193.0 MBYTE,  FILE 4:   134.3 MBYTE,   TOTAL:    327.2 MBYTE

 OPERATOR DM      FOR CENTER  0  COORDINATES:    0.000000    0.000000    0.000000


 **********************************************************************************************************************************
 DATASETS  * FILE   NREC   LENGTH (MB)   RECORD NAMES
              1      19      111.05       500      610      700      900      950      970     1000      129      960     1100   
                                          VAR    BASINP    GEOM    SYMINP    ZMAT    AOBASIS   BASIS     P2S    ABASIS      S 
                                         1400     1410     1200     1210     1080     1600     1650     1300     1700   
                                           T        V       H0       H01     AOSYM     SMH    MOLCAS    ERIS     OPER   

 PROGRAMS   *        TOTAL       INT
 CPU TIMES  *         1.22      1.13
 REAL TIME  *         2.00 SEC
 DISK USED  *       327.55 MB      
 **********************************************************************************************************************************


 PROGRAM * RHF-SCF (CLOSED SHELL)       Authors: W. Meyer, H.-J. Werner


 NUMBER OF ELECTRONS:       8+    8-
 CONVERGENCE THRESHOLDS:    1.00E-10 (Density)    1.00E-13 (Energy)
 MAX. NUMBER OF ITERATIONS:      500
 INTERPOLATION TYPE:            DIIS
 INTERPOLATION STEPS:              2 (START)      1 (STEP)
 LEVEL SHIFTS:                  0.00 (CLOSED)  0.00 (OPEN) 



 Orbital guess generated from atomic densities. Full valence occupancy:    9   2

 Molecular orbital dump at record        2100.2

 Initial occupancy:   7   1

 ITERATION    DDIFF          GRAD             ENERGY        2-EL.EN.            DIPOLE MOMENTS         DIIS   ORB.
    1      0.000D+00      0.000D+00      -129.78773998    153.783027    0.00000    0.60042   -1.03532    0    start
    2      0.000D+00      0.108D-01      -129.81505710    155.030241    0.00000    0.61450   -0.21157    1    diag
    3      0.120D-01      0.828D-02      -129.83802763    155.155616    0.00000    0.56277   -0.60088    2    diag
    4      0.596D-02      0.129D-02      -129.83882799    154.864807    0.00000    0.57016   -0.54014    3    diag
    5      0.108D-02      0.422D-03      -129.83895385    154.958410    0.00000    0.57560   -0.54281    4    diag
    6      0.451D-03      0.121D-03      -129.83897381    154.942909    0.00000    0.57595   -0.53867    5    diag
    7      0.171D-03      0.604D-04      -129.83897964    154.945324    0.00000    0.57716   -0.53604    6    diag
    8      0.119D-03      0.208D-04      -129.83898029    154.944660    0.00000    0.57718   -0.53501    7    diag
    9      0.456D-04      0.395D-05      -129.83898031    154.944552    0.00000    0.57714   -0.53479    8    diag
   10      0.883D-05      0.890D-06      -129.83898032    154.944534    0.00000    0.57710   -0.53476    9    orth
   11      0.175D-05      0.175D-06      -129.83898032    154.944532    0.00000    0.57710   -0.53476    9    diag
   12      0.330D-06      0.364D-07      -129.83898032    154.944532    0.00000    0.57710   -0.53476    9    diag
   13      0.707D-07      0.925D-08      -129.83898032    154.944532    0.00000    0.57710   -0.53476    9    diag
   14      0.187D-07      0.189D-08      -129.83898032    154.944532    0.00000    0.57710   -0.53476    9    diag
   15      0.361D-08      0.523D-09      -129.83898032    154.944532    0.00000    0.57710   -0.53476    9    diag
   16      0.991D-09      0.139D-09      -129.83898032    154.944532    0.00000    0.57710   -0.53476    9    diag
   17      0.167D-09      0.373D-10      -129.83898032    154.944532    0.00000    0.57710   -0.53476    9    diag
   18      0.446D-10      0.129D-10      -129.83898032    154.944532    0.00000    0.57710   -0.53476    9    diag
   19      0.225D-10      0.267D-11      -129.83898032    154.944532    0.00000    0.57710   -0.53476    9    fixocc
   20      0.504D-11      0.432D-12      -129.83898032    154.944532    0.00000    0.57710   -0.53476    0    orth

 Final occupancy:   7   1

 !RHF STATE 1.1 Energy               -129.838980316107
 Nuclear energy                        30.30217518
 One-electron energy                 -237.61342127
 Two-electron energy                   77.47226577
 Virial quotient                       -1.00218145
 !RHF STATE 1.1 Dipole moment           0.00000000     0.57709614    -0.53475778
 Dipole moment /Debye                   0.00000000     1.46673601    -1.35912968

 Orbital energies:

         1.1          2.1          3.1          4.1          5.1          6.1          7.1          8.1          9.1
    -20.656862   -15.713965    -1.526917    -0.998756    -0.746921    -0.664704    -0.432544     0.029122     0.092150

         1.2          2.2          3.2
     -0.593776     0.063488     0.129879

 HOMO      7.1    -0.432544 =     -11.7701eV
 LUMO      8.1     0.029122 =       0.7925eV
 LUMO-HOMO         0.461666 =      12.5626eV


 **********************************************************************************************************************************
 DATASETS  * FILE   NREC   LENGTH (MB)   RECORD NAMES
              1      19      111.05       500      610      700      900      950      970     1000      129      960     1100   
                                          VAR    BASINP    GEOM    SYMINP    ZMAT    AOBASIS   BASIS     P2S    ABASIS      S 
                                         1400     1410     1200     1210     1080     1600     1650     1300     1700   
                                           T        V       H0       H01     AOSYM     SMH    MOLCAS    ERIS     OPER   

              2       4        2.94       700     1000      520     2100   
                                         GEOM     BASIS   MCVARS     RHF  

 PROGRAMS   *        TOTAL        HF       INT
 CPU TIMES  *         2.21      0.99      1.13
 REAL TIME  *         3.31 SEC
 DISK USED  *       327.55 MB      
 **********************************************************************************************************************************


 PROGRAM * CCSD (Closed-shell coupled cluster)     Authors: C. Hampel, H.-J. Werner, 1991, M. Deegan, P.J. Knowles, 1992


 Convergence thresholds:  THRVAR = 1.00D-08  THRDEN = 1.00D-12

 CCSD(T)     terms to be evaluated (factor= 1.000)


 Number of core orbitals:           2 (   2   0 )
 Number of closed-shell orbitals:   6 (   5   1 )
 Number of external orbitals:     107 (  69  38 )

 Molecular orbitals read from record     2100.2  Type=RHF/CANONICAL (state 1.1)

 Number of N-1 electron functions:               6
 Number of N-2 electron functions:              21
 Number of singly external CSFs:               383
 Number of doubly external CSFs:            107206
 Total number of CSFs:                      107590

 Length of J-op  integral file:               0.00 MB
 Length of K-op  integral file:               0.54 MB
 Length of 3-ext integral record:             0.00 MB

 Memory could be reduced to 5.94 Mwords without degradation in triples

 Integral transformation finished. Total CPU:   0.16 sec, npass=  1  Memory used:   1.65 MW

 Reference energy:                   -129.83898032

 MP2 singlet pair energy:              -0.27972483
 MP2 triplet pair energy:              -0.16539286
 MP2 correlation energy:               -0.44511769
 MP2 total energy:                   -130.28409800

 SCS-MP2 correlation energy:           -0.43858091   (PS=  1.200000  PT=  0.333333)
 SCS-MP2 total energy:               -130.27756123

 ITER.      SQ.NORM     CORR.ENERGY   TOTAL ENERGY   ENERGY CHANGE        DEN1      VAR(S)    VAR(P)  DIIS     TIME  TIME/IT
   1      1.12114929    -0.44906137  -130.28804169    -0.00394368     0.01224447  0.32D-02  0.32D-02  1  1     0.31     0.16
   2      1.13233410    -0.44922588  -130.28820619    -0.00016450    -0.01251283  0.10D-03  0.51D-03  2  2     0.46     0.16
   3      1.13887676    -0.44962813  -130.28860844    -0.00040225    -0.00301487  0.54D-04  0.52D-04  3  3     0.60     0.16
   4      1.14181029    -0.44964135  -130.28862166    -0.00001322    -0.00098705  0.42D-05  0.93D-05  4  4     0.75     0.17
   5      1.14287822    -0.44967047  -130.28865079    -0.00002912    -0.00022548  0.11D-05  0.17D-05  5  5     0.88     0.17
   6      1.14322481    -0.44965299  -130.28863330     0.00001748    -0.00004257  0.93D-07  0.40D-06  6  6     1.03     0.17
   7      1.14329816    -0.44965446  -130.28863478    -0.00000147    -0.00000147  0.17D-07  0.95D-07  6  1     1.18     0.17
   8      1.14331915    -0.44965512  -130.28863544    -0.00000066     0.00000171  0.36D-08  0.17D-07  6  2     1.33     0.17
   9      1.14332764    -0.44965455  -130.28863487     0.00000057    -0.00000091  0.26D-08  0.18D-08  6  3     1.48     0.17
  10      1.14332776    -0.44965507  -130.28863539    -0.00000052    -0.00000000  0.51D-09  0.25D-09  6  4     1.62     0.17
  11      1.14332613    -0.44965519  -130.28863551    -0.00000012     0.00000053  0.15D-09  0.32D-10  6  5     1.77     0.17
  12      1.14332482    -0.44965538  -130.28863569    -0.00000019     0.00000042  0.15D-10  0.91D-11  6  6     1.91     0.17
  13      1.14332409    -0.44965540  -130.28863572    -0.00000002     0.00000017  0.54D-11  0.18D-11  6  1     2.06     0.17
  14      1.14332366    -0.44965542  -130.28863574    -0.00000002     0.00000009  0.82D-12  0.56D-12  6  2     2.20     0.17
  15      1.14332348    -0.44965543  -130.28863574    -0.00000000     0.00000002  0.24D-12  0.17D-12  6  3     2.36     0.17
  16      1.14332339    -0.44965543  -130.28863575    -0.00000000     0.00000001  0.39D-13  0.62D-13  6  4     2.50     0.17
  17      1.14332334    -0.44965543  -130.28863575    -0.00000000     0.00000001  0.27D-14  0.14D-13  6  5     2.64     0.17
  18      1.14332333    -0.44965543  -130.28863575     0.00000000     0.00000000  0.12D-14  0.31D-14  6  6     2.79     0.17
  19      1.14332333    -0.44965543  -130.28863575     0.00000000    -0.00000000  0.15D-15  0.22D-15  6  5     2.94     0.17
  20      1.14332333    -0.44965543  -130.28863575    -0.00000000    -0.00000000  0.63D-16  0.39D-16  6  1     3.09     0.17
  21      1.14332333    -0.44965543  -130.28863575     0.00000000     0.00000000  0.14D-16  0.89D-17  6  2     3.24     0.17
  22      1.14332333    -0.44965543  -130.28863575    -0.00000000     0.00000000  0.36D-17  0.98D-18  6  3     3.39     0.17
  23      1.14332333    -0.44965543  -130.28863575     0.00000000     0.00000000  0.87D-18  0.30D-18  6  4     3.55     0.17
  24      1.14332333    -0.44965543  -130.28863575    -0.00000000     0.00000000  0.25D-18  0.58D-19  6  6     3.71     0.17
  25      1.14332333    -0.44965543  -130.28863575     0.00000000    -0.00000000  0.43D-19  0.27D-19  6  5     3.86     0.17
  26      1.14332333    -0.44965543  -130.28863575     0.00000000    -0.00000000  0.61D-20  0.10D-19  6  1     3.99     0.17
  27      1.14332333    -0.44965543  -130.28863575    -0.00000000    -0.00000000  0.29D-21  0.14D-20  6  3     4.14     0.17
  28      1.14332333    -0.44965543  -130.28863575     0.00000000     0.00000000  0.74D-22  0.18D-21  6  2     4.29     0.17

 Norm of t1 vector:      0.07882034      S-energy:     0.00000000      T1 diagnostic:  0.01608913
                                                                       D1 diagnostic:  0.04272827

 Doubles amplitudes (print threshold =  0.500E-01):

         I         J         SYM. A    SYM. B    A         B      T(IJ, AB)

         6         6         2         2         1         1     -0.11117938


 Total CPU time for triples:      1.31 sec


 RESULTS
 =======

  Reference energy                   -129.838980316107
  CCSD singlet pair energy             -0.308359372860
  CCSD triplet pair energy             -0.141296058963
  CCSD correlation energy              -0.449655431822

  Triples (T) contribution             -0.021000904693
  Total correlation energy             -0.470656336515

  CCSD total energy                  -130.288635747929
  CCSD[T] energy                     -130.310714584449
  CCSD-T energy                      -130.309231052821
 !CCSD(T) total energy               -130.309636652623

 Timing summary (sec):

 STEP                 CPU(USER)    SYS     CPU(TOT)    WALL
 Transformation          0.16      0.03      0.19      0.20
 CCSD iterations         4.13      0.53      4.66      4.66
 Triples                 1.31      0.08      1.39      1.39

 Program statistics:

 Available memory in ccsd:               994999756
 Min. memory needed in ccsd:                389120
 Max. memory used in ccsd:                  473124
 Max. memory used in cckext:                599488 (28 integral passes)



 **********************************************************************************************************************************
 DATASETS  * FILE   NREC   LENGTH (MB)   RECORD NAMES
              1      20      128.20       500      610      700      900      950      970     1000      129      960     1100   
                                          VAR    BASINP    GEOM    SYMINP    ZMAT    AOBASIS   BASIS     P2S    ABASIS      S 
                                         1400     1410     1200     1210     1080     1600     1650     1300     1700     1380   
                                           T        V       H0       H01     AOSYM     SMH    MOLCAS    ERIS     OPER     JKOP   

              2       4        2.94       700     1000      520     2100   
                                         GEOM     BASIS   MCVARS     RHF  

 PROGRAMS   *        TOTAL   CCSD(T)        HF       INT
 CPU TIMES  *         7.85      5.64      0.99      1.13
 REAL TIME  *         9.63 SEC
 DISK USED  *       327.55 MB      
 **********************************************************************************************************************************

 CCSD(T)/aug-cc-pVTZ energy=   -130.309636652623

        CCSD(T)         HF-SCF  
   -130.30963665   -129.83898032
 **********************************************************************************************************************************
 Molpro calculation terminated
 Variable memory released
