
 Primary working directories    : /tmp/r2666/282228.maple
 Secondary working directories  : /tmp/r2666/282228.maple
 Wavefunction directory         : /ddn/home4/r2666/wfu/
 Main file repository           : /tmp/r2666/282228.maple/

 SHA1      : d5ffa45e93fdbca01ffc919aa182cfdae0147319
 NAME      : 2015.1.35
 ARCHNAME  : linux/x86_64
 FC        : /opt/intel/composer_xe_2015.1.133/bin/intel64/ifort
 BLASLIB   : -Wl,-_start-group /opt/intel/mkl/lib/intel64/libmkl_intel_ilp64.a /opt/intel/mkl/lib/intel64/libmkl_intel_thread.a /opt/intel/mkl/lib/intel64/libmkl_core.a -Wl,-_end-group
 id        : olemiss

 Nodes     nprocs
 cn091        1

 Using customized tuning parameters: mindgm=1; mindgv=20; mindgc=4; mindgr=1; noblas=0; minvec=7
 default implementation of scratch files=df  

 ***,hno CCSD(T)/TZ-F12 QFF
 memory, 995, m;
 gthresh,energy=1.d-12,zero=1.d-22,oneint=1.d-22,twoint=1.d-22;
 gthresh,optgrad=1.d-8,optstep=1.d-8;
 nocompress;
 geomtyp=xyz
 bohr
 geometry={
 3
        125       125
 H        0.0000000000        1.6802959859       -1.9363991080
 N        0.0000000000       -0.1737015547       -1.1435743606
 O        0.0000000000        0.0351733588        1.1293838775
 }
 
 basis=avtz
   {hf,maxit=500;accu,20;}
 {ccsd(t),nocheck,maxit=250;orbital,IGNORE_ERROR;}

 Variables initialized (889), CPU time= 0.00 sec
 Commands  initialized (702), CPU time= 0.00 sec, 572 directives.
 Default parameters read. Elapsed time= 0.07 sec

 Checking input...
 Passed
1


                                         ***  PROGRAM SYSTEM MOLPRO  ***
                                       Copyright, TTI GmbH Stuttgart, 2015
                                    Version 2015.1 linked Jul  9 2018 13:16:40


 **********************************************************************************************************************************
 LABEL *   hno CCSD(T)/TZ-F12 QFF                                                        
  64 bit serial version                                                                  DATE: 04-Mar-20          TIME: 13:46:47  
 **********************************************************************************************************************************

 SHA1:             d5ffa45e93fdbca01ffc919aa182cfdae0147319
 **********************************************************************************************************************************

 THRESHOLDS:

 ZERO    =  1.00D-22  ONEINT  =  1.00D-22  TWOINT  =  1.00D-22  PREFAC  =  1.00D-14  LOCALI  =  1.00D-09  EORDER  =  1.00D-04
 ENERGY  =  1.00D-12  ETEST   =  0.00D+00  EDENS   =  0.00D+00  THRDEDEF=  1.00D-06  GRADIENT=  1.00D-02  STEP    =  1.00D-03
 ORBITAL =  1.00D-05  CIVEC   =  1.00D-05  COEFF   =  1.00D-04  PRINTCI =  5.00D-02  PUNCHCI =  9.90D+01  OPTGRAD =  3.00D-04
 OPTENERG=  1.00D-06  OPTSTEP =  3.00D-04  THRGRAD =  1.00D-10  COMPRESS=  1.00D-11  VARMIN  =  1.00D-07  VARMAX  =  1.00D-03
 THRDOUB =  0.00D+00  THRDIV  =  1.00D-05  THRRED  =  1.00D-07  THRPSP  =  1.00D+00  THRDC   =  1.00D-10  THRCS   =  1.00D-10
 THRNRM  =  1.00D-08  THREQ   =  0.00D+00  THRDE   =  1.00D+00  THRREF  =  1.00D-05  SPARFAC =  1.00D+00  THRDLP  =  1.00D-07
 THRDIA  =  1.00D-10  THRDLS  =  1.00D-07  THRGPS  =  0.00D+00  THRKEX  =  0.00D+00  THRDIS  =  2.00D-01  THRVAR  =  1.00D-10
 THRLOC  =  1.00D-06  THRGAP  =  1.00D-06  THRLOCT = -1.00D+00  THRGAPT = -1.00D+00  THRORB  =  1.00D-06  THRMLTP =  0.00D+00
 THRCPQCI=  1.00D-10  KEXTA   =  0.00D+00  THRCOARS=  0.00D+00  SYMTOL  =  1.00D-06  GRADTOL =  1.00D-06  THROVL  =  1.00D-08
 THRORTH =  1.00D-08  GRID    =  1.00D-06  GRIDMAX =  1.00D-03  DTMAX   =  0.00D+00  THROCCDE=  1.00D-01  THROCCDE=  1.00D-01



 THRESHOLDS:

 ZERO    =  1.00D-22  ONEINT  =  1.00D-22  TWOINT  =  1.00D-22  PREFAC  =  1.00D-14  LOCALI  =  1.00D-09  EORDER  =  1.00D-04
 ENERGY  =  1.00D-12  ETEST   =  0.00D+00  EDENS   =  0.00D+00  THRDEDEF=  1.00D-06  GRADIENT=  1.00D-02  STEP    =  1.00D-03
 ORBITAL =  1.00D-05  CIVEC   =  1.00D-05  COEFF   =  1.00D-04  PRINTCI =  5.00D-02  PUNCHCI =  9.90D+01  OPTGRAD =  1.00D-08
 OPTENERG=  1.00D-06  OPTSTEP =  1.00D-08  THRGRAD =  1.00D-10  COMPRESS=  1.00D-11  VARMIN  =  1.00D-07  VARMAX  =  1.00D-03
 THRDOUB =  0.00D+00  THRDIV  =  1.00D-05  THRRED  =  1.00D-07  THRPSP  =  1.00D+00  THRDC   =  1.00D-10  THRCS   =  1.00D-10
 THRNRM  =  1.00D-08  THREQ   =  0.00D+00  THRDE   =  1.00D+00  THRREF  =  1.00D-05  SPARFAC =  1.00D+00  THRDLP  =  1.00D-07
 THRDIA  =  1.00D-10  THRDLS  =  1.00D-07  THRGPS  =  0.00D+00  THRKEX  =  0.00D+00  THRDIS  =  2.00D-01  THRVAR  =  1.00D-10
 THRLOC  =  1.00D-06  THRGAP  =  1.00D-06  THRLOCT = -1.00D+00  THRGAPT = -1.00D+00  THRORB  =  1.00D-06  THRMLTP =  0.00D+00
 THRCPQCI=  1.00D-10  KEXTA   =  0.00D+00  THRCOARS=  0.00D+00  SYMTOL  =  1.00D-06  GRADTOL =  1.00D-06  THROVL  =  1.00D-08
 THRORTH =  1.00D-08  GRID    =  1.00D-06  GRIDMAX =  1.00D-03  DTMAX   =  0.00D+00  THROCCDE=  1.00D-01  THROCCDE=  1.00D-01



 Input parameters for SORTINT:

 COMPRESS =    0.000000
 C_FINAL  =    1.000000
 DEBUG    =   -1.000000
 C_SORT1  =    0.000000
 C_SEWARD =    0.000000
 THRESH   =    0.000000
 IO       =  molpro                                                          
 SPRI     =    0.000000
 SETTING GEOMTYP        =    XYZ
 ZUNIT=BOHR
 

 Variable memory set to  995000000 words,  buffer space   230000 words

 SETTING BASIS          =    AVTZ


 Recomputing integrals since basis changed


 Using spherical harmonics

 Library entry H      S aug-cc-pVTZ          selected for orbital group  1
 Library entry H      P aug-cc-pVTZ          selected for orbital group  1
 Library entry H      D aug-cc-pVTZ          selected for orbital group  1
 Library entry N      S aug-cc-pVTZ          selected for orbital group  2
 Library entry N      P aug-cc-pVTZ          selected for orbital group  2
 Library entry N      D aug-cc-pVTZ          selected for orbital group  2
 Library entry N      F aug-cc-pVTZ          selected for orbital group  2
 Library entry O      S aug-cc-pVTZ          selected for orbital group  3
 Library entry O      P aug-cc-pVTZ          selected for orbital group  3
 Library entry O      D aug-cc-pVTZ          selected for orbital group  3
 Library entry O      F aug-cc-pVTZ          selected for orbital group  3


 PROGRAM * SEWARD (Integral evaluation for generally contracted gaussian basis sets)     Author: Roland Lindh, 1990

 Geometry written to block  1 of record 700


 Point group  Cs  



 ATOMIC COORDINATES

 NR  ATOM    CHARGE       X              Y              Z

   1  H       1.00    0.000000000    1.680295986   -1.936399108
   2  N       7.00    0.000000000   -0.173701555   -1.143574361
   3  O       8.00    0.000000000    0.035173359    1.129383878

 Bond lengths in Bohr (Angstrom)

 1-2  2.016402232  2-3  2.282535406
     ( 1.067034109)     ( 1.207865720)

 Bond angles

  1-2-3  107.90251459

 NUCLEAR CHARGE:                   16
 NUMBER OF PRIMITIVE AOS:         161
 NUMBER OF SYMMETRY AOS:          141
 NUMBER OF CONTRACTIONS:          115   (  76A'  +  39A"  )
 NUMBER OF CORE ORBITALS:           2   (   2A'  +   0A"  )
 NUMBER OF VALENCE ORBITALS:        9   (   7A'  +   2A"  )


 NUCLEAR REPULSION ENERGY   30.30497083

 Eigenvalues of metric

         1 0.234E-03 0.508E-03 0.182E-02 0.217E-02 0.254E-02 0.359E-02 0.437E-02 0.532E-02
         2 0.396E-02 0.105E-01 0.264E-01 0.376E-01 0.514E-01 0.630E-01 0.827E-01 0.120E+00


 Contracted 2-electron integrals neglected if value below      1.0D-22

       10790064. INTEGRALS WRITTEN OUT IN    2635 BLOCKS ON RECORD 1290 OF FILE 1


 NUMBER OF SORTED TWO-ELECTRON INTEGRALS:   11433631.     BUFFER LENGTH:  32768
 NUMBER OF SEGMENTS:   1  SEGMENT LENGTH:   11433631      RECORD LENGTH: 524288

 Memory used in sort:      11.99 MW

 SORT1 READ    10790064. AND WROTE    10943632. INTEGRALS IN     32 RECORDS. CPU TIME:     0.18 SEC, REAL TIME:     0.27 SEC
 SORT2 READ    10943632. AND WROTE    11433631. INTEGRALS IN      1 RECORDS. CPU TIME:     0.17 SEC, REAL TIME:     0.26 SEC

 FILE SIZES:   FILE 1:   193.0 MBYTE,  FILE 4:   134.3 MBYTE,   TOTAL:    327.2 MBYTE

 OPERATOR DM      FOR CENTER  0  COORDINATES:    0.000000    0.000000    0.000000


 **********************************************************************************************************************************
 DATASETS  * FILE   NREC   LENGTH (MB)   RECORD NAMES
              1      19      111.05       500      610      700      900      950      970     1000      129      960     1100   
                                          VAR    BASINP    GEOM    SYMINP    ZMAT    AOBASIS   BASIS     P2S    ABASIS      S 
                                         1400     1410     1200     1210     1080     1600     1650     1300     1700   
                                           T        V       H0       H01     AOSYM     SMH    MOLCAS    ERIS     OPER   

 PROGRAMS   *        TOTAL       INT
 CPU TIMES  *         1.47      1.37
 REAL TIME  *         2.43 SEC
 DISK USED  *       327.55 MB      
 **********************************************************************************************************************************


 PROGRAM * RHF-SCF (CLOSED SHELL)       Authors: W. Meyer, H.-J. Werner


 NUMBER OF ELECTRONS:       8+    8-
 CONVERGENCE THRESHOLDS:    1.00E-10 (Density)    1.00E-13 (Energy)
 MAX. NUMBER OF ITERATIONS:      500
 INTERPOLATION TYPE:            DIIS
 INTERPOLATION STEPS:              2 (START)      1 (STEP)
 LEVEL SHIFTS:                  0.00 (CLOSED)  0.00 (OPEN) 



 Orbital guess generated from atomic densities. Full valence occupancy:    9   2

 Molecular orbital dump at record        2100.2

 Initial occupancy:   7   1

 ITERATION    DDIFF          GRAD             ENERGY        2-EL.EN.            DIPOLE MOMENTS         DIIS   ORB.
    1      0.000D+00      0.000D+00      -129.78702965    153.769554    0.00000    0.57944   -1.02142    0    start
    2      0.000D+00      0.108D-01      -129.81447896    155.056245    0.00000    0.60964   -0.20241    1    diag
    3      0.120D-01      0.834D-02      -129.83778207    155.163081    0.00000    0.55085   -0.58948    2    diag
    4      0.599D-02      0.128D-02      -129.83857574    154.872702    0.00000    0.55832   -0.52967    3    diag
    5      0.107D-02      0.424D-03      -129.83870453    154.967825    0.00000    0.56411   -0.53256    4    diag
    6      0.454D-03      0.123D-03      -129.83872528    154.952059    0.00000    0.56448   -0.52844    5    diag
    7      0.175D-03      0.610D-04      -129.83873121    154.954642    0.00000    0.56578   -0.52588    6    diag
    8      0.120D-03      0.208D-04      -129.83873184    154.953974    0.00000    0.56581   -0.52488    7    diag
    9      0.450D-04      0.395D-05      -129.83873187    154.953862    0.00000    0.56577   -0.52467    8    diag
   10      0.871D-05      0.901D-06      -129.83873187    154.953841    0.00000    0.56573   -0.52464    9    orth
   11      0.177D-05      0.181D-06      -129.83873187    154.953838    0.00000    0.56573   -0.52463    9    diag
   12      0.346D-06      0.372D-07      -129.83873187    154.953837    0.00000    0.56572   -0.52463    9    diag
   13      0.752D-07      0.948D-08      -129.83873187    154.953837    0.00000    0.56572   -0.52463    9    diag
   14      0.199D-07      0.198D-08      -129.83873187    154.953837    0.00000    0.56572   -0.52463    9    diag
   15      0.396D-08      0.553D-09      -129.83873187    154.953837    0.00000    0.56572   -0.52463    9    diag
   16      0.108D-08      0.151D-09      -129.83873187    154.953837    0.00000    0.56572   -0.52463    9    diag
   17      0.193D-09      0.445D-10      -129.83873187    154.953837    0.00000    0.56572   -0.52463    9    diag
   18      0.556D-10      0.161D-10      -129.83873187    154.953837    0.00000    0.56572   -0.52463    9    diag
   19      0.292D-10      0.355D-11      -129.83873187    154.953837    0.00000    0.56572   -0.52463    0    orth

 Final occupancy:   7   1

 !RHF STATE 1.1 Energy               -129.838731873713
 Nuclear energy                        30.30497083
 One-electron energy                 -237.62062125
 Two-electron energy                   77.47691855
 Virial quotient                       -1.00232077
 !RHF STATE 1.1 Dipole moment           0.00000000     0.56572370    -0.52463138
 Dipole moment /Debye                   0.00000000     1.43783204    -1.33339262

 Orbital energies:

         1.1          2.1          3.1          4.1          5.1          6.1          7.1          8.1          9.1
    -20.656792   -15.716535    -1.530853    -0.991169    -0.745696    -0.666085    -0.429717     0.029196     0.092179

         1.2          2.2          3.2
     -0.596546     0.064954     0.130477

 HOMO      7.1    -0.429717 =     -11.6932eV
 LUMO      8.1     0.029196 =       0.7945eV
 LUMO-HOMO         0.458913 =      12.4877eV


 **********************************************************************************************************************************
 DATASETS  * FILE   NREC   LENGTH (MB)   RECORD NAMES
              1      19      111.05       500      610      700      900      950      970     1000      129      960     1100   
                                          VAR    BASINP    GEOM    SYMINP    ZMAT    AOBASIS   BASIS     P2S    ABASIS      S 
                                         1400     1410     1200     1210     1080     1600     1650     1300     1700   
                                           T        V       H0       H01     AOSYM     SMH    MOLCAS    ERIS     OPER   

              2       4        2.94       700     1000      520     2100   
                                         GEOM     BASIS   MCVARS     RHF  

 PROGRAMS   *        TOTAL        HF       INT
 CPU TIMES  *         2.72      1.25      1.37
 REAL TIME  *         3.92 SEC
 DISK USED  *       327.55 MB      
 **********************************************************************************************************************************


 PROGRAM * CCSD (Closed-shell coupled cluster)     Authors: C. Hampel, H.-J. Werner, 1991, M. Deegan, P.J. Knowles, 1992


 Convergence thresholds:  THRVAR = 1.00D-08  THRDEN = 1.00D-12

 CCSD(T)     terms to be evaluated (factor= 1.000)


 Number of core orbitals:           2 (   2   0 )
 Number of closed-shell orbitals:   6 (   5   1 )
 Number of external orbitals:     107 (  69  38 )

 Molecular orbitals read from record     2100.2  Type=RHF/CANONICAL (state 1.1)

 Number of N-1 electron functions:               6
 Number of N-2 electron functions:              21
 Number of singly external CSFs:               383
 Number of doubly external CSFs:            107206
 Total number of CSFs:                      107590

 Length of J-op  integral file:               0.00 MB
 Length of K-op  integral file:               0.54 MB
 Length of 3-ext integral record:             0.00 MB

 Memory could be reduced to 5.94 Mwords without degradation in triples

 Integral transformation finished. Total CPU:   0.18 sec, npass=  1  Memory used:   1.65 MW

 Reference energy:                   -129.83873187

 MP2 singlet pair energy:              -0.27979270
 MP2 triplet pair energy:              -0.16538820
 MP2 correlation energy:               -0.44518090
 MP2 total energy:                   -130.28391278

 SCS-MP2 correlation energy:           -0.43865946   (PS=  1.200000  PT=  0.333333)
 SCS-MP2 total energy:               -130.27739133

 ITER.      SQ.NORM     CORR.ENERGY   TOTAL ENERGY   ENERGY CHANGE        DEN1      VAR(S)    VAR(P)  DIIS     TIME  TIME/IT
   1      1.12145079    -0.44925853  -130.28799040    -0.00407763     0.01211206  0.32D-02  0.32D-02  1  1     0.38     0.20
   2      1.13266794    -0.44944862  -130.28818049    -0.00019009    -0.01252164  0.10D-03  0.52D-03  2  2     0.56     0.21
   3      1.13924891    -0.44985870  -130.28859058    -0.00041008    -0.00303555  0.56D-04  0.52D-04  3  3     0.75     0.21
   4      1.14216181    -0.44986801  -130.28859989    -0.00000931    -0.00098594  0.44D-05  0.93D-05  4  4     0.94     0.21
   5      1.14323482    -0.44989772  -130.28862960    -0.00002971    -0.00022758  0.12D-05  0.16D-05  5  5     1.14     0.21
   6      1.14358354    -0.44988055  -130.28861242     0.00001718    -0.00004249  0.11D-06  0.39D-06  6  6     1.34     0.22
   7      1.14366024    -0.44988140  -130.28861327    -0.00000085    -0.00000193  0.21D-07  0.91D-07  6  1     1.53     0.22
   8      1.14368281    -0.44988203  -130.28861390    -0.00000063     0.00000122  0.36D-08  0.17D-07  6  2     1.72     0.22
   9      1.14368860    -0.44988153  -130.28861340     0.00000050     0.00000054  0.27D-08  0.19D-08  6  4     1.95     0.23
  10      1.14369101    -0.44988202  -130.28861389    -0.00000049    -0.00000074  0.44D-09  0.22D-09  6  3     2.16     0.23
  11      1.14369051    -0.44988204  -130.28861392    -0.00000002    -0.00000006  0.16D-09  0.34D-10  6  5     2.37     0.23
  12      1.14368942    -0.44988220  -130.28861407    -0.00000015     0.00000034  0.19D-10  0.11D-10  6  6     2.59     0.23
  13      1.14368855    -0.44988223  -130.28861411    -0.00000004     0.00000022  0.66D-11  0.22D-11  6  1     2.80     0.23
  14      1.14368799    -0.44988226  -130.28861414    -0.00000003     0.00000014  0.11D-11  0.68D-12  6  2     3.02     0.23
  15      1.14368775    -0.44988227  -130.28861414    -0.00000001     0.00000003  0.31D-12  0.21D-12  6  4     3.23     0.23
  16      1.14368766    -0.44988227  -130.28861414    -0.00000000     0.00000001  0.59D-13  0.74D-13  6  3     3.46     0.23
  17      1.14368760    -0.44988227  -130.28861415    -0.00000000     0.00000001  0.40D-14  0.18D-13  6  5     3.67     0.23
  18      1.14368759    -0.44988227  -130.28861415     0.00000000    -0.00000000  0.12D-14  0.38D-14  6  6     3.89     0.23
  19      1.14368759    -0.44988227  -130.28861415    -0.00000000     0.00000000  0.10D-14  0.70D-15  6  1     4.11     0.23
  20      1.14368759    -0.44988227  -130.28861415     0.00000000    -0.00000000  0.22D-15  0.13D-15  6  2     4.34     0.23
  21      1.14368759    -0.44988227  -130.28861415     0.00000000    -0.00000000  0.52D-16  0.32D-16  6  3     4.56     0.23
  22      1.14368759    -0.44988227  -130.28861415     0.00000000    -0.00000000  0.62D-17  0.29D-17  6  4     4.77     0.23
  23      1.14368759    -0.44988227  -130.28861415     0.00000000    -0.00000000  0.23D-17  0.59D-18  6  5     4.99     0.24
  24      1.14368759    -0.44988227  -130.28861415     0.00000000     0.00000000  0.16D-18  0.51D-19  6  2     5.19     0.24
  25      1.14368759    -0.44988227  -130.28861415    -0.00000000    -0.00000000  0.23D-19  0.13D-19  6  6     5.41     0.24
  26      1.14368759    -0.44988227  -130.28861415     0.00000000    -0.00000000  0.37D-20  0.22D-20  6  1     5.63     0.24
  27      1.14368759    -0.44988227  -130.28861415    -0.00000000    -0.00000000  0.51D-21  0.50D-21  6  4     5.85     0.24

 Norm of t1 vector:      0.07903509      S-energy:     0.00000000      T1 diagnostic:  0.01613297
                                                                       D1 diagnostic:  0.04208974

 Doubles amplitudes (print threshold =  0.500E-01):

         I         J         SYM. A    SYM. B    A         B      T(IJ, AB)

         6         6         2         2         1         1     -0.10879087


 Total CPU time for triples:      3.12 sec


 RESULTS
 =======

  Reference energy                   -129.838731873713
  CCSD singlet pair energy             -0.308545847941
  CCSD triplet pair energy             -0.141336426055
  CCSD correlation energy              -0.449882273994

  Triples (T) contribution             -0.021008531373
  Total correlation energy             -0.470890805368

  CCSD total energy                  -130.288614147707
  CCSD[T] energy                     -130.310703673498
  CCSD-T energy                      -130.309212549336
 !CCSD(T) total energy               -130.309622679081

 Timing summary (sec):

 STEP                 CPU(USER)    SYS     CPU(TOT)    WALL
 Transformation          0.19      0.04      0.23      0.24
 CCSD iterations         5.66      0.73      6.39      6.40
 Triples                 3.12      0.09      3.21      3.20

 Program statistics:

 Available memory in ccsd:               994999756
 Min. memory needed in ccsd:                389120
 Max. memory used in ccsd:                  473124
 Max. memory used in cckext:                599488 (27 integral passes)



 **********************************************************************************************************************************
 DATASETS  * FILE   NREC   LENGTH (MB)   RECORD NAMES
              1      20      128.20       500      610      700      900      950      970     1000      129      960     1100   
                                          VAR    BASINP    GEOM    SYMINP    ZMAT    AOBASIS   BASIS     P2S    ABASIS      S 
                                         1400     1410     1200     1210     1080     1600     1650     1300     1700     1380   
                                           T        V       H0       H01     AOSYM     SMH    MOLCAS    ERIS     OPER     JKOP   

              2       4        2.94       700     1000      520     2100   
                                         GEOM     BASIS   MCVARS     RHF  

 PROGRAMS   *        TOTAL   CCSD(T)        HF       INT
 CPU TIMES  *        11.71      8.99      1.25      1.37
 REAL TIME  *        14.19 SEC
 DISK USED  *       327.55 MB      
 **********************************************************************************************************************************

 CCSD(T)/aug-cc-pVTZ energy=   -130.309622679081

        CCSD(T)         HF-SCF  
   -130.30962268   -129.83873187
 **********************************************************************************************************************************
 Molpro calculation terminated
 Variable memory released
