
 Primary working directories    : /tmp/r2666/282206.maple
 Secondary working directories  : /tmp/r2666/282206.maple
 Wavefunction directory         : /ddn/home4/r2666/wfu/
 Main file repository           : /tmp/r2666/282206.maple/

 SHA1      : d5ffa45e93fdbca01ffc919aa182cfdae0147319
 NAME      : 2015.1.35
 ARCHNAME  : linux/x86_64
 FC        : /opt/intel/composer_xe_2015.1.133/bin/intel64/ifort
 BLASLIB   : -Wl,-_start-group /opt/intel/mkl/lib/intel64/libmkl_intel_ilp64.a /opt/intel/mkl/lib/intel64/libmkl_intel_thread.a /opt/intel/mkl/lib/intel64/libmkl_core.a -Wl,-_end-group
 id        : olemiss

 Nodes     nprocs
 cn084        1

 Using customized tuning parameters: mindgm=1; mindgv=20; mindgc=4; mindgr=1; noblas=0; minvec=7
 default implementation of scratch files=df  

 ***,hno CCSD(T)/TZ-F12 QFF
 memory, 995, m;
 gthresh,energy=1.d-12,zero=1.d-22,oneint=1.d-22,twoint=1.d-22;
 gthresh,optgrad=1.d-8,optstep=1.d-8;
 nocompress;
 geomtyp=xyz
 bohr
 geometry={
 3
        103       103
 H        0.0000000000        1.6719932434       -1.9313649475
 N        0.0000000000       -0.1668070837       -1.1510832866
 O        0.0000000000        0.0365816303        1.1318586430
 }
 
 basis=avtz
   {hf,maxit=500;accu,20;}
 {ccsd(t),nocheck,maxit=250;orbital,IGNORE_ERROR;}

 Variables initialized (889), CPU time= 0.01 sec
 Commands  initialized (702), CPU time= 0.01 sec, 572 directives.
 Default parameters read. Elapsed time= 0.04 sec

 Checking input...
 Passed
1


                                         ***  PROGRAM SYSTEM MOLPRO  ***
                                       Copyright, TTI GmbH Stuttgart, 2015
                                    Version 2015.1 linked Jul  9 2018 13:16:40


 **********************************************************************************************************************************
 LABEL *   hno CCSD(T)/TZ-F12 QFF                                                        
  64 bit serial version                                                                  DATE: 04-Mar-20          TIME: 13:46:40  
 **********************************************************************************************************************************

 SHA1:             d5ffa45e93fdbca01ffc919aa182cfdae0147319
 **********************************************************************************************************************************

 THRESHOLDS:

 ZERO    =  1.00D-22  ONEINT  =  1.00D-22  TWOINT  =  1.00D-22  PREFAC  =  1.00D-14  LOCALI  =  1.00D-09  EORDER  =  1.00D-04
 ENERGY  =  1.00D-12  ETEST   =  0.00D+00  EDENS   =  0.00D+00  THRDEDEF=  1.00D-06  GRADIENT=  1.00D-02  STEP    =  1.00D-03
 ORBITAL =  1.00D-05  CIVEC   =  1.00D-05  COEFF   =  1.00D-04  PRINTCI =  5.00D-02  PUNCHCI =  9.90D+01  OPTGRAD =  3.00D-04
 OPTENERG=  1.00D-06  OPTSTEP =  3.00D-04  THRGRAD =  1.00D-10  COMPRESS=  1.00D-11  VARMIN  =  1.00D-07  VARMAX  =  1.00D-03
 THRDOUB =  0.00D+00  THRDIV  =  1.00D-05  THRRED  =  1.00D-07  THRPSP  =  1.00D+00  THRDC   =  1.00D-10  THRCS   =  1.00D-10
 THRNRM  =  1.00D-08  THREQ   =  0.00D+00  THRDE   =  1.00D+00  THRREF  =  1.00D-05  SPARFAC =  1.00D+00  THRDLP  =  1.00D-07
 THRDIA  =  1.00D-10  THRDLS  =  1.00D-07  THRGPS  =  0.00D+00  THRKEX  =  0.00D+00  THRDIS  =  2.00D-01  THRVAR  =  1.00D-10
 THRLOC  =  1.00D-06  THRGAP  =  1.00D-06  THRLOCT = -1.00D+00  THRGAPT = -1.00D+00  THRORB  =  1.00D-06  THRMLTP =  0.00D+00
 THRCPQCI=  1.00D-10  KEXTA   =  0.00D+00  THRCOARS=  0.00D+00  SYMTOL  =  1.00D-06  GRADTOL =  1.00D-06  THROVL  =  1.00D-08
 THRORTH =  1.00D-08  GRID    =  1.00D-06  GRIDMAX =  1.00D-03  DTMAX   =  0.00D+00  THROCCDE=  1.00D-01  THROCCDE=  1.00D-01



 THRESHOLDS:

 ZERO    =  1.00D-22  ONEINT  =  1.00D-22  TWOINT  =  1.00D-22  PREFAC  =  1.00D-14  LOCALI  =  1.00D-09  EORDER  =  1.00D-04
 ENERGY  =  1.00D-12  ETEST   =  0.00D+00  EDENS   =  0.00D+00  THRDEDEF=  1.00D-06  GRADIENT=  1.00D-02  STEP    =  1.00D-03
 ORBITAL =  1.00D-05  CIVEC   =  1.00D-05  COEFF   =  1.00D-04  PRINTCI =  5.00D-02  PUNCHCI =  9.90D+01  OPTGRAD =  1.00D-08
 OPTENERG=  1.00D-06  OPTSTEP =  1.00D-08  THRGRAD =  1.00D-10  COMPRESS=  1.00D-11  VARMIN  =  1.00D-07  VARMAX  =  1.00D-03
 THRDOUB =  0.00D+00  THRDIV  =  1.00D-05  THRRED  =  1.00D-07  THRPSP  =  1.00D+00  THRDC   =  1.00D-10  THRCS   =  1.00D-10
 THRNRM  =  1.00D-08  THREQ   =  0.00D+00  THRDE   =  1.00D+00  THRREF  =  1.00D-05  SPARFAC =  1.00D+00  THRDLP  =  1.00D-07
 THRDIA  =  1.00D-10  THRDLS  =  1.00D-07  THRGPS  =  0.00D+00  THRKEX  =  0.00D+00  THRDIS  =  2.00D-01  THRVAR  =  1.00D-10
 THRLOC  =  1.00D-06  THRGAP  =  1.00D-06  THRLOCT = -1.00D+00  THRGAPT = -1.00D+00  THRORB  =  1.00D-06  THRMLTP =  0.00D+00
 THRCPQCI=  1.00D-10  KEXTA   =  0.00D+00  THRCOARS=  0.00D+00  SYMTOL  =  1.00D-06  GRADTOL =  1.00D-06  THROVL  =  1.00D-08
 THRORTH =  1.00D-08  GRID    =  1.00D-06  GRIDMAX =  1.00D-03  DTMAX   =  0.00D+00  THROCCDE=  1.00D-01  THROCCDE=  1.00D-01



 Input parameters for SORTINT:

 COMPRESS =    0.000000
 C_FINAL  =    1.000000
 DEBUG    =   -1.000000
 C_SORT1  =    0.000000
 C_SEWARD =    0.000000
 THRESH   =    0.000000
 IO       =  molpro                                                          
 SPRI     =    0.000000
 SETTING GEOMTYP        =    XYZ
 ZUNIT=BOHR
 

 Variable memory set to  995000000 words,  buffer space   230000 words

 SETTING BASIS          =    AVTZ


 Recomputing integrals since basis changed


 Using spherical harmonics

 Library entry H      S aug-cc-pVTZ          selected for orbital group  1
 Library entry H      P aug-cc-pVTZ          selected for orbital group  1
 Library entry H      D aug-cc-pVTZ          selected for orbital group  1
 Library entry N      S aug-cc-pVTZ          selected for orbital group  2
 Library entry N      P aug-cc-pVTZ          selected for orbital group  2
 Library entry N      D aug-cc-pVTZ          selected for orbital group  2
 Library entry N      F aug-cc-pVTZ          selected for orbital group  2
 Library entry O      S aug-cc-pVTZ          selected for orbital group  3
 Library entry O      P aug-cc-pVTZ          selected for orbital group  3
 Library entry O      D aug-cc-pVTZ          selected for orbital group  3
 Library entry O      F aug-cc-pVTZ          selected for orbital group  3


 PROGRAM * SEWARD (Integral evaluation for generally contracted gaussian basis sets)     Author: Roland Lindh, 1990

 Geometry written to block  1 of record 700


 Point group  Cs  



 ATOMIC COORDINATES

 NR  ATOM    CHARGE       X              Y              Z

   1  H       1.00    0.000000000    1.671993243   -1.931364948
   2  N       7.00    0.000000000   -0.166807084   -1.151083287
   3  O       8.00    0.000000000    0.036581630    1.131858643

 Bond lengths in Bohr (Angstrom)

 1-2  1.997504972  2-3  2.291984036
     ( 1.057034110)     ( 1.212865720)

 Bond angles

  1-2-3  107.90251459

 NUCLEAR CHARGE:                   16
 NUMBER OF PRIMITIVE AOS:         161
 NUMBER OF SYMMETRY AOS:          141
 NUMBER OF CONTRACTIONS:          115   (  76A'  +  39A"  )
 NUMBER OF CORE ORBITALS:           2   (   2A'  +   0A"  )
 NUMBER OF VALENCE ORBITALS:        9   (   7A'  +   2A"  )


 NUCLEAR REPULSION ENERGY   30.24120048

 Eigenvalues of metric

         1 0.234E-03 0.505E-03 0.182E-02 0.216E-02 0.258E-02 0.366E-02 0.434E-02 0.523E-02
         2 0.401E-02 0.103E-01 0.265E-01 0.374E-01 0.514E-01 0.626E-01 0.829E-01 0.120E+00


 Contracted 2-electron integrals neglected if value below      1.0D-22

       10790064. INTEGRALS WRITTEN OUT IN    2635 BLOCKS ON RECORD 1290 OF FILE 1


 NUMBER OF SORTED TWO-ELECTRON INTEGRALS:   11433631.     BUFFER LENGTH:  32768
 NUMBER OF SEGMENTS:   1  SEGMENT LENGTH:   11433631      RECORD LENGTH: 524288

 Memory used in sort:      11.99 MW

 SORT1 READ    10790064. AND WROTE    10943632. INTEGRALS IN     32 RECORDS. CPU TIME:     0.14 SEC, REAL TIME:     0.22 SEC
 SORT2 READ    10943632. AND WROTE    11433631. INTEGRALS IN      1 RECORDS. CPU TIME:     0.16 SEC, REAL TIME:     0.22 SEC

 FILE SIZES:   FILE 1:   193.0 MBYTE,  FILE 4:   134.3 MBYTE,   TOTAL:    327.2 MBYTE

 OPERATOR DM      FOR CENTER  0  COORDINATES:    0.000000    0.000000    0.000000


 **********************************************************************************************************************************
 DATASETS  * FILE   NREC   LENGTH (MB)   RECORD NAMES
              1      19      111.05       500      610      700      900      950      970     1000      129      960     1100   
                                          VAR    BASINP    GEOM    SYMINP    ZMAT    AOBASIS   BASIS     P2S    ABASIS      S 
                                         1400     1410     1200     1210     1080     1600     1650     1300     1700   
                                           T        V       H0       H01     AOSYM     SMH    MOLCAS    ERIS     OPER   

 PROGRAMS   *        TOTAL       INT
 CPU TIMES  *         1.26      1.17
 REAL TIME  *         1.92 SEC
 DISK USED  *       327.55 MB      
 **********************************************************************************************************************************


 PROGRAM * RHF-SCF (CLOSED SHELL)       Authors: W. Meyer, H.-J. Werner


 NUMBER OF ELECTRONS:       8+    8-
 CONVERGENCE THRESHOLDS:    1.00E-10 (Density)    1.00E-13 (Energy)
 MAX. NUMBER OF ITERATIONS:      500
 INTERPOLATION TYPE:            DIIS
 INTERPOLATION STEPS:              2 (START)      1 (STEP)
 LEVEL SHIFTS:                  0.00 (CLOSED)  0.00 (OPEN) 



 Orbital guess generated from atomic densities. Full valence occupancy:    9   2

 Molecular orbital dump at record        2100.2

 Initial occupancy:   7   1

 ITERATION    DDIFF          GRAD             ENERGY        2-EL.EN.            DIPOLE MOMENTS         DIIS   ORB.
    1      0.000D+00      0.000D+00      -129.78650397    153.664730    0.00000    0.58846   -1.03698    0    start
    2      0.000D+00      0.108D-01      -129.81380153    154.927827    0.00000    0.61376   -0.20420    1    diag
    3      0.120D-01      0.840D-02      -129.83750790    155.049474    0.00000    0.55676   -0.59828    2    diag
    4      0.603D-02      0.128D-02      -129.83831011    154.756669    0.00000    0.56419   -0.53767    3    diag
    5      0.108D-02      0.425D-03      -129.83843897    154.851414    0.00000    0.56982   -0.54040    4    diag
    6      0.455D-03      0.123D-03      -129.83845962    154.835704    0.00000    0.57017   -0.53621    5    diag
    7      0.174D-03      0.612D-04      -129.83846562    154.838190    0.00000    0.57142   -0.53357    6    diag
    8      0.121D-03      0.211D-04      -129.83846629    154.837513    0.00000    0.57144   -0.53254    7    diag
    9      0.463D-04      0.403D-05      -129.83846632    154.837399    0.00000    0.57140   -0.53231    8    diag
   10      0.901D-05      0.908D-06      -129.83846632    154.837380    0.00000    0.57136   -0.53229    9    orth
   11      0.179D-05      0.180D-06      -129.83846632    154.837377    0.00000    0.57136   -0.53228    9    diag
   12      0.341D-06      0.374D-07      -129.83846632    154.837376    0.00000    0.57136   -0.53228    9    diag
   13      0.737D-07      0.957D-08      -129.83846632    154.837376    0.00000    0.57136   -0.53228    9    diag
   14      0.196D-07      0.197D-08      -129.83846632    154.837376    0.00000    0.57136   -0.53228    9    diag
   15      0.382D-08      0.544D-09      -129.83846632    154.837376    0.00000    0.57136   -0.53228    9    diag
   16      0.104D-08      0.145D-09      -129.83846632    154.837376    0.00000    0.57136   -0.53228    9    diag
   17      0.178D-09      0.404D-10      -129.83846632    154.837376    0.00000    0.57136   -0.53228    9    diag
   18      0.491D-10      0.143D-10      -129.83846632    154.837376    0.00000    0.57136   -0.53228    9    diag
   19      0.254D-10      0.305D-11      -129.83846632    154.837376    0.00000    0.57136   -0.53228    9    fixocc
   20      0.601D-11      0.540D-12      -129.83846632    154.837376    0.00000    0.57136   -0.53228    9    orth
   21      0.315D-11      0.197D-12      -129.83846632    154.837376    0.00000    0.57136   -0.53228    9    diag
   22      0.196D-11      0.769D-13      -129.83846632    154.837376    0.00000    0.57136   -0.53228    9    diag
   23      0.104D-11      0.476D-13      -129.83846632    154.837376    0.00000    0.57136   -0.53228    9    diag
   24      0.327D-12      0.624D-13      -129.83846632    154.837376    0.00000    0.57136   -0.53228    0    orth

 Final occupancy:   7   1

 !RHF STATE 1.1 Energy               -129.838466321606
 Nuclear energy                        30.24120048
 One-electron energy                 -237.49835491
 Two-electron energy                   77.41868811
 Virial quotient                       -1.00235484
 !RHF STATE 1.1 Dipole moment           0.00000000     0.57135554    -0.53228285
 Dipole moment /Debye                   0.00000000     1.45214581    -1.35283945

 Orbital energies:

         1.1          2.1          3.1          4.1          5.1          6.1          7.1          8.1          9.1
    -20.657056   -15.716039    -1.526862    -0.994767    -0.745269    -0.664638    -0.431843     0.029132     0.092163

         1.2          2.2          3.2
     -0.594016     0.063556     0.130172

 HOMO      7.1    -0.431843 =     -11.7510eV
 LUMO      8.1     0.029132 =       0.7927eV
 LUMO-HOMO         0.460974 =      12.5437eV


 **********************************************************************************************************************************
 DATASETS  * FILE   NREC   LENGTH (MB)   RECORD NAMES
              1      19      111.05       500      610      700      900      950      970     1000      129      960     1100   
                                          VAR    BASINP    GEOM    SYMINP    ZMAT    AOBASIS   BASIS     P2S    ABASIS      S 
                                         1400     1410     1200     1210     1080     1600     1650     1300     1700   
                                           T        V       H0       H01     AOSYM     SMH    MOLCAS    ERIS     OPER   

              2       4        2.94       700     1000      520     2100   
                                         GEOM     BASIS   MCVARS     RHF  

 PROGRAMS   *        TOTAL        HF       INT
 CPU TIMES  *         2.49      1.23      1.17
 REAL TIME  *         3.46 SEC
 DISK USED  *       327.55 MB      
 **********************************************************************************************************************************


 PROGRAM * CCSD (Closed-shell coupled cluster)     Authors: C. Hampel, H.-J. Werner, 1991, M. Deegan, P.J. Knowles, 1992


 Convergence thresholds:  THRVAR = 1.00D-08  THRDEN = 1.00D-12

 CCSD(T)     terms to be evaluated (factor= 1.000)


 Number of core orbitals:           2 (   2   0 )
 Number of closed-shell orbitals:   6 (   5   1 )
 Number of external orbitals:     107 (  69  38 )

 Molecular orbitals read from record     2100.2  Type=RHF/CANONICAL (state 1.1)

 Number of N-1 electron functions:               6
 Number of N-2 electron functions:              21
 Number of singly external CSFs:               383
 Number of doubly external CSFs:            107206
 Total number of CSFs:                      107590

 Length of J-op  integral file:               0.00 MB
 Length of K-op  integral file:               0.54 MB
 Length of 3-ext integral record:             0.00 MB

 Memory could be reduced to 5.94 Mwords without degradation in triples

 Integral transformation finished. Total CPU:   0.12 sec, npass=  1  Memory used:   1.65 MW

 Reference energy:                   -129.83846632

 MP2 singlet pair energy:              -0.28007881
 MP2 triplet pair energy:              -0.16559999
 MP2 correlation energy:               -0.44567880
 MP2 total energy:                   -130.28414512

 SCS-MP2 correlation energy:           -0.43913457   (PS=  1.200000  PT=  0.333333)
 SCS-MP2 total energy:               -130.27760089

 ITER.      SQ.NORM     CORR.ENERGY   TOTAL ENERGY   ENERGY CHANGE        DEN1      VAR(S)    VAR(P)  DIIS     TIME  TIME/IT
   1      1.12164878    -0.44958605  -130.28805237    -0.00390725     0.01240468  0.32D-02  0.32D-02  1  1     0.27     0.16
   2      1.13292400    -0.44974249  -130.28820881    -0.00015644    -0.01258971  0.10D-03  0.52D-03  2  2     0.42     0.16
   3      1.13955013    -0.45015409  -130.28862041    -0.00041160    -0.00304685  0.56D-04  0.52D-04  3  3     0.58     0.16
   4      1.14250616    -0.45016524  -130.28863156    -0.00001115    -0.00099581  0.44D-05  0.94D-05  4  4     0.72     0.16
   5      1.14359424    -0.45019528  -130.28866160    -0.00003004    -0.00023025  0.12D-05  0.16D-05  5  5     0.87     0.16
   6      1.14394607    -0.45017758  -130.28864390     0.00001770    -0.00004314  0.11D-06  0.39D-06  6  6     1.02     0.16
   7      1.14402116    -0.45017875  -130.28864507    -0.00000116    -0.00000162  0.19D-07  0.93D-07  6  1     1.16     0.16
   8      1.14404301    -0.45017936  -130.28864568    -0.00000061     0.00000144  0.35D-08  0.17D-07  6  2     1.30     0.16
   9      1.14404854    -0.45017888  -130.28864520     0.00000048     0.00000049  0.28D-08  0.20D-08  6  4     1.45     0.16
  10      1.14405097    -0.45017937  -130.28864569    -0.00000049    -0.00000075  0.46D-09  0.23D-09  6  3     1.60     0.16
  11      1.14405049    -0.45017939  -130.28864571    -0.00000002    -0.00000008  0.16D-09  0.35D-10  6  5     1.74     0.16
  12      1.14404940    -0.45017955  -130.28864587    -0.00000016     0.00000034  0.19D-10  0.11D-10  6  6     1.88     0.16
  13      1.14404852    -0.45017959  -130.28864591    -0.00000004     0.00000022  0.66D-11  0.23D-11  6  1     2.02     0.16
  14      1.14404795    -0.45017962  -130.28864594    -0.00000003     0.00000014  0.10D-11  0.73D-12  6  2     2.16     0.16
  15      1.14404771    -0.45017963  -130.28864595    -0.00000001     0.00000004  0.29D-12  0.23D-12  6  4     2.31     0.16
  16      1.14404761    -0.45017963  -130.28864595    -0.00000000     0.00000001  0.55D-13  0.79D-13  6  3     2.45     0.16
  17      1.14404755    -0.45017963  -130.28864595    -0.00000000     0.00000001  0.40D-14  0.19D-13  6  5     2.59     0.16
  18      1.14404754    -0.45017963  -130.28864595     0.00000000    -0.00000000  0.13D-14  0.40D-14  6  6     2.73     0.16
  19      1.14404754    -0.45017963  -130.28864595    -0.00000000     0.00000000  0.11D-14  0.72D-15  6  1     2.88     0.16
  20      1.14404754    -0.45017963  -130.28864595     0.00000000    -0.00000000  0.23D-15  0.13D-15  6  2     3.02     0.16
  21      1.14404754    -0.45017963  -130.28864595     0.00000000    -0.00000000  0.57D-16  0.32D-16  6  3     3.17     0.16
  22      1.14404754    -0.45017963  -130.28864595     0.00000000    -0.00000000  0.64D-17  0.29D-17  6  4     3.31     0.16
  23      1.14404754    -0.45017963  -130.28864595     0.00000000    -0.00000000  0.24D-17  0.60D-18  6  5     3.48     0.16
  24      1.14404754    -0.45017963  -130.28864595     0.00000000     0.00000000  0.16D-18  0.53D-19  6  2     3.62     0.16
  25      1.14404754    -0.45017963  -130.28864595    -0.00000000    -0.00000000  0.24D-19  0.13D-19  6  6     3.76     0.16
  26      1.14404754    -0.45017963  -130.28864595     0.00000000    -0.00000000  0.37D-20  0.24D-20  6  1     3.89     0.16
  27      1.14404754    -0.45017963  -130.28864595    -0.00000000    -0.00000000  0.51D-21  0.57D-21  6  4     4.04     0.16

 Norm of t1 vector:      0.07939613      S-energy:    -0.00000000      T1 diagnostic:  0.01620667
                                                                       D1 diagnostic:  0.04274241

 Doubles amplitudes (print threshold =  0.500E-01):

         I         J         SYM. A    SYM. B    A         B      T(IJ, AB)

         6         6         2         2         1         1     -0.11105897


 Total CPU time for triples:      1.09 sec


 RESULTS
 =======

  Reference energy                   -129.838466321606
  CCSD singlet pair energy             -0.308805712114
  CCSD triplet pair energy             -0.141373918617
  CCSD correlation energy              -0.450179630731

  Triples (T) contribution             -0.021096292905
  Total correlation energy             -0.471275923636

  CCSD total energy                  -130.288645952337
  CCSD[T] energy                     -130.310834382674
  CCSD-T energy                      -130.309331094287
 !CCSD(T) total energy               -130.309742245242

 Timing summary (sec):

 STEP                 CPU(USER)    SYS     CPU(TOT)    WALL
 Transformation          0.13      0.05      0.18      0.33
 CCSD iterations         3.91      0.51      4.42      4.43
 Triples                 1.09      0.02      1.11      1.11

 Program statistics:

 Available memory in ccsd:               994999756
 Min. memory needed in ccsd:                389120
 Max. memory used in ccsd:                  473124
 Max. memory used in cckext:                599488 (27 integral passes)



 **********************************************************************************************************************************
 DATASETS  * FILE   NREC   LENGTH (MB)   RECORD NAMES
              1      20      128.20       500      610      700      900      950      970     1000      129      960     1100   
                                          VAR    BASINP    GEOM    SYMINP    ZMAT    AOBASIS   BASIS     P2S    ABASIS      S 
                                         1400     1410     1200     1210     1080     1600     1650     1300     1700     1380   
                                           T        V       H0       H01     AOSYM     SMH    MOLCAS    ERIS     OPER     JKOP   

              2       4        2.94       700     1000      520     2100   
                                         GEOM     BASIS   MCVARS     RHF  

 PROGRAMS   *        TOTAL   CCSD(T)        HF       INT
 CPU TIMES  *         7.66      5.17      1.23      1.17
 REAL TIME  *         9.40 SEC
 DISK USED  *       327.55 MB      
 **********************************************************************************************************************************

 CCSD(T)/aug-cc-pVTZ energy=   -130.309742245242

        CCSD(T)         HF-SCF  
   -130.30974225   -129.83846632
 **********************************************************************************************************************************
 Molpro calculation terminated
 Variable memory released
