
 Primary working directories    : /tmp/r2666/282134.maple
 Secondary working directories  : /tmp/r2666/282134.maple
 Wavefunction directory         : /ddn/home4/r2666/wfu/
 Main file repository           : /tmp/r2666/282134.maple/

 SHA1      : d5ffa45e93fdbca01ffc919aa182cfdae0147319
 NAME      : 2015.1.35
 ARCHNAME  : linux/x86_64
 FC        : /opt/intel/composer_xe_2015.1.133/bin/intel64/ifort
 BLASLIB   : -Wl,-_start-group /opt/intel/mkl/lib/intel64/libmkl_intel_ilp64.a /opt/intel/mkl/lib/intel64/libmkl_intel_thread.a /opt/intel/mkl/lib/intel64/libmkl_core.a -Wl,-_end-group
 id        : olemiss

 Nodes     nprocs
 cn074        1

 Using customized tuning parameters: mindgm=1; mindgv=20; mindgc=4; mindgr=1; noblas=0; minvec=7
 default implementation of scratch files=df  

 ***,hno CCSD(T)/TZ-F12 QFF
 memory, 995, m;
 gthresh,energy=1.d-12,zero=1.d-22,oneint=1.d-22,twoint=1.d-22;
 gthresh,optgrad=1.d-8,optstep=1.d-8;
 nocompress;
 geomtyp=xyz
 bohr
 geometry={
 3
         31        31
 H        0.0000000000        1.6618517524       -1.9184837101
 N        0.0000000000       -0.1625589385       -1.1527069088
 O        0.0000000000        0.0424749761        1.1206010280
 }
 
 basis=avtz
   {hf,maxit=500;accu,20;}
 {ccsd(t),nocheck,maxit=250;orbital,IGNORE_ERROR;}

 Variables initialized (889), CPU time= 0.01 sec
 Commands  initialized (702), CPU time= 0.01 sec, 572 directives.
 Default parameters read. Elapsed time= 0.05 sec

 Checking input...
 Passed
1


                                         ***  PROGRAM SYSTEM MOLPRO  ***
                                       Copyright, TTI GmbH Stuttgart, 2015
                                    Version 2015.1 linked Jul  9 2018 13:16:40


 **********************************************************************************************************************************
 LABEL *   hno CCSD(T)/TZ-F12 QFF                                                        
  64 bit serial version                                                                  DATE: 04-Mar-20          TIME: 13:46:04  
 **********************************************************************************************************************************

 SHA1:             d5ffa45e93fdbca01ffc919aa182cfdae0147319
 **********************************************************************************************************************************

 THRESHOLDS:

 ZERO    =  1.00D-22  ONEINT  =  1.00D-22  TWOINT  =  1.00D-22  PREFAC  =  1.00D-14  LOCALI  =  1.00D-09  EORDER  =  1.00D-04
 ENERGY  =  1.00D-12  ETEST   =  0.00D+00  EDENS   =  0.00D+00  THRDEDEF=  1.00D-06  GRADIENT=  1.00D-02  STEP    =  1.00D-03
 ORBITAL =  1.00D-05  CIVEC   =  1.00D-05  COEFF   =  1.00D-04  PRINTCI =  5.00D-02  PUNCHCI =  9.90D+01  OPTGRAD =  3.00D-04
 OPTENERG=  1.00D-06  OPTSTEP =  3.00D-04  THRGRAD =  1.00D-10  COMPRESS=  1.00D-11  VARMIN  =  1.00D-07  VARMAX  =  1.00D-03
 THRDOUB =  0.00D+00  THRDIV  =  1.00D-05  THRRED  =  1.00D-07  THRPSP  =  1.00D+00  THRDC   =  1.00D-10  THRCS   =  1.00D-10
 THRNRM  =  1.00D-08  THREQ   =  0.00D+00  THRDE   =  1.00D+00  THRREF  =  1.00D-05  SPARFAC =  1.00D+00  THRDLP  =  1.00D-07
 THRDIA  =  1.00D-10  THRDLS  =  1.00D-07  THRGPS  =  0.00D+00  THRKEX  =  0.00D+00  THRDIS  =  2.00D-01  THRVAR  =  1.00D-10
 THRLOC  =  1.00D-06  THRGAP  =  1.00D-06  THRLOCT = -1.00D+00  THRGAPT = -1.00D+00  THRORB  =  1.00D-06  THRMLTP =  0.00D+00
 THRCPQCI=  1.00D-10  KEXTA   =  0.00D+00  THRCOARS=  0.00D+00  SYMTOL  =  1.00D-06  GRADTOL =  1.00D-06  THROVL  =  1.00D-08
 THRORTH =  1.00D-08  GRID    =  1.00D-06  GRIDMAX =  1.00D-03  DTMAX   =  0.00D+00  THROCCDE=  1.00D-01  THROCCDE=  1.00D-01



 THRESHOLDS:

 ZERO    =  1.00D-22  ONEINT  =  1.00D-22  TWOINT  =  1.00D-22  PREFAC  =  1.00D-14  LOCALI  =  1.00D-09  EORDER  =  1.00D-04
 ENERGY  =  1.00D-12  ETEST   =  0.00D+00  EDENS   =  0.00D+00  THRDEDEF=  1.00D-06  GRADIENT=  1.00D-02  STEP    =  1.00D-03
 ORBITAL =  1.00D-05  CIVEC   =  1.00D-05  COEFF   =  1.00D-04  PRINTCI =  5.00D-02  PUNCHCI =  9.90D+01  OPTGRAD =  1.00D-08
 OPTENERG=  1.00D-06  OPTSTEP =  1.00D-08  THRGRAD =  1.00D-10  COMPRESS=  1.00D-11  VARMIN  =  1.00D-07  VARMAX  =  1.00D-03
 THRDOUB =  0.00D+00  THRDIV  =  1.00D-05  THRRED  =  1.00D-07  THRPSP  =  1.00D+00  THRDC   =  1.00D-10  THRCS   =  1.00D-10
 THRNRM  =  1.00D-08  THREQ   =  0.00D+00  THRDE   =  1.00D+00  THRREF  =  1.00D-05  SPARFAC =  1.00D+00  THRDLP  =  1.00D-07
 THRDIA  =  1.00D-10  THRDLS  =  1.00D-07  THRGPS  =  0.00D+00  THRKEX  =  0.00D+00  THRDIS  =  2.00D-01  THRVAR  =  1.00D-10
 THRLOC  =  1.00D-06  THRGAP  =  1.00D-06  THRLOCT = -1.00D+00  THRGAPT = -1.00D+00  THRORB  =  1.00D-06  THRMLTP =  0.00D+00
 THRCPQCI=  1.00D-10  KEXTA   =  0.00D+00  THRCOARS=  0.00D+00  SYMTOL  =  1.00D-06  GRADTOL =  1.00D-06  THROVL  =  1.00D-08
 THRORTH =  1.00D-08  GRID    =  1.00D-06  GRIDMAX =  1.00D-03  DTMAX   =  0.00D+00  THROCCDE=  1.00D-01  THROCCDE=  1.00D-01



 Input parameters for SORTINT:

 COMPRESS =    0.000000
 C_FINAL  =    1.000000
 DEBUG    =   -1.000000
 C_SORT1  =    0.000000
 C_SEWARD =    0.000000
 THRESH   =    0.000000
 IO       =  molpro                                                          
 SPRI     =    0.000000
 SETTING GEOMTYP        =    XYZ
 ZUNIT=BOHR
 

 Variable memory set to  995000000 words,  buffer space   230000 words

 SETTING BASIS          =    AVTZ


 Recomputing integrals since basis changed


 Using spherical harmonics

 Library entry H      S aug-cc-pVTZ          selected for orbital group  1
 Library entry H      P aug-cc-pVTZ          selected for orbital group  1
 Library entry H      D aug-cc-pVTZ          selected for orbital group  1
 Library entry N      S aug-cc-pVTZ          selected for orbital group  2
 Library entry N      P aug-cc-pVTZ          selected for orbital group  2
 Library entry N      D aug-cc-pVTZ          selected for orbital group  2
 Library entry N      F aug-cc-pVTZ          selected for orbital group  2
 Library entry O      S aug-cc-pVTZ          selected for orbital group  3
 Library entry O      P aug-cc-pVTZ          selected for orbital group  3
 Library entry O      D aug-cc-pVTZ          selected for orbital group  3
 Library entry O      F aug-cc-pVTZ          selected for orbital group  3


 PROGRAM * SEWARD (Integral evaluation for generally contracted gaussian basis sets)     Author: Roland Lindh, 1990

 Geometry written to block  1 of record 700


 Point group  Cs  



 ATOMIC COORDINATES

 NR  ATOM    CHARGE       X              Y              Z

   1  H       1.00    0.000000000    1.661851752   -1.918483710
   2  N       7.00    0.000000000   -0.162558938   -1.152706909
   3  O       8.00    0.000000000    0.042474976    1.120601028

 Bond lengths in Bohr (Angstrom)

 1-2  1.978607712  2-3  2.282535406
     ( 1.047034111)     ( 1.207865720)

 Bond angles

  1-2-3  107.61603569

 NUCLEAR CHARGE:                   16
 NUMBER OF PRIMITIVE AOS:         161
 NUMBER OF SYMMETRY AOS:          141
 NUMBER OF CONTRACTIONS:          115   (  76A'  +  39A"  )
 NUMBER OF CORE ORBITALS:           2   (   2A'  +   0A"  )
 NUMBER OF VALENCE ORBITALS:        9   (   7A'  +   2A"  )


 NUCLEAR REPULSION ENERGY   30.39510897

 Eigenvalues of metric

         1 0.231E-03 0.499E-03 0.179E-02 0.211E-02 0.253E-02 0.358E-02 0.428E-02 0.511E-02
         2 0.395E-02 0.100E-01 0.261E-01 0.371E-01 0.513E-01 0.619E-01 0.817E-01 0.119E+00


 Contracted 2-electron integrals neglected if value below      1.0D-22

       10790064. INTEGRALS WRITTEN OUT IN    2635 BLOCKS ON RECORD 1290 OF FILE 1


 NUMBER OF SORTED TWO-ELECTRON INTEGRALS:   11433631.     BUFFER LENGTH:  32768
 NUMBER OF SEGMENTS:   1  SEGMENT LENGTH:   11433631      RECORD LENGTH: 524288

 Memory used in sort:      11.99 MW

 SORT1 READ    10790064. AND WROTE    10943632. INTEGRALS IN     32 RECORDS. CPU TIME:     0.14 SEC, REAL TIME:     0.21 SEC
 SORT2 READ    10943632. AND WROTE    11433631. INTEGRALS IN      1 RECORDS. CPU TIME:     0.17 SEC, REAL TIME:     0.23 SEC

 FILE SIZES:   FILE 1:   193.0 MBYTE,  FILE 4:   134.3 MBYTE,   TOTAL:    327.2 MBYTE

 OPERATOR DM      FOR CENTER  0  COORDINATES:    0.000000    0.000000    0.000000


 **********************************************************************************************************************************
 DATASETS  * FILE   NREC   LENGTH (MB)   RECORD NAMES
              1      19      111.05       500      610      700      900      950      970     1000      129      960     1100   
                                          VAR    BASINP    GEOM    SYMINP    ZMAT    AOBASIS   BASIS     P2S    ABASIS      S 
                                         1400     1410     1200     1210     1080     1600     1650     1300     1700   
                                           T        V       H0       H01     AOSYM     SMH    MOLCAS    ERIS     OPER   

 PROGRAMS   *        TOTAL       INT
 CPU TIMES  *         1.28      1.19
 REAL TIME  *         1.93 SEC
 DISK USED  *       327.55 MB      
 **********************************************************************************************************************************


 PROGRAM * RHF-SCF (CLOSED SHELL)       Authors: W. Meyer, H.-J. Werner


 NUMBER OF ELECTRONS:       8+    8-
 CONVERGENCE THRESHOLDS:    1.00E-10 (Density)    1.00E-13 (Energy)
 MAX. NUMBER OF ITERATIONS:      500
 INTERPOLATION TYPE:            DIIS
 INTERPOLATION STEPS:              2 (START)      1 (STEP)
 LEVEL SHIFTS:                  0.00 (CLOSED)  0.00 (OPEN) 



 Orbital guess generated from atomic densities. Full valence occupancy:    9   2

 Molecular orbital dump at record        2100.2

 Initial occupancy:   7   1

 ITERATION    DDIFF          GRAD             ENERGY        2-EL.EN.            DIPOLE MOMENTS         DIIS   ORB.
    1      0.000D+00      0.000D+00      -129.78872682    153.948998    0.00000    0.59021   -1.01881    0    start
    2      0.000D+00      0.107D-01      -129.81621048    155.209362    0.00000    0.61152   -0.20966    1    diag
    3      0.119D-01      0.819D-02      -129.83863514    155.322654    0.00000    0.55669   -0.59080    2    diag
    4      0.590D-02      0.128D-02      -129.83942414    155.035323    0.00000    0.56446   -0.53105    3    diag
    5      0.107D-02      0.421D-03      -129.83954913    155.128701    0.00000    0.56992   -0.53378    4    diag
    6      0.448D-03      0.121D-03      -129.83956901    155.113190    0.00000    0.57028   -0.52971    5    diag
    7      0.171D-03      0.601D-04      -129.83957474    155.115677    0.00000    0.57151   -0.52714    6    diag
    8      0.118D-03      0.204D-04      -129.83957536    155.115023    0.00000    0.57153   -0.52615    7    diag
    9      0.442D-04      0.384D-05      -129.83957538    155.114918    0.00000    0.57149   -0.52594    8    diag
   10      0.846D-05      0.872D-06      -129.83957538    155.114900    0.00000    0.57146   -0.52591    9    orth
   11      0.171D-05      0.174D-06      -129.83957538    155.114898    0.00000    0.57145   -0.52591    9    diag
   12      0.329D-06      0.358D-07      -129.83957538    155.114897    0.00000    0.57145   -0.52591    9    diag
   13      0.712D-07      0.902D-08      -129.83957538    155.114897    0.00000    0.57145   -0.52590    9    diag
   14      0.186D-07      0.185D-08      -129.83957538    155.114897    0.00000    0.57145   -0.52590    9    diag
   15      0.365D-08      0.517D-09      -129.83957538    155.114897    0.00000    0.57145   -0.52590    9    diag
   16      0.998D-09      0.141D-09      -129.83957538    155.114897    0.00000    0.57145   -0.52590    9    diag
   17      0.177D-09      0.397D-10      -129.83957538    155.114897    0.00000    0.57145   -0.52590    9    diag
   18      0.488D-10      0.141D-10      -129.83957538    155.114897    0.00000    0.57145   -0.52590    9    diag
   19      0.253D-10      0.309D-11      -129.83957538    155.114897    0.00000    0.57145   -0.52590    9    fixocc
   20      0.603D-11      0.551D-12      -129.83957538    155.114897    0.00000    0.57145   -0.52590    9    orth
   21      0.202D-11      0.179D-12      -129.83957538    155.114897    0.00000    0.57145   -0.52590    9    diag
   22      0.677D-12      0.920D-13      -129.83957538    155.114897    0.00000    0.57145   -0.52590    0    orth

 Final occupancy:   7   1

 !RHF STATE 1.1 Energy               -129.839575383464
 Nuclear energy                        30.39510897
 One-electron energy                 -237.79213293
 Two-electron energy                   77.55744858
 Virial quotient                       -1.00207573
 !RHF STATE 1.1 Dipole moment           0.00000000     0.57145222    -0.52590485
 Dipole moment /Debye                   0.00000000     1.45239153    -1.33662924

 Orbital energies:

         1.1          2.1          3.1          4.1          5.1          6.1          7.1          8.1          9.1
    -20.656309   -15.713872    -1.531213    -0.995928    -0.747913    -0.666009    -0.431100     0.029235     0.092200

         1.2          2.2          3.2
     -0.596274     0.064982     0.130120

 HOMO      7.1    -0.431100 =     -11.7308eV
 LUMO      8.1     0.029235 =       0.7955eV
 LUMO-HOMO         0.460335 =      12.5264eV


 **********************************************************************************************************************************
 DATASETS  * FILE   NREC   LENGTH (MB)   RECORD NAMES
              1      19      111.05       500      610      700      900      950      970     1000      129      960     1100   
                                          VAR    BASINP    GEOM    SYMINP    ZMAT    AOBASIS   BASIS     P2S    ABASIS      S 
                                         1400     1410     1200     1210     1080     1600     1650     1300     1700   
                                           T        V       H0       H01     AOSYM     SMH    MOLCAS    ERIS     OPER   

              2       4        2.94       700     1000      520     2100   
                                         GEOM     BASIS   MCVARS     RHF  

 PROGRAMS   *        TOTAL        HF       INT
 CPU TIMES  *         2.42      1.14      1.19
 REAL TIME  *         3.41 SEC
 DISK USED  *       327.55 MB      
 **********************************************************************************************************************************


 PROGRAM * CCSD (Closed-shell coupled cluster)     Authors: C. Hampel, H.-J. Werner, 1991, M. Deegan, P.J. Knowles, 1992


 Convergence thresholds:  THRVAR = 1.00D-08  THRDEN = 1.00D-12

 CCSD(T)     terms to be evaluated (factor= 1.000)


 Number of core orbitals:           2 (   2   0 )
 Number of closed-shell orbitals:   6 (   5   1 )
 Number of external orbitals:     107 (  69  38 )

 Molecular orbitals read from record     2100.2  Type=RHF/CANONICAL (state 1.1)

 Number of N-1 electron functions:               6
 Number of N-2 electron functions:              21
 Number of singly external CSFs:               383
 Number of doubly external CSFs:            107206
 Total number of CSFs:                      107590

 Length of J-op  integral file:               0.00 MB
 Length of K-op  integral file:               0.54 MB
 Length of 3-ext integral record:             0.00 MB

 Memory could be reduced to 5.94 Mwords without degradation in triples

 Integral transformation finished. Total CPU:   0.14 sec, npass=  1  Memory used:   1.65 MW

 Reference energy:                   -129.83957538

 MP2 singlet pair energy:              -0.27931315
 MP2 triplet pair energy:              -0.16510640
 MP2 correlation energy:               -0.44441956
 MP2 total energy:                   -130.28399494

 SCS-MP2 correlation energy:           -0.43790866   (PS=  1.200000  PT=  0.333333)
 SCS-MP2 total energy:               -130.27748404

 ITER.      SQ.NORM     CORR.ENERGY   TOTAL ENERGY   ENERGY CHANGE        DEN1      VAR(S)    VAR(P)  DIIS     TIME  TIME/IT
   1      1.12075015    -0.44854551  -130.28812089    -0.00412595     0.01188138  0.31D-02  0.31D-02  1  1     0.28     0.16
   2      1.13183116    -0.44874835  -130.28832373    -0.00020284    -0.01240996  0.10D-03  0.51D-03  2  2     0.42     0.16
   3      1.13828270    -0.44914379  -130.28871917    -0.00039544    -0.00299006  0.52D-04  0.51D-04  3  3     0.57     0.16
   4      1.14115391    -0.44915632  -130.28873170    -0.00001253    -0.00097162  0.41D-05  0.91D-05  4  4     0.72     0.16
   5      1.14218940    -0.44918466  -130.28876004    -0.00002834    -0.00021921  0.11D-05  0.16D-05  5  5     0.86     0.16
   6      1.14252700    -0.44916780  -130.28874319     0.00001686    -0.00004140  0.94D-07  0.39D-06  6  6     1.01     0.16
   7      1.14259975    -0.44916910  -130.28874448    -0.00000129    -0.00000162  0.18D-07  0.92D-07  6  1     1.18     0.17
   8      1.14262066    -0.44916976  -130.28874515    -0.00000067     0.00000163  0.35D-08  0.16D-07  6  2     1.32     0.17
   9      1.14262900    -0.44916921  -130.28874459     0.00000056    -0.00000087  0.24D-08  0.17D-08  6  3     1.49     0.17
  10      1.14262910    -0.44916971  -130.28874510    -0.00000050     0.00000000  0.48D-09  0.24D-09  6  4     1.65     0.17
  11      1.14262750    -0.44916983  -130.28874521    -0.00000012     0.00000053  0.14D-09  0.30D-10  6  5     1.81     0.17
  12      1.14262623    -0.44917001  -130.28874539    -0.00000018     0.00000041  0.15D-10  0.85D-11  6  6     1.95     0.17
  13      1.14262553    -0.44917003  -130.28874541    -0.00000002     0.00000017  0.53D-11  0.16D-11  6  1     2.09     0.17
  14      1.14262512    -0.44917005  -130.28874543    -0.00000002     0.00000009  0.82D-12  0.52D-12  6  2     2.24     0.17
  15      1.14262495    -0.44917005  -130.28874544    -0.00000000     0.00000002  0.24D-12  0.16D-12  6  3     2.37     0.17
  16      1.14262486    -0.44917006  -130.28874544    -0.00000000     0.00000001  0.39D-13  0.57D-13  6  4     2.52     0.17
  17      1.14262481    -0.44917006  -130.28874544    -0.00000000     0.00000001  0.26D-14  0.13D-13  6  5     2.67     0.17
  18      1.14262480    -0.44917006  -130.28874544     0.00000000     0.00000000  0.11D-14  0.29D-14  6  6     2.81     0.17
  19      1.14262480    -0.44917006  -130.28874544     0.00000000     0.00000000  0.75D-15  0.47D-15  6  1     2.95     0.17
  20      1.14262480    -0.44917006  -130.28874544     0.00000000    -0.00000000  0.13D-15  0.79D-16  6  2     3.09     0.17
  21      1.14262480    -0.44917006  -130.28874544     0.00000000     0.00000000  0.59D-16  0.18D-16  6  3     3.24     0.17
  22      1.14262481    -0.44917006  -130.28874544     0.00000000    -0.00000000  0.29D-17  0.36D-17  6  5     3.39     0.17
  23      1.14262480    -0.44917006  -130.28874544     0.00000000     0.00000000  0.98D-18  0.31D-18  6  4     3.53     0.17
  24      1.14262480    -0.44917006  -130.28874544    -0.00000000    -0.00000000  0.25D-18  0.76D-19  6  6     3.67     0.17
  25      1.14262480    -0.44917006  -130.28874544     0.00000000    -0.00000000  0.31D-19  0.17D-19  6  1     3.82     0.17

 Norm of t1 vector:      0.07804232      S-energy:     0.00000000      T1 diagnostic:  0.01593032
                                                                       D1 diagnostic:  0.04201294

 Doubles amplitudes (print threshold =  0.500E-01):

         I         J         SYM. A    SYM. B    A         B      T(IJ, AB)

         6         6         2         2         1         1     -0.10892183


 Total CPU time for triples:      1.21 sec


 RESULTS
 =======

  Reference energy                   -129.839575383465
  CCSD singlet pair energy             -0.307938797242
  CCSD triplet pair energy             -0.141231261931
  CCSD correlation energy              -0.449170059168

  Triples (T) contribution             -0.020870675718
  Total correlation energy             -0.470040734886

  CCSD total energy                  -130.288745442633
  CCSD[T] energy                     -130.310674082947
  CCSD-T energy                      -130.309214507488
 !CCSD(T) total energy               -130.309616118351

 Timing summary (sec):

 STEP                 CPU(USER)    SYS     CPU(TOT)    WALL
 Transformation          0.14      0.03      0.17      0.18
 CCSD iterations         3.68      0.59      4.27      4.26
 Triples                 1.21      0.03      1.24      1.24

 Program statistics:

 Available memory in ccsd:               994999756
 Min. memory needed in ccsd:                389120
 Max. memory used in ccsd:                  473124
 Max. memory used in cckext:                599488 (25 integral passes)



 **********************************************************************************************************************************
 DATASETS  * FILE   NREC   LENGTH (MB)   RECORD NAMES
              1      20      128.20       500      610      700      900      950      970     1000      129      960     1100   
                                          VAR    BASINP    GEOM    SYMINP    ZMAT    AOBASIS   BASIS     P2S    ABASIS      S 
                                         1400     1410     1200     1210     1080     1600     1650     1300     1700     1380   
                                           T        V       H0       H01     AOSYM     SMH    MOLCAS    ERIS     OPER     JKOP   

              2       4        2.94       700     1000      520     2100   
                                         GEOM     BASIS   MCVARS     RHF  

 PROGRAMS   *        TOTAL   CCSD(T)        HF       INT
 CPU TIMES  *         7.48      5.06      1.14      1.19
 REAL TIME  *         9.16 SEC
 DISK USED  *       327.55 MB      
 **********************************************************************************************************************************

 CCSD(T)/aug-cc-pVTZ energy=   -130.309616118351

        CCSD(T)         HF-SCF  
   -130.30961612   -129.83957538
 **********************************************************************************************************************************
 Molpro calculation terminated
 Variable memory released
