
 Primary working directories    : /tmp/r2666/282161.maple
 Secondary working directories  : /tmp/r2666/282161.maple
 Wavefunction directory         : /ddn/home4/r2666/wfu/
 Main file repository           : /tmp/r2666/282161.maple/

 SHA1      : d5ffa45e93fdbca01ffc919aa182cfdae0147319
 NAME      : 2015.1.35
 ARCHNAME  : linux/x86_64
 FC        : /opt/intel/composer_xe_2015.1.133/bin/intel64/ifort
 BLASLIB   : -Wl,-_start-group /opt/intel/mkl/lib/intel64/libmkl_intel_ilp64.a /opt/intel/mkl/lib/intel64/libmkl_intel_thread.a /opt/intel/mkl/lib/intel64/libmkl_core.a -Wl,-_end-group
 id        : olemiss

 Nodes     nprocs
 cn083        1

 Using customized tuning parameters: mindgm=1; mindgv=20; mindgc=4; mindgr=1; noblas=0; minvec=7
 default implementation of scratch files=df  

 ***,hno CCSD(T)/TZ-F12 QFF
 memory, 995, m;
 gthresh,energy=1.d-12,zero=1.d-22,oneint=1.d-22,twoint=1.d-22;
 gthresh,optgrad=1.d-8,optstep=1.d-8;
 nocompress;
 geomtyp=xyz
 bohr
 geometry={
 3
         58        58
 H        0.0000000000        1.6660436853       -1.9270175150
 N        0.0000000000       -0.1613156255       -1.1439939083
 O        0.0000000000        0.0370397302        1.1204218323
 }
 
 basis=avtz
   {hf,maxit=500;accu,20;}
 {ccsd(t),nocheck,maxit=250;orbital,IGNORE_ERROR;}

 Variables initialized (889), CPU time= 0.01 sec
 Commands  initialized (702), CPU time= 0.00 sec, 572 directives.
 Default parameters read. Elapsed time= 0.05 sec

 Checking input...
 Passed
1


                                         ***  PROGRAM SYSTEM MOLPRO  ***
                                       Copyright, TTI GmbH Stuttgart, 2015
                                    Version 2015.1 linked Jul  9 2018 13:16:40


 **********************************************************************************************************************************
 LABEL *   hno CCSD(T)/TZ-F12 QFF                                                        
  64 bit serial version                                                                  DATE: 04-Mar-20          TIME: 13:46:22  
 **********************************************************************************************************************************

 SHA1:             d5ffa45e93fdbca01ffc919aa182cfdae0147319
 **********************************************************************************************************************************

 THRESHOLDS:

 ZERO    =  1.00D-22  ONEINT  =  1.00D-22  TWOINT  =  1.00D-22  PREFAC  =  1.00D-14  LOCALI  =  1.00D-09  EORDER  =  1.00D-04
 ENERGY  =  1.00D-12  ETEST   =  0.00D+00  EDENS   =  0.00D+00  THRDEDEF=  1.00D-06  GRADIENT=  1.00D-02  STEP    =  1.00D-03
 ORBITAL =  1.00D-05  CIVEC   =  1.00D-05  COEFF   =  1.00D-04  PRINTCI =  5.00D-02  PUNCHCI =  9.90D+01  OPTGRAD =  3.00D-04
 OPTENERG=  1.00D-06  OPTSTEP =  3.00D-04  THRGRAD =  1.00D-10  COMPRESS=  1.00D-11  VARMIN  =  1.00D-07  VARMAX  =  1.00D-03
 THRDOUB =  0.00D+00  THRDIV  =  1.00D-05  THRRED  =  1.00D-07  THRPSP  =  1.00D+00  THRDC   =  1.00D-10  THRCS   =  1.00D-10
 THRNRM  =  1.00D-08  THREQ   =  0.00D+00  THRDE   =  1.00D+00  THRREF  =  1.00D-05  SPARFAC =  1.00D+00  THRDLP  =  1.00D-07
 THRDIA  =  1.00D-10  THRDLS  =  1.00D-07  THRGPS  =  0.00D+00  THRKEX  =  0.00D+00  THRDIS  =  2.00D-01  THRVAR  =  1.00D-10
 THRLOC  =  1.00D-06  THRGAP  =  1.00D-06  THRLOCT = -1.00D+00  THRGAPT = -1.00D+00  THRORB  =  1.00D-06  THRMLTP =  0.00D+00
 THRCPQCI=  1.00D-10  KEXTA   =  0.00D+00  THRCOARS=  0.00D+00  SYMTOL  =  1.00D-06  GRADTOL =  1.00D-06  THROVL  =  1.00D-08
 THRORTH =  1.00D-08  GRID    =  1.00D-06  GRIDMAX =  1.00D-03  DTMAX   =  0.00D+00  THROCCDE=  1.00D-01  THROCCDE=  1.00D-01



 THRESHOLDS:

 ZERO    =  1.00D-22  ONEINT  =  1.00D-22  TWOINT  =  1.00D-22  PREFAC  =  1.00D-14  LOCALI  =  1.00D-09  EORDER  =  1.00D-04
 ENERGY  =  1.00D-12  ETEST   =  0.00D+00  EDENS   =  0.00D+00  THRDEDEF=  1.00D-06  GRADIENT=  1.00D-02  STEP    =  1.00D-03
 ORBITAL =  1.00D-05  CIVEC   =  1.00D-05  COEFF   =  1.00D-04  PRINTCI =  5.00D-02  PUNCHCI =  9.90D+01  OPTGRAD =  1.00D-08
 OPTENERG=  1.00D-06  OPTSTEP =  1.00D-08  THRGRAD =  1.00D-10  COMPRESS=  1.00D-11  VARMIN  =  1.00D-07  VARMAX  =  1.00D-03
 THRDOUB =  0.00D+00  THRDIV  =  1.00D-05  THRRED  =  1.00D-07  THRPSP  =  1.00D+00  THRDC   =  1.00D-10  THRCS   =  1.00D-10
 THRNRM  =  1.00D-08  THREQ   =  0.00D+00  THRDE   =  1.00D+00  THRREF  =  1.00D-05  SPARFAC =  1.00D+00  THRDLP  =  1.00D-07
 THRDIA  =  1.00D-10  THRDLS  =  1.00D-07  THRGPS  =  0.00D+00  THRKEX  =  0.00D+00  THRDIS  =  2.00D-01  THRVAR  =  1.00D-10
 THRLOC  =  1.00D-06  THRGAP  =  1.00D-06  THRLOCT = -1.00D+00  THRGAPT = -1.00D+00  THRORB  =  1.00D-06  THRMLTP =  0.00D+00
 THRCPQCI=  1.00D-10  KEXTA   =  0.00D+00  THRCOARS=  0.00D+00  SYMTOL  =  1.00D-06  GRADTOL =  1.00D-06  THROVL  =  1.00D-08
 THRORTH =  1.00D-08  GRID    =  1.00D-06  GRIDMAX =  1.00D-03  DTMAX   =  0.00D+00  THROCCDE=  1.00D-01  THROCCDE=  1.00D-01



 Input parameters for SORTINT:

 COMPRESS =    0.000000
 C_FINAL  =    1.000000
 DEBUG    =   -1.000000
 C_SORT1  =    0.000000
 C_SEWARD =    0.000000
 THRESH   =    0.000000
 IO       =  molpro                                                          
 SPRI     =    0.000000
 SETTING GEOMTYP        =    XYZ
 ZUNIT=BOHR
 

 Variable memory set to  995000000 words,  buffer space   230000 words

 SETTING BASIS          =    AVTZ


 Recomputing integrals since basis changed


 Using spherical harmonics

 Library entry H      S aug-cc-pVTZ          selected for orbital group  1
 Library entry H      P aug-cc-pVTZ          selected for orbital group  1
 Library entry H      D aug-cc-pVTZ          selected for orbital group  1
 Library entry N      S aug-cc-pVTZ          selected for orbital group  2
 Library entry N      P aug-cc-pVTZ          selected for orbital group  2
 Library entry N      D aug-cc-pVTZ          selected for orbital group  2
 Library entry N      F aug-cc-pVTZ          selected for orbital group  2
 Library entry O      S aug-cc-pVTZ          selected for orbital group  3
 Library entry O      P aug-cc-pVTZ          selected for orbital group  3
 Library entry O      D aug-cc-pVTZ          selected for orbital group  3
 Library entry O      F aug-cc-pVTZ          selected for orbital group  3


 PROGRAM * SEWARD (Integral evaluation for generally contracted gaussian basis sets)     Author: Roland Lindh, 1990

 Geometry written to block  1 of record 700


 Point group  Cs  



 ATOMIC COORDINATES

 NR  ATOM    CHARGE       X              Y              Z

   1  H       1.00    0.000000000    1.666043685   -1.927017515
   2  N       7.00    0.000000000   -0.161315626   -1.143993908
   3  O       8.00    0.000000000    0.037039730    1.120421832

 Bond lengths in Bohr (Angstrom)

 1-2  1.988056342  2-3  2.273086776
     ( 1.052034110)     ( 1.202865721)

 Bond angles

  1-2-3  108.18899349

 NUCLEAR CHARGE:                   16
 NUMBER OF PRIMITIVE AOS:         161
 NUMBER OF SYMMETRY AOS:          141
 NUMBER OF CONTRACTIONS:          115   (  76A'  +  39A"  )
 NUMBER OF CORE ORBITALS:           2   (   2A'  +   0A"  )
 NUMBER OF VALENCE ORBITALS:        9   (   7A'  +   2A"  )


 NUCLEAR REPULSION ENERGY   30.47227392

 Eigenvalues of metric

         1 0.230E-03 0.497E-03 0.179E-02 0.211E-02 0.249E-02 0.350E-02 0.430E-02 0.512E-02
         2 0.389E-02 0.101E-01 0.260E-01 0.370E-01 0.511E-01 0.620E-01 0.808E-01 0.119E+00


 Contracted 2-electron integrals neglected if value below      1.0D-22

       10790064. INTEGRALS WRITTEN OUT IN    2635 BLOCKS ON RECORD 1290 OF FILE 1


 NUMBER OF SORTED TWO-ELECTRON INTEGRALS:   11433631.     BUFFER LENGTH:  32768
 NUMBER OF SEGMENTS:   1  SEGMENT LENGTH:   11433631      RECORD LENGTH: 524288

 Memory used in sort:      11.99 MW

 SORT1 READ    10790064. AND WROTE    10943632. INTEGRALS IN     32 RECORDS. CPU TIME:     0.16 SEC, REAL TIME:     0.25 SEC
 SORT2 READ    10943632. AND WROTE    11433631. INTEGRALS IN      1 RECORDS. CPU TIME:     0.17 SEC, REAL TIME:     0.24 SEC

 FILE SIZES:   FILE 1:   193.0 MBYTE,  FILE 4:   134.3 MBYTE,   TOTAL:    327.2 MBYTE

 OPERATOR DM      FOR CENTER  0  COORDINATES:    0.000000    0.000000    0.000000


 **********************************************************************************************************************************
 DATASETS  * FILE   NREC   LENGTH (MB)   RECORD NAMES
              1      19      111.05       500      610      700      900      950      970     1000      129      960     1100   
                                          VAR    BASINP    GEOM    SYMINP    ZMAT    AOBASIS   BASIS     P2S    ABASIS      S 
                                         1400     1410     1200     1210     1080     1600     1650     1300     1700   
                                           T        V       H0       H01     AOSYM     SMH    MOLCAS    ERIS     OPER   

 PROGRAMS   *        TOTAL       INT
 CPU TIMES  *         1.33      1.25
 REAL TIME  *         2.06 SEC
 DISK USED  *       327.55 MB      
 **********************************************************************************************************************************


 PROGRAM * RHF-SCF (CLOSED SHELL)       Authors: W. Meyer, H.-J. Werner


 NUMBER OF ELECTRONS:       8+    8-
 CONVERGENCE THRESHOLDS:    1.00E-10 (Density)    1.00E-13 (Energy)
 MAX. NUMBER OF ITERATIONS:      500
 INTERPOLATION TYPE:            DIIS
 INTERPOLATION STEPS:              2 (START)      1 (STEP)
 LEVEL SHIFTS:                  0.00 (CLOSED)  0.00 (OPEN) 



 Orbital guess generated from atomic densities. Full valence occupancy:    9   2

 Molecular orbital dump at record        2100.2

 Initial occupancy:   7   1

 ITERATION    DDIFF          GRAD             ENERGY        2-EL.EN.            DIPOLE MOMENTS         DIIS   ORB.
    1      0.000D+00      0.000D+00      -129.78975935    154.080374    0.00000    0.58967   -1.00453    0    start
    2      0.000D+00      0.107D-01      -129.81737161    155.359574    0.00000    0.60761   -0.21210    1    diag
    3      0.118D-01      0.808D-02      -129.83916559    155.459443    0.00000    0.55487   -0.58495    2    diag
    4      0.584D-02      0.127D-02      -129.83994591    155.175074    0.00000    0.56245   -0.52588    3    diag
    5      0.107D-02      0.418D-03      -129.84006965    155.268581    0.00000    0.56804   -0.52879    4    diag
    6      0.446D-03      0.120D-03      -129.84008935    155.253093    0.00000    0.56844   -0.52480    5    diag
    7      0.170D-03      0.594D-04      -129.84009494    155.255650    0.00000    0.56970   -0.52232    6    diag
    8      0.117D-03      0.199D-04      -129.84009551    155.255013    0.00000    0.56973   -0.52136    7    diag
    9      0.427D-04      0.374D-05      -129.84009554    155.254909    0.00000    0.56969   -0.52116    8    diag
   10      0.813D-05      0.863D-06      -129.84009554    155.254891    0.00000    0.56966   -0.52113    9    orth
   11      0.169D-05      0.173D-06      -129.84009554    155.254888    0.00000    0.56965   -0.52112    9    diag
   12      0.331D-06      0.353D-07      -129.84009554    155.254887    0.00000    0.56965   -0.52112    9    diag
   13      0.716D-07      0.883D-08      -129.84009554    155.254887    0.00000    0.56965   -0.52112    9    diag
   14      0.185D-07      0.184D-08      -129.84009554    155.254887    0.00000    0.56965   -0.52112    9    diag
   15      0.372D-08      0.519D-09      -129.84009554    155.254887    0.00000    0.56965   -0.52112    9    diag
   16      0.101D-08      0.145D-09      -129.84009554    155.254887    0.00000    0.56965   -0.52112    9    diag
   17      0.186D-09      0.418D-10      -129.84009554    155.254887    0.00000    0.56965   -0.52112    9    diag
   18      0.534D-10      0.149D-10      -129.84009554    155.254887    0.00000    0.56965   -0.52112    9    diag
   19      0.266D-10      0.334D-11      -129.84009554    155.254887    0.00000    0.56965   -0.52112    9    fixocc
   20      0.673D-11      0.568D-12      -129.84009554    155.254887    0.00000    0.56965   -0.52112    0    orth

 Final occupancy:   7   1

 !RHF STATE 1.1 Energy               -129.840095538810
 Nuclear energy                        30.47227392
 One-electron energy                 -237.93981307
 Two-electron energy                   77.62744361
 Virial quotient                       -1.00199982
 !RHF STATE 1.1 Dipole moment           0.00000000     0.56965137    -0.52112291
 Dipole moment /Debye                   0.00000000     1.44781454    -1.32447556

 Orbital energies:

         1.1          2.1          3.1          4.1          5.1          6.1          7.1          8.1          9.1
    -20.656067   -15.713589    -1.534975    -0.993851    -0.748872    -0.667565    -0.428881     0.029253     0.092187

         1.2          2.2          3.2
     -0.598664     0.066288     0.130335

 HOMO      7.1    -0.428881 =     -11.6704eV
 LUMO      8.1     0.029253 =       0.7960eV
 LUMO-HOMO         0.458134 =      12.4665eV


 **********************************************************************************************************************************
 DATASETS  * FILE   NREC   LENGTH (MB)   RECORD NAMES
              1      19      111.05       500      610      700      900      950      970     1000      129      960     1100   
                                          VAR    BASINP    GEOM    SYMINP    ZMAT    AOBASIS   BASIS     P2S    ABASIS      S 
                                         1400     1410     1200     1210     1080     1600     1650     1300     1700   
                                           T        V       H0       H01     AOSYM     SMH    MOLCAS    ERIS     OPER   

              2       4        2.94       700     1000      520     2100   
                                         GEOM     BASIS   MCVARS     RHF  

 PROGRAMS   *        TOTAL        HF       INT
 CPU TIMES  *         2.40      1.07      1.25
 REAL TIME  *         3.47 SEC
 DISK USED  *       327.55 MB      
 **********************************************************************************************************************************


 PROGRAM * CCSD (Closed-shell coupled cluster)     Authors: C. Hampel, H.-J. Werner, 1991, M. Deegan, P.J. Knowles, 1992


 Convergence thresholds:  THRVAR = 1.00D-08  THRDEN = 1.00D-12

 CCSD(T)     terms to be evaluated (factor= 1.000)


 Number of core orbitals:           2 (   2   0 )
 Number of closed-shell orbitals:   6 (   5   1 )
 Number of external orbitals:     107 (  69  38 )

 Molecular orbitals read from record     2100.2  Type=RHF/CANONICAL (state 1.1)

 Number of N-1 electron functions:               6
 Number of N-2 electron functions:              21
 Number of singly external CSFs:               383
 Number of doubly external CSFs:            107206
 Total number of CSFs:                      107590

 Length of J-op  integral file:               0.00 MB
 Length of K-op  integral file:               0.54 MB
 Length of 3-ext integral record:             0.00 MB

 Memory could be reduced to 5.94 Mwords without degradation in triples

 Integral transformation finished. Total CPU:   0.14 sec, npass=  1  Memory used:   1.65 MW

 Reference energy:                   -129.84009554

 MP2 singlet pair energy:              -0.27890641
 MP2 triplet pair energy:              -0.16482747
 MP2 correlation energy:               -0.44373388
 MP2 total energy:                   -130.28382942

 SCS-MP2 correlation energy:           -0.43724701   (PS=  1.200000  PT=  0.333333)
 SCS-MP2 total energy:               -130.27734255

 ITER.      SQ.NORM     CORR.ENERGY   TOTAL ENERGY   ENERGY CHANGE        DEN1      VAR(S)    VAR(P)  DIIS     TIME  TIME/IT
   1      1.12039215    -0.44803913  -130.28813467    -0.00430525     0.01154986  0.31D-02  0.31D-02  1  1     0.30     0.17
   2      1.13139120    -0.44827478  -130.28837032    -0.00023565    -0.01232155  0.98D-04  0.50D-03  2  2     0.46     0.17
   3      1.13777728    -0.44866665  -130.28876218    -0.00039187    -0.00296859  0.52D-04  0.50D-04  3  3     0.62     0.18
   4      1.14060357    -0.44867773  -130.28877327    -0.00001109    -0.00095996  0.40D-05  0.90D-05  4  4     0.78     0.18
   5      1.14162458    -0.44870559  -130.28880113    -0.00002786    -0.00021638  0.11D-05  0.16D-05  5  5     0.95     0.18
   6      1.14196010    -0.44868927  -130.28878481     0.00001632    -0.00004082  0.98D-07  0.40D-06  6  6     1.10     0.18
   7      1.14203475    -0.44869034  -130.28878588    -0.00000108    -0.00000192  0.19D-07  0.91D-07  6  1     1.25     0.18
   8      1.14205622    -0.44869107  -130.28878661    -0.00000073     0.00000147  0.37D-08  0.16D-07  6  2     1.42     0.18
   9      1.14206153    -0.44869064  -130.28878618     0.00000043     0.00000043  0.27D-08  0.18D-08  6  4     1.57     0.18
  10      1.14206377    -0.44869111  -130.28878665    -0.00000047    -0.00000069  0.43D-09  0.21D-09  6  3     1.72     0.18
  11      1.14206326    -0.44869113  -130.28878667    -0.00000003    -0.00000006  0.15D-09  0.32D-10  6  5     1.86     0.18
  12      1.14206222    -0.44869128  -130.28878682    -0.00000015     0.00000033  0.17D-10  0.10D-10  6  6     2.01     0.18
  13      1.14206139    -0.44869131  -130.28878685    -0.00000003     0.00000021  0.61D-11  0.21D-11  6  1     2.16     0.18
  14      1.14206086    -0.44869134  -130.28878688    -0.00000003     0.00000013  0.97D-12  0.66D-12  6  2     2.33     0.18
  15      1.14206064    -0.44869135  -130.28878689    -0.00000001     0.00000003  0.27D-12  0.21D-12  6  4     2.46     0.18
  16      1.14206052    -0.44869135  -130.28878689    -0.00000000     0.00000002  0.36D-13  0.24D-13  6  5     2.62     0.18
  17      1.14206048    -0.44869135  -130.28878689    -0.00000000     0.00000000  0.64D-15  0.18D-14  6  3     2.78     0.18
  18      1.14206048    -0.44869135  -130.28878689     0.00000000    -0.00000000  0.21D-15  0.24D-15  6  6     2.92     0.18
  19      1.14206049    -0.44869135  -130.28878689     0.00000000    -0.00000000  0.60D-16  0.32D-16  6  1     3.08     0.18
  20      1.14206049    -0.44869135  -130.28878689     0.00000000    -0.00000000  0.16D-16  0.55D-17  6  2     3.24     0.18
  21      1.14206049    -0.44869135  -130.28878689     0.00000000    -0.00000000  0.28D-17  0.15D-17  6  5     3.39     0.18
  22      1.14206049    -0.44869135  -130.28878689    -0.00000000     0.00000000  0.28D-18  0.17D-18  6  4     3.54     0.18
  23      1.14206049    -0.44869135  -130.28878689     0.00000000     0.00000000  0.97D-19  0.34D-19  6  3     3.68     0.18
  24      1.14206049    -0.44869135  -130.28878689     0.00000000     0.00000000  0.10D-19  0.47D-20  6  2     3.83     0.18
  25      1.14206049    -0.44869135  -130.28878689     0.00000000    -0.00000000  0.17D-20  0.77D-21  6  6     3.98     0.18
  26      1.14206049    -0.44869135  -130.28878689     0.00000000    -0.00000000  0.41D-21  0.20D-21  6  1     4.14     0.18

 Norm of t1 vector:      0.07761551      S-energy:     0.00000000      T1 diagnostic:  0.01584320
                                                                       D1 diagnostic:  0.04141192

 Doubles amplitudes (print threshold =  0.500E-01):

         I         J         SYM. A    SYM. B    A         B      T(IJ, AB)

         6         6         2         2         1         1     -0.10665105


 Total CPU time for triples:      1.37 sec


 RESULTS
 =======

  Reference energy                   -129.840095538811
  CCSD singlet pair energy             -0.307525077019
  CCSD triplet pair energy             -0.141166276737
  CCSD correlation energy              -0.448691353756

  Triples (T) contribution             -0.020755803429
  Total correlation energy             -0.469447157185

  CCSD total energy                  -130.288786892567
  CCSD[T] energy                     -130.310587582586
  CCSD-T energy                      -130.309143456317
 !CCSD(T) total energy               -130.309542695996

 Timing summary (sec):

 STEP                 CPU(USER)    SYS     CPU(TOT)    WALL
 Transformation          0.14      0.05      0.19      0.20
 CCSD iterations         4.01      0.67      4.68      4.67
 Triples                 1.37      0.06      1.43      1.43

 Program statistics:

 Available memory in ccsd:               994999756
 Min. memory needed in ccsd:                389120
 Max. memory used in ccsd:                  473124
 Max. memory used in cckext:                599488 (26 integral passes)



 **********************************************************************************************************************************
 DATASETS  * FILE   NREC   LENGTH (MB)   RECORD NAMES
              1      20      128.20       500      610      700      900      950      970     1000      129      960     1100   
                                          VAR    BASINP    GEOM    SYMINP    ZMAT    AOBASIS   BASIS     P2S    ABASIS      S 
                                         1400     1410     1200     1210     1080     1600     1650     1300     1700     1380   
                                           T        V       H0       H01     AOSYM     SMH    MOLCAS    ERIS     OPER     JKOP   

              2       4        2.94       700     1000      520     2100   
                                         GEOM     BASIS   MCVARS     RHF  

 PROGRAMS   *        TOTAL   CCSD(T)        HF       INT
 CPU TIMES  *         7.94      5.54      1.07      1.25
 REAL TIME  *         9.83 SEC
 DISK USED  *       327.55 MB      
 **********************************************************************************************************************************

 CCSD(T)/aug-cc-pVTZ energy=   -130.309542695996

        CCSD(T)         HF-SCF  
   -130.30954270   -129.84009554
 **********************************************************************************************************************************
 Molpro calculation terminated
 Variable memory released
