
 Primary working directories    : /tmp/r2666/282136.maple
 Secondary working directories  : /tmp/r2666/282136.maple
 Wavefunction directory         : /ddn/home4/r2666/wfu/
 Main file repository           : /tmp/r2666/282136.maple/

 SHA1      : d5ffa45e93fdbca01ffc919aa182cfdae0147319
 NAME      : 2015.1.35
 ARCHNAME  : linux/x86_64
 FC        : /opt/intel/composer_xe_2015.1.133/bin/intel64/ifort
 BLASLIB   : -Wl,-_start-group /opt/intel/mkl/lib/intel64/libmkl_intel_ilp64.a /opt/intel/mkl/lib/intel64/libmkl_intel_thread.a /opt/intel/mkl/lib/intel64/libmkl_core.a -Wl,-_end-group
 id        : olemiss

 Nodes     nprocs
 cn095        1

 Using customized tuning parameters: mindgm=1; mindgv=20; mindgc=4; mindgr=1; noblas=0; minvec=7
 default implementation of scratch files=df  

 ***,hno CCSD(T)/TZ-F12 QFF
 memory, 995, m;
 gthresh,energy=1.d-12,zero=1.d-22,oneint=1.d-22,twoint=1.d-22;
 gthresh,optgrad=1.d-8,optstep=1.d-8;
 nocompress;
 geomtyp=xyz
 bohr
 geometry={
 3
         33        33
 H        0.0000000000        1.6622967505       -1.9255908814
 N        0.0000000000       -0.1577897769       -1.1495924851
 O        0.0000000000        0.0372608164        1.1245937755
 }
 
 basis=avtz
   {hf,maxit=500;accu,20;}
 {ccsd(t),nocheck,maxit=250;orbital,IGNORE_ERROR;}

 Variables initialized (889), CPU time= 0.00 sec
 Commands  initialized (702), CPU time= 0.01 sec, 572 directives.
 Default parameters read. Elapsed time= 0.04 sec

 Checking input...
 Passed
1


                                         ***  PROGRAM SYSTEM MOLPRO  ***
                                       Copyright, TTI GmbH Stuttgart, 2015
                                    Version 2015.1 linked Jul  9 2018 13:16:40


 **********************************************************************************************************************************
 LABEL *   hno CCSD(T)/TZ-F12 QFF                                                        
  64 bit serial version                                                                  DATE: 04-Mar-20          TIME: 13:46:05  
 **********************************************************************************************************************************

 SHA1:             d5ffa45e93fdbca01ffc919aa182cfdae0147319
 **********************************************************************************************************************************

 THRESHOLDS:

 ZERO    =  1.00D-22  ONEINT  =  1.00D-22  TWOINT  =  1.00D-22  PREFAC  =  1.00D-14  LOCALI  =  1.00D-09  EORDER  =  1.00D-04
 ENERGY  =  1.00D-12  ETEST   =  0.00D+00  EDENS   =  0.00D+00  THRDEDEF=  1.00D-06  GRADIENT=  1.00D-02  STEP    =  1.00D-03
 ORBITAL =  1.00D-05  CIVEC   =  1.00D-05  COEFF   =  1.00D-04  PRINTCI =  5.00D-02  PUNCHCI =  9.90D+01  OPTGRAD =  3.00D-04
 OPTENERG=  1.00D-06  OPTSTEP =  3.00D-04  THRGRAD =  1.00D-10  COMPRESS=  1.00D-11  VARMIN  =  1.00D-07  VARMAX  =  1.00D-03
 THRDOUB =  0.00D+00  THRDIV  =  1.00D-05  THRRED  =  1.00D-07  THRPSP  =  1.00D+00  THRDC   =  1.00D-10  THRCS   =  1.00D-10
 THRNRM  =  1.00D-08  THREQ   =  0.00D+00  THRDE   =  1.00D+00  THRREF  =  1.00D-05  SPARFAC =  1.00D+00  THRDLP  =  1.00D-07
 THRDIA  =  1.00D-10  THRDLS  =  1.00D-07  THRGPS  =  0.00D+00  THRKEX  =  0.00D+00  THRDIS  =  2.00D-01  THRVAR  =  1.00D-10
 THRLOC  =  1.00D-06  THRGAP  =  1.00D-06  THRLOCT = -1.00D+00  THRGAPT = -1.00D+00  THRORB  =  1.00D-06  THRMLTP =  0.00D+00
 THRCPQCI=  1.00D-10  KEXTA   =  0.00D+00  THRCOARS=  0.00D+00  SYMTOL  =  1.00D-06  GRADTOL =  1.00D-06  THROVL  =  1.00D-08
 THRORTH =  1.00D-08  GRID    =  1.00D-06  GRIDMAX =  1.00D-03  DTMAX   =  0.00D+00  THROCCDE=  1.00D-01  THROCCDE=  1.00D-01



 THRESHOLDS:

 ZERO    =  1.00D-22  ONEINT  =  1.00D-22  TWOINT  =  1.00D-22  PREFAC  =  1.00D-14  LOCALI  =  1.00D-09  EORDER  =  1.00D-04
 ENERGY  =  1.00D-12  ETEST   =  0.00D+00  EDENS   =  0.00D+00  THRDEDEF=  1.00D-06  GRADIENT=  1.00D-02  STEP    =  1.00D-03
 ORBITAL =  1.00D-05  CIVEC   =  1.00D-05  COEFF   =  1.00D-04  PRINTCI =  5.00D-02  PUNCHCI =  9.90D+01  OPTGRAD =  1.00D-08
 OPTENERG=  1.00D-06  OPTSTEP =  1.00D-08  THRGRAD =  1.00D-10  COMPRESS=  1.00D-11  VARMIN  =  1.00D-07  VARMAX  =  1.00D-03
 THRDOUB =  0.00D+00  THRDIV  =  1.00D-05  THRRED  =  1.00D-07  THRPSP  =  1.00D+00  THRDC   =  1.00D-10  THRCS   =  1.00D-10
 THRNRM  =  1.00D-08  THREQ   =  0.00D+00  THRDE   =  1.00D+00  THRREF  =  1.00D-05  SPARFAC =  1.00D+00  THRDLP  =  1.00D-07
 THRDIA  =  1.00D-10  THRDLS  =  1.00D-07  THRGPS  =  0.00D+00  THRKEX  =  0.00D+00  THRDIS  =  2.00D-01  THRVAR  =  1.00D-10
 THRLOC  =  1.00D-06  THRGAP  =  1.00D-06  THRLOCT = -1.00D+00  THRGAPT = -1.00D+00  THRORB  =  1.00D-06  THRMLTP =  0.00D+00
 THRCPQCI=  1.00D-10  KEXTA   =  0.00D+00  THRCOARS=  0.00D+00  SYMTOL  =  1.00D-06  GRADTOL =  1.00D-06  THROVL  =  1.00D-08
 THRORTH =  1.00D-08  GRID    =  1.00D-06  GRIDMAX =  1.00D-03  DTMAX   =  0.00D+00  THROCCDE=  1.00D-01  THROCCDE=  1.00D-01



 Input parameters for SORTINT:

 COMPRESS =    0.000000
 C_FINAL  =    1.000000
 DEBUG    =   -1.000000
 C_SORT1  =    0.000000
 C_SEWARD =    0.000000
 THRESH   =    0.000000
 IO       =  molpro                                                          
 SPRI     =    0.000000
 SETTING GEOMTYP        =    XYZ
 ZUNIT=BOHR
 

 Variable memory set to  995000000 words,  buffer space   230000 words

 SETTING BASIS          =    AVTZ


 Recomputing integrals since basis changed


 Using spherical harmonics

 Library entry H      S aug-cc-pVTZ          selected for orbital group  1
 Library entry H      P aug-cc-pVTZ          selected for orbital group  1
 Library entry H      D aug-cc-pVTZ          selected for orbital group  1
 Library entry N      S aug-cc-pVTZ          selected for orbital group  2
 Library entry N      P aug-cc-pVTZ          selected for orbital group  2
 Library entry N      D aug-cc-pVTZ          selected for orbital group  2
 Library entry N      F aug-cc-pVTZ          selected for orbital group  2
 Library entry O      S aug-cc-pVTZ          selected for orbital group  3
 Library entry O      P aug-cc-pVTZ          selected for orbital group  3
 Library entry O      D aug-cc-pVTZ          selected for orbital group  3
 Library entry O      F aug-cc-pVTZ          selected for orbital group  3


 PROGRAM * SEWARD (Integral evaluation for generally contracted gaussian basis sets)     Author: Roland Lindh, 1990

 Geometry written to block  1 of record 700


 Point group  Cs  



 ATOMIC COORDINATES

 NR  ATOM    CHARGE       X              Y              Z

   1  H       1.00    0.000000000    1.662296750   -1.925590881
   2  N       7.00    0.000000000   -0.157789777   -1.149592485
   3  O       8.00    0.000000000    0.037260816    1.124593775

 Bond lengths in Bohr (Angstrom)

 1-2  1.978607712  2-3  2.282535406
     ( 1.047034111)     ( 1.207865720)

 Bond angles

  1-2-3  108.18899349

 NUCLEAR CHARGE:                   16
 NUMBER OF PRIMITIVE AOS:         161
 NUMBER OF SYMMETRY AOS:          141
 NUMBER OF CONTRACTIONS:          115   (  76A'  +  39A"  )
 NUMBER OF CORE ORBITALS:           2   (   2A'  +   0A"  )
 NUMBER OF VALENCE ORBITALS:        9   (   7A'  +   2A"  )


 NUCLEAR REPULSION ENERGY   30.38673526

 Eigenvalues of metric

         1 0.231E-03 0.497E-03 0.180E-02 0.211E-02 0.253E-02 0.357E-02 0.429E-02 0.510E-02
         2 0.395E-02 0.100E-01 0.261E-01 0.369E-01 0.512E-01 0.619E-01 0.814E-01 0.119E+00


 Contracted 2-electron integrals neglected if value below      1.0D-22

       10790064. INTEGRALS WRITTEN OUT IN    2635 BLOCKS ON RECORD 1290 OF FILE 1


 NUMBER OF SORTED TWO-ELECTRON INTEGRALS:   11433631.     BUFFER LENGTH:  32768
 NUMBER OF SEGMENTS:   1  SEGMENT LENGTH:   11433631      RECORD LENGTH: 524288

 Memory used in sort:      11.99 MW

 SORT1 READ    10790064. AND WROTE    10943632. INTEGRALS IN     32 RECORDS. CPU TIME:     0.15 SEC, REAL TIME:     0.25 SEC
 SORT2 READ    10943632. AND WROTE    11433631. INTEGRALS IN      1 RECORDS. CPU TIME:     0.20 SEC, REAL TIME:     0.25 SEC

 FILE SIZES:   FILE 1:   193.0 MBYTE,  FILE 4:   134.3 MBYTE,   TOTAL:    327.2 MBYTE

 OPERATOR DM      FOR CENTER  0  COORDINATES:    0.000000    0.000000    0.000000


 **********************************************************************************************************************************
 DATASETS  * FILE   NREC   LENGTH (MB)   RECORD NAMES
              1      19      111.05       500      610      700      900      950      970     1000      129      960     1100   
                                          VAR    BASINP    GEOM    SYMINP    ZMAT    AOBASIS   BASIS     P2S    ABASIS      S 
                                         1400     1410     1200     1210     1080     1600     1650     1300     1700   
                                           T        V       H0       H01     AOSYM     SMH    MOLCAS    ERIS     OPER   

 PROGRAMS   *        TOTAL       INT
 CPU TIMES  *         1.40      1.33
 REAL TIME  *         2.20 SEC
 DISK USED  *       327.55 MB      
 **********************************************************************************************************************************


 PROGRAM * RHF-SCF (CLOSED SHELL)       Authors: W. Meyer, H.-J. Werner


 NUMBER OF ELECTRONS:       8+    8-
 CONVERGENCE THRESHOLDS:    1.00E-10 (Density)    1.00E-13 (Energy)
 MAX. NUMBER OF ITERATIONS:      500
 INTERPOLATION TYPE:            DIIS
 INTERPOLATION STEPS:              2 (START)      1 (STEP)
 LEVEL SHIFTS:                  0.00 (CLOSED)  0.00 (OPEN) 



 Orbital guess generated from atomic densities. Full valence occupancy:    9   2

 Molecular orbital dump at record        2100.2

 Initial occupancy:   7   1

 ITERATION    DDIFF          GRAD             ENERGY        2-EL.EN.            DIPOLE MOMENTS         DIIS   ORB.
    1      0.000D+00      0.000D+00      -129.78879591    153.931213    0.00000    0.59515   -1.02006    0    start
    2      0.000D+00      0.107D-01      -129.81626896    155.194422    0.00000    0.61117   -0.21203    1    diag
    3      0.119D-01      0.818D-02      -129.83864488    155.307040    0.00000    0.55892   -0.59304    2    diag
    4      0.590D-02      0.128D-02      -129.83943521    155.019435    0.00000    0.56641   -0.53313    3    diag
    5      0.107D-02      0.420D-03      -129.83956003    155.112988    0.00000    0.57192   -0.53591    4    diag
    6      0.448D-03      0.121D-03      -129.83957986    155.097491    0.00000    0.57229   -0.53185    5    diag
    7      0.171D-03      0.599D-04      -129.83958557    155.099977    0.00000    0.57353   -0.52929    6    diag
    8      0.118D-03      0.203D-04      -129.83958618    155.099327    0.00000    0.57355   -0.52830    7    diag
    9      0.441D-04      0.384D-05      -129.83958620    155.099221    0.00000    0.57351   -0.52808    8    diag
   10      0.847D-05      0.877D-06      -129.83958621    155.099203    0.00000    0.57348   -0.52806    9    orth
   11      0.172D-05      0.174D-06      -129.83958621    155.099200    0.00000    0.57347   -0.52806    9    diag
   12      0.331D-06      0.358D-07      -129.83958621    155.099200    0.00000    0.57347   -0.52805    9    diag
   13      0.711D-07      0.901D-08      -129.83958621    155.099200    0.00000    0.57347   -0.52805    9    diag
   14      0.185D-07      0.185D-08      -129.83958621    155.099200    0.00000    0.57347   -0.52805    9    diag
   15      0.366D-08      0.517D-09      -129.83958621    155.099200    0.00000    0.57347   -0.52805    9    diag
   16      0.997D-09      0.141D-09      -129.83958621    155.099200    0.00000    0.57347   -0.52805    9    diag
   17      0.175D-09      0.392D-10      -129.83958621    155.099200    0.00000    0.57347   -0.52805    9    diag
   18      0.485D-10      0.139D-10      -129.83958621    155.099200    0.00000    0.57347   -0.52805    9    diag
   19      0.249D-10      0.304D-11      -129.83958621    155.099200    0.00000    0.57347   -0.52805    9    fixocc
   20      0.587D-11      0.540D-12      -129.83958621    155.099200    0.00000    0.57347   -0.52805    9    orth
   21      0.184D-11      0.185D-12      -129.83958621    155.099200    0.00000    0.57347   -0.52805    9    diag
   22      0.139D-11      0.777D-13      -129.83958621    155.099200    0.00000    0.57347   -0.52805    9    diag
   23      0.540D-12      0.542D-13      -129.83958621    155.099200    0.00000    0.57347   -0.52805    9    diag
   24      0.490D-12      0.430D-13      -129.83958621    155.099200    0.00000    0.57347   -0.52805    9    diag
   25      0.362D-12      0.299D-13      -129.83958621    155.099200    0.00000    0.57347   -0.52805    9    diag
   26      0.117D-12      0.400D-13      -129.83958621    155.099200    0.00000    0.57347   -0.52805    0    orth

 Final occupancy:   7   1

 !RHF STATE 1.1 Energy               -129.839586206217
 Nuclear energy                        30.38673526
 One-electron energy                 -237.77592124
 Two-electron energy                   77.54959977
 Virial quotient                       -1.00209301
 !RHF STATE 1.1 Dipole moment           0.00000000     0.57347012    -0.52805383
 Dipole moment /Debye                   0.00000000     1.45752018    -1.34209105

 Orbital energies:

         1.1          2.1          3.1          4.1          5.1          6.1          7.1          8.1          9.1
    -20.656456   -15.713772    -1.530915    -0.996290    -0.747883    -0.666125    -0.430719     0.029186     0.092170

         1.2          2.2          3.2
     -0.596200     0.064895     0.130104

 HOMO      7.1    -0.430719 =     -11.7205eV
 LUMO      8.1     0.029186 =       0.7942eV
 LUMO-HOMO         0.459906 =      12.5147eV


 **********************************************************************************************************************************
 DATASETS  * FILE   NREC   LENGTH (MB)   RECORD NAMES
              1      19      111.05       500      610      700      900      950      970     1000      129      960     1100   
                                          VAR    BASINP    GEOM    SYMINP    ZMAT    AOBASIS   BASIS     P2S    ABASIS      S 
                                         1400     1410     1200     1210     1080     1600     1650     1300     1700   
                                           T        V       H0       H01     AOSYM     SMH    MOLCAS    ERIS     OPER   

              2       4        2.94       700     1000      520     2100   
                                         GEOM     BASIS   MCVARS     RHF  

 PROGRAMS   *        TOTAL        HF       INT
 CPU TIMES  *         2.90      1.50      1.33
 REAL TIME  *         4.08 SEC
 DISK USED  *       327.55 MB      
 **********************************************************************************************************************************


 PROGRAM * CCSD (Closed-shell coupled cluster)     Authors: C. Hampel, H.-J. Werner, 1991, M. Deegan, P.J. Knowles, 1992


 Convergence thresholds:  THRVAR = 1.00D-08  THRDEN = 1.00D-12

 CCSD(T)     terms to be evaluated (factor= 1.000)


 Number of core orbitals:           2 (   2   0 )
 Number of closed-shell orbitals:   6 (   5   1 )
 Number of external orbitals:     107 (  69  38 )

 Molecular orbitals read from record     2100.2  Type=RHF/CANONICAL (state 1.1)

 Number of N-1 electron functions:               6
 Number of N-2 electron functions:              21
 Number of singly external CSFs:               383
 Number of doubly external CSFs:            107206
 Total number of CSFs:                      107590

 Length of J-op  integral file:               0.00 MB
 Length of K-op  integral file:               0.54 MB
 Length of 3-ext integral record:             0.00 MB

 Memory could be reduced to 5.94 Mwords without degradation in triples

 Integral transformation finished. Total CPU:   0.18 sec, npass=  1  Memory used:   1.65 MW

 Reference energy:                   -129.83958621

 MP2 singlet pair energy:              -0.27931294
 MP2 triplet pair energy:              -0.16510795
 MP2 correlation energy:               -0.44442089
 MP2 total energy:                   -130.28400709

 SCS-MP2 correlation energy:           -0.43790936   (PS=  1.200000  PT=  0.333333)
 SCS-MP2 total energy:               -130.27749557

 ITER.      SQ.NORM     CORR.ENERGY   TOTAL ENERGY   ENERGY CHANGE        DEN1      VAR(S)    VAR(P)  DIIS     TIME  TIME/IT
   1      1.12076727    -0.44854677  -130.28813298    -0.00412588     0.01189342  0.31D-02  0.31D-02  1  1     0.34     0.19
   2      1.13185759    -0.44874739  -130.28833360    -0.00020062    -0.01241591  0.10D-03  0.51D-03  2  2     0.51     0.19
   3      1.13832052    -0.44914434  -130.28873054    -0.00039695    -0.00299149  0.53D-04  0.51D-04  3  3     0.69     0.20
   4      1.14119937    -0.44915649  -130.28874269    -0.00001215    -0.00097330  0.41D-05  0.92D-05  4  4     0.86     0.20
   5      1.14224303    -0.44918496  -130.28877116    -0.00002847    -0.00022078  0.11D-05  0.16D-05  5  5     1.04     0.20
   6      1.14258382    -0.44916806  -130.28875427     0.00001689    -0.00004167  0.95D-07  0.40D-06  6  6     1.23     0.20
   7      1.14265776    -0.44916934  -130.28875554    -0.00000127    -0.00000169  0.18D-07  0.93D-07  6  1     1.40     0.20
   8      1.14267898    -0.44917003  -130.28875624    -0.00000070     0.00000159  0.36D-08  0.17D-07  6  2     1.58     0.20
   9      1.14268422    -0.44916960  -130.28875581     0.00000043     0.00000041  0.28D-08  0.18D-08  6  4     1.76     0.20
  10      1.14268652    -0.44917008  -130.28875629    -0.00000048    -0.00000071  0.45D-09  0.22D-09  6  3     1.94     0.20
  11      1.14268602    -0.44917010  -130.28875631    -0.00000002    -0.00000007  0.16D-09  0.33D-10  6  5     2.13     0.20
  12      1.14268497    -0.44917026  -130.28875646    -0.00000015     0.00000034  0.18D-10  0.11D-10  6  6     2.29     0.20
  13      1.14268413    -0.44917029  -130.28875650    -0.00000003     0.00000021  0.61D-11  0.22D-11  6  1     2.48     0.20
  14      1.14268358    -0.44917032  -130.28875653    -0.00000003     0.00000014  0.94D-12  0.70D-12  6  2     2.66     0.20
  15      1.14268336    -0.44917033  -130.28875653    -0.00000001     0.00000003  0.26D-12  0.22D-12  6  4     2.84     0.20
  16      1.14268326    -0.44917033  -130.28875653    -0.00000000     0.00000001  0.49D-13  0.79D-13  6  3     3.02     0.20
  17      1.14268320    -0.44917033  -130.28875654    -0.00000000     0.00000001  0.38D-14  0.19D-13  6  5     3.19     0.20
  18      1.14268320    -0.44917033  -130.28875654     0.00000000    -0.00000000  0.14D-14  0.38D-14  6  6     3.36     0.20
  19      1.14268319    -0.44917033  -130.28875654    -0.00000000     0.00000000  0.11D-14  0.68D-15  6  1     3.53     0.20
  20      1.14268320    -0.44917033  -130.28875654     0.00000000    -0.00000000  0.23D-15  0.12D-15  6  2     3.71     0.20
  21      1.14268320    -0.44917033  -130.28875654     0.00000000    -0.00000000  0.56D-16  0.30D-16  6  3     3.89     0.20
  22      1.14268320    -0.44917033  -130.28875654     0.00000000     0.00000000  0.62D-17  0.27D-17  6  4     4.06     0.20
  23      1.14268320    -0.44917033  -130.28875654     0.00000000    -0.00000000  0.22D-17  0.56D-18  6  5     4.24     0.20
  24      1.14268320    -0.44917033  -130.28875654     0.00000000     0.00000000  0.15D-18  0.49D-19  6  2     4.43     0.20
  25      1.14268320    -0.44917033  -130.28875654    -0.00000000    -0.00000000  0.22D-19  0.12D-19  6  6     4.60     0.20
  26      1.14268320    -0.44917033  -130.28875654     0.00000000    -0.00000000  0.34D-20  0.22D-20  6  1     4.78     0.20
  27      1.14268320    -0.44917033  -130.28875654    -0.00000000    -0.00000000  0.48D-21  0.52D-21  6  4     4.96     0.20

 Norm of t1 vector:      0.07820463      S-energy:    -0.00000000      T1 diagnostic:  0.01596345
                                                                       D1 diagnostic:  0.04206579

 Doubles amplitudes (print threshold =  0.500E-01):

         I         J         SYM. A    SYM. B    A         B      T(IJ, AB)

         6         6         2         2         1         1     -0.10892586


 Total CPU time for triples:      2.10 sec


 RESULTS
 =======

  Reference energy                   -129.839586206217
  CCSD singlet pair energy             -0.307939601988
  CCSD triplet pair energy             -0.141230729378
  CCSD correlation energy              -0.449170331366

  Triples (T) contribution             -0.020877128520
  Total correlation energy             -0.470047459886

  CCSD total energy                  -130.288756537584
  CCSD[T] energy                     -130.310694762695
  CCSD-T energy                      -130.309231280306
 !CCSD(T) total energy               -130.309633666103

 Timing summary (sec):

 STEP                 CPU(USER)    SYS     CPU(TOT)    WALL
 Transformation          0.19      0.03      0.22      0.22
 CCSD iterations         4.77      0.64      5.41      5.41
 Triples                 2.10      0.06      2.16      2.16

 Program statistics:

 Available memory in ccsd:               994999756
 Min. memory needed in ccsd:                389120
 Max. memory used in ccsd:                  473124
 Max. memory used in cckext:                599488 (27 integral passes)



 **********************************************************************************************************************************
 DATASETS  * FILE   NREC   LENGTH (MB)   RECORD NAMES
              1      20      128.20       500      610      700      900      950      970     1000      129      960     1100   
                                          VAR    BASINP    GEOM    SYMINP    ZMAT    AOBASIS   BASIS     P2S    ABASIS      S 
                                         1400     1410     1200     1210     1080     1600     1650     1300     1700     1380   
                                           T        V       H0       H01     AOSYM     SMH    MOLCAS    ERIS     OPER     JKOP   

              2       4        2.94       700     1000      520     2100   
                                         GEOM     BASIS   MCVARS     RHF  

 PROGRAMS   *        TOTAL   CCSD(T)        HF       INT
 CPU TIMES  *         9.98      7.08      1.50      1.33
 REAL TIME  *        11.91 SEC
 DISK USED  *       327.55 MB      
 **********************************************************************************************************************************

 CCSD(T)/aug-cc-pVTZ energy=   -130.309633666103

        CCSD(T)         HF-SCF  
   -130.30963367   -129.83958621
 **********************************************************************************************************************************
 Molpro calculation terminated
 Variable memory released
