
 Primary working directories    : /tmp/r2666/282131.maple
 Secondary working directories  : /tmp/r2666/282131.maple
 Wavefunction directory         : /ddn/home4/r2666/wfu/
 Main file repository           : /tmp/r2666/282131.maple/

 SHA1      : d5ffa45e93fdbca01ffc919aa182cfdae0147319
 NAME      : 2015.1.35
 ARCHNAME  : linux/x86_64
 FC        : /opt/intel/composer_xe_2015.1.133/bin/intel64/ifort
 BLASLIB   : -Wl,-_start-group /opt/intel/mkl/lib/intel64/libmkl_intel_ilp64.a /opt/intel/mkl/lib/intel64/libmkl_intel_thread.a /opt/intel/mkl/lib/intel64/libmkl_core.a -Wl,-_end-group
 id        : olemiss

 Nodes     nprocs
 cn080        1

 Using customized tuning parameters: mindgm=1; mindgv=20; mindgc=4; mindgr=1; noblas=0; minvec=7
 default implementation of scratch files=df  

 ***,hno CCSD(T)/TZ-F12 QFF
 memory, 995, m;
 gthresh,energy=1.d-12,zero=1.d-22,oneint=1.d-22,twoint=1.d-22;
 gthresh,optgrad=1.d-8,optstep=1.d-8;
 nocompress;
 geomtyp=xyz
 bohr
 geometry={
 3
         28        28
 H        0.0000000000        1.6616980474       -1.9269566477
 N        0.0000000000       -0.1555496643       -1.1443333457
 O        0.0000000000        0.0356194070        1.1207004024
 }
 
 basis=avtz
   {hf,maxit=500;accu,20;}
 {ccsd(t),nocheck,maxit=250;orbital,IGNORE_ERROR;}

 Variables initialized (889), CPU time= 0.01 sec
 Commands  initialized (702), CPU time= 0.01 sec, 572 directives.
 Default parameters read. Elapsed time= 0.05 sec

 Checking input...
 Passed
1


                                         ***  PROGRAM SYSTEM MOLPRO  ***
                                       Copyright, TTI GmbH Stuttgart, 2015
                                    Version 2015.1 linked Jul  9 2018 13:16:40


 **********************************************************************************************************************************
 LABEL *   hno CCSD(T)/TZ-F12 QFF                                                        
  64 bit serial version                                                                  DATE: 04-Mar-20          TIME: 13:46:04  
 **********************************************************************************************************************************

 SHA1:             d5ffa45e93fdbca01ffc919aa182cfdae0147319
 **********************************************************************************************************************************

 THRESHOLDS:

 ZERO    =  1.00D-22  ONEINT  =  1.00D-22  TWOINT  =  1.00D-22  PREFAC  =  1.00D-14  LOCALI  =  1.00D-09  EORDER  =  1.00D-04
 ENERGY  =  1.00D-12  ETEST   =  0.00D+00  EDENS   =  0.00D+00  THRDEDEF=  1.00D-06  GRADIENT=  1.00D-02  STEP    =  1.00D-03
 ORBITAL =  1.00D-05  CIVEC   =  1.00D-05  COEFF   =  1.00D-04  PRINTCI =  5.00D-02  PUNCHCI =  9.90D+01  OPTGRAD =  3.00D-04
 OPTENERG=  1.00D-06  OPTSTEP =  3.00D-04  THRGRAD =  1.00D-10  COMPRESS=  1.00D-11  VARMIN  =  1.00D-07  VARMAX  =  1.00D-03
 THRDOUB =  0.00D+00  THRDIV  =  1.00D-05  THRRED  =  1.00D-07  THRPSP  =  1.00D+00  THRDC   =  1.00D-10  THRCS   =  1.00D-10
 THRNRM  =  1.00D-08  THREQ   =  0.00D+00  THRDE   =  1.00D+00  THRREF  =  1.00D-05  SPARFAC =  1.00D+00  THRDLP  =  1.00D-07
 THRDIA  =  1.00D-10  THRDLS  =  1.00D-07  THRGPS  =  0.00D+00  THRKEX  =  0.00D+00  THRDIS  =  2.00D-01  THRVAR  =  1.00D-10
 THRLOC  =  1.00D-06  THRGAP  =  1.00D-06  THRLOCT = -1.00D+00  THRGAPT = -1.00D+00  THRORB  =  1.00D-06  THRMLTP =  0.00D+00
 THRCPQCI=  1.00D-10  KEXTA   =  0.00D+00  THRCOARS=  0.00D+00  SYMTOL  =  1.00D-06  GRADTOL =  1.00D-06  THROVL  =  1.00D-08
 THRORTH =  1.00D-08  GRID    =  1.00D-06  GRIDMAX =  1.00D-03  DTMAX   =  0.00D+00  THROCCDE=  1.00D-01  THROCCDE=  1.00D-01



 THRESHOLDS:

 ZERO    =  1.00D-22  ONEINT  =  1.00D-22  TWOINT  =  1.00D-22  PREFAC  =  1.00D-14  LOCALI  =  1.00D-09  EORDER  =  1.00D-04
 ENERGY  =  1.00D-12  ETEST   =  0.00D+00  EDENS   =  0.00D+00  THRDEDEF=  1.00D-06  GRADIENT=  1.00D-02  STEP    =  1.00D-03
 ORBITAL =  1.00D-05  CIVEC   =  1.00D-05  COEFF   =  1.00D-04  PRINTCI =  5.00D-02  PUNCHCI =  9.90D+01  OPTGRAD =  1.00D-08
 OPTENERG=  1.00D-06  OPTSTEP =  1.00D-08  THRGRAD =  1.00D-10  COMPRESS=  1.00D-11  VARMIN  =  1.00D-07  VARMAX  =  1.00D-03
 THRDOUB =  0.00D+00  THRDIV  =  1.00D-05  THRRED  =  1.00D-07  THRPSP  =  1.00D+00  THRDC   =  1.00D-10  THRCS   =  1.00D-10
 THRNRM  =  1.00D-08  THREQ   =  0.00D+00  THRDE   =  1.00D+00  THRREF  =  1.00D-05  SPARFAC =  1.00D+00  THRDLP  =  1.00D-07
 THRDIA  =  1.00D-10  THRDLS  =  1.00D-07  THRGPS  =  0.00D+00  THRKEX  =  0.00D+00  THRDIS  =  2.00D-01  THRVAR  =  1.00D-10
 THRLOC  =  1.00D-06  THRGAP  =  1.00D-06  THRLOCT = -1.00D+00  THRGAPT = -1.00D+00  THRORB  =  1.00D-06  THRMLTP =  0.00D+00
 THRCPQCI=  1.00D-10  KEXTA   =  0.00D+00  THRCOARS=  0.00D+00  SYMTOL  =  1.00D-06  GRADTOL =  1.00D-06  THROVL  =  1.00D-08
 THRORTH =  1.00D-08  GRID    =  1.00D-06  GRIDMAX =  1.00D-03  DTMAX   =  0.00D+00  THROCCDE=  1.00D-01  THROCCDE=  1.00D-01



 Input parameters for SORTINT:

 COMPRESS =    0.000000
 C_FINAL  =    1.000000
 DEBUG    =   -1.000000
 C_SORT1  =    0.000000
 C_SEWARD =    0.000000
 THRESH   =    0.000000
 IO       =  molpro                                                          
 SPRI     =    0.000000
 SETTING GEOMTYP        =    XYZ
 ZUNIT=BOHR
 

 Variable memory set to  995000000 words,  buffer space   230000 words

 SETTING BASIS          =    AVTZ


 Recomputing integrals since basis changed


 Using spherical harmonics

 Library entry H      S aug-cc-pVTZ          selected for orbital group  1
 Library entry H      P aug-cc-pVTZ          selected for orbital group  1
 Library entry H      D aug-cc-pVTZ          selected for orbital group  1
 Library entry N      S aug-cc-pVTZ          selected for orbital group  2
 Library entry N      P aug-cc-pVTZ          selected for orbital group  2
 Library entry N      D aug-cc-pVTZ          selected for orbital group  2
 Library entry N      F aug-cc-pVTZ          selected for orbital group  2
 Library entry O      S aug-cc-pVTZ          selected for orbital group  3
 Library entry O      P aug-cc-pVTZ          selected for orbital group  3
 Library entry O      D aug-cc-pVTZ          selected for orbital group  3
 Library entry O      F aug-cc-pVTZ          selected for orbital group  3


 PROGRAM * SEWARD (Integral evaluation for generally contracted gaussian basis sets)     Author: Roland Lindh, 1990

 Geometry written to block  1 of record 700


 Point group  Cs  



 ATOMIC COORDINATES

 NR  ATOM    CHARGE       X              Y              Z

   1  H       1.00    0.000000000    1.661698047   -1.926956648
   2  N       7.00    0.000000000   -0.155549664   -1.144333346
   3  O       8.00    0.000000000    0.035619407    1.120700402

 Bond lengths in Bohr (Angstrom)

 1-2  1.978607712  2-3  2.273086777
     ( 1.047034111)     ( 1.202865721)

 Bond angles

  1-2-3  108.47547239

 NUCLEAR CHARGE:                   16
 NUMBER OF PRIMITIVE AOS:         161
 NUMBER OF SYMMETRY AOS:          141
 NUMBER OF CONTRACTIONS:          115   (  76A'  +  39A"  )
 NUMBER OF CORE ORBITALS:           2   (   2A'  +   0A"  )
 NUMBER OF VALENCE ORBITALS:        9   (   7A'  +   2A"  )


 NUCLEAR REPULSION ENERGY   30.48988310

 Eigenvalues of metric

         1 0.230E-03 0.493E-03 0.179E-02 0.210E-02 0.249E-02 0.350E-02 0.428E-02 0.506E-02
         2 0.389E-02 0.996E-02 0.259E-01 0.368E-01 0.510E-01 0.618E-01 0.804E-01 0.119E+00


 Contracted 2-electron integrals neglected if value below      1.0D-22

       10790064. INTEGRALS WRITTEN OUT IN    2635 BLOCKS ON RECORD 1290 OF FILE 1


 NUMBER OF SORTED TWO-ELECTRON INTEGRALS:   11433631.     BUFFER LENGTH:  32768
 NUMBER OF SEGMENTS:   1  SEGMENT LENGTH:   11433631      RECORD LENGTH: 524288

 Memory used in sort:      11.99 MW

 SORT1 READ    10790064. AND WROTE    10943632. INTEGRALS IN     32 RECORDS. CPU TIME:     0.16 SEC, REAL TIME:     0.23 SEC
 SORT2 READ    10943632. AND WROTE    11433631. INTEGRALS IN      1 RECORDS. CPU TIME:     0.19 SEC, REAL TIME:     0.23 SEC

 FILE SIZES:   FILE 1:   193.0 MBYTE,  FILE 4:   134.3 MBYTE,   TOTAL:    327.2 MBYTE

 OPERATOR DM      FOR CENTER  0  COORDINATES:    0.000000    0.000000    0.000000


 **********************************************************************************************************************************
 DATASETS  * FILE   NREC   LENGTH (MB)   RECORD NAMES
              1      19      111.05       500      610      700      900      950      970     1000      129      960     1100   
                                          VAR    BASINP    GEOM    SYMINP    ZMAT    AOBASIS   BASIS     P2S    ABASIS      S 
                                         1400     1410     1200     1210     1080     1600     1650     1300     1700   
                                           T        V       H0       H01     AOSYM     SMH    MOLCAS    ERIS     OPER   

 PROGRAMS   *        TOTAL       INT
 CPU TIMES  *         1.35      1.26
 REAL TIME  *         2.07 SEC
 DISK USED  *       327.55 MB      
 **********************************************************************************************************************************


 PROGRAM * RHF-SCF (CLOSED SHELL)       Authors: W. Meyer, H.-J. Werner


 NUMBER OF ELECTRONS:       8+    8-
 CONVERGENCE THRESHOLDS:    1.00E-10 (Density)    1.00E-13 (Energy)
 MAX. NUMBER OF ITERATIONS:      500
 INTERPOLATION TYPE:            DIIS
 INTERPOLATION STEPS:              2 (START)      1 (STEP)
 LEVEL SHIFTS:                  0.00 (CLOSED)  0.00 (OPEN) 



 Orbital guess generated from atomic densities. Full valence occupancy:    9   2

 Molecular orbital dump at record        2100.2

 Initial occupancy:   7   1

 ITERATION    DDIFF          GRAD             ENERGY        2-EL.EN.            DIPOLE MOMENTS         DIIS   ORB.
    1      0.000D+00      0.000D+00      -129.79016973    154.114591    0.00000    0.59536   -1.00461    0    start
    2      0.000D+00      0.107D-01      -129.81777725    155.389036    0.00000    0.60792   -0.21537    1    diag
    3      0.117D-01      0.804D-02      -129.83932824    155.490002    0.00000    0.55772   -0.58666    2    diag
    4      0.581D-02      0.127D-02      -129.84010827    155.206225    0.00000    0.56519   -0.52751    3    diag
    5      0.107D-02      0.417D-03      -129.84023099    155.299408    0.00000    0.57073   -0.53041    4    diag
    6      0.444D-03      0.120D-03      -129.84025044    155.283990    0.00000    0.57114   -0.52644    5    diag
    7      0.169D-03      0.591D-04      -129.84025597    155.286521    0.00000    0.57239   -0.52396    6    diag
    8      0.116D-03      0.198D-04      -129.84025654    155.285890    0.00000    0.57241   -0.52300    7    diag
    9      0.424D-04      0.372D-05      -129.84025656    155.285788    0.00000    0.57238   -0.52280    8    diag
   10      0.808D-05      0.859D-06      -129.84025656    155.285770    0.00000    0.57234   -0.52277    9    orth
   11      0.169D-05      0.172D-06      -129.84025656    155.285767    0.00000    0.57234   -0.52277    9    diag
   12      0.329D-06      0.350D-07      -129.84025656    155.285766    0.00000    0.57233   -0.52277    9    diag
   13      0.705D-07      0.871D-08      -129.84025656    155.285766    0.00000    0.57233   -0.52277    9    diag
   14      0.182D-07      0.181D-08      -129.84025656    155.285766    0.00000    0.57233   -0.52277    9    diag
   15      0.364D-08      0.509D-09      -129.84025656    155.285766    0.00000    0.57233   -0.52277    9    diag
   16      0.993D-09      0.142D-09      -129.84025656    155.285766    0.00000    0.57233   -0.52277    9    diag
   17      0.182D-09      0.403D-10      -129.84025656    155.285766    0.00000    0.57233   -0.52277    9    diag
   18      0.510D-10      0.144D-10      -129.84025656    155.285766    0.00000    0.57233   -0.52277    9    diag
   19      0.259D-10      0.322D-11      -129.84025656    155.285766    0.00000    0.57233   -0.52277    9    fixocc
   20      0.614D-11      0.549D-12      -129.84025656    155.285766    0.00000    0.57233   -0.52277    9    orth
   21      0.111D-11      0.185D-12      -129.84025656    155.285766    0.00000    0.57233   -0.52277    9    diag
   22      0.875D-12      0.778D-13      -129.84025656    155.285766    0.00000    0.57233   -0.52277    0    orth

 Final occupancy:   7   1

 !RHF STATE 1.1 Energy               -129.840256561744
 Nuclear energy                        30.48988310
 One-electron energy                 -237.97302280
 Two-electron energy                   77.64288314
 Virial quotient                       -1.00194757
 !RHF STATE 1.1 Dipole moment           0.00000000     0.57233356    -0.52276729
 Dipole moment /Debye                   0.00000000     1.45463152    -1.32865489

 Orbital energies:

         1.1          2.1          3.1          4.1          5.1          6.1          7.1          8.1          9.1
    -20.656039   -15.712855    -1.534882    -0.995301    -0.749399    -0.667622    -0.428980     0.029232     0.092173

         1.2          2.2          3.2
     -0.598551     0.066240     0.130234

 HOMO      7.1    -0.428980 =     -11.6731eV
 LUMO      8.1     0.029232 =       0.7954eV
 LUMO-HOMO         0.458212 =      12.4686eV


 **********************************************************************************************************************************
 DATASETS  * FILE   NREC   LENGTH (MB)   RECORD NAMES
              1      19      111.05       500      610      700      900      950      970     1000      129      960     1100   
                                          VAR    BASINP    GEOM    SYMINP    ZMAT    AOBASIS   BASIS     P2S    ABASIS      S 
                                         1400     1410     1200     1210     1080     1600     1650     1300     1700   
                                           T        V       H0       H01     AOSYM     SMH    MOLCAS    ERIS     OPER   

              2       4        2.94       700     1000      520     2100   
                                         GEOM     BASIS   MCVARS     RHF  

 PROGRAMS   *        TOTAL        HF       INT
 CPU TIMES  *         2.55      1.19      1.26
 REAL TIME  *         3.59 SEC
 DISK USED  *       327.55 MB      
 **********************************************************************************************************************************


 PROGRAM * CCSD (Closed-shell coupled cluster)     Authors: C. Hampel, H.-J. Werner, 1991, M. Deegan, P.J. Knowles, 1992


 Convergence thresholds:  THRVAR = 1.00D-08  THRDEN = 1.00D-12

 CCSD(T)     terms to be evaluated (factor= 1.000)


 Number of core orbitals:           2 (   2   0 )
 Number of closed-shell orbitals:   6 (   5   1 )
 Number of external orbitals:     107 (  69  38 )

 Molecular orbitals read from record     2100.2  Type=RHF/CANONICAL (state 1.1)

 Number of N-1 electron functions:               6
 Number of N-2 electron functions:              21
 Number of singly external CSFs:               383
 Number of doubly external CSFs:            107206
 Total number of CSFs:                      107590

 Length of J-op  integral file:               0.00 MB
 Length of K-op  integral file:               0.54 MB
 Length of 3-ext integral record:             0.00 MB

 Memory could be reduced to 5.94 Mwords without degradation in triples

 Integral transformation finished. Total CPU:   0.14 sec, npass=  1  Memory used:   1.65 MW

 Reference energy:                   -129.84025656

 MP2 singlet pair energy:              -0.27878833
 MP2 triplet pair energy:              -0.16475943
 MP2 correlation energy:               -0.44354775
 MP2 total energy:                   -130.28380432

 SCS-MP2 correlation energy:           -0.43706297   (PS=  1.200000  PT=  0.333333)
 SCS-MP2 total energy:               -130.27731953

 ITER.      SQ.NORM     CORR.ENERGY   TOTAL ENERGY   ENERGY CHANGE        DEN1      VAR(S)    VAR(P)  DIIS     TIME  TIME/IT
   1      1.12023029    -0.44786474  -130.28812130    -0.00431698     0.01150108  0.31D-02  0.31D-02  1  1     0.30     0.16
   2      1.13120195    -0.44810205  -130.28835861    -0.00023731    -0.01229792  0.98D-04  0.50D-03  2  2     0.45     0.17
   3      1.13756388    -0.44849136  -130.28874792    -0.00038931    -0.00295838  0.52D-04  0.50D-04  3  3     0.60     0.17
   4      1.14038512    -0.44850301  -130.28875957    -0.00001165    -0.00095760  0.40D-05  0.90D-05  4  4     0.75     0.17
   5      1.14140223    -0.44853062  -130.28878718    -0.00002761    -0.00021533  0.11D-05  0.16D-05  5  5     0.91     0.17
   6      1.14173710    -0.44851436  -130.28877092     0.00001627    -0.00004072  0.94D-07  0.40D-06  6  6     1.06     0.17
   7      1.14181158    -0.44851553  -130.28877209    -0.00000117    -0.00000189  0.18D-07  0.92D-07  6  1     1.22     0.17
   8      1.14183285    -0.44851628  -130.28877285    -0.00000075     0.00000155  0.37D-08  0.16D-07  6  2     1.35     0.17
   9      1.14183807    -0.44851586  -130.28877242     0.00000042     0.00000041  0.27D-08  0.18D-08  6  4     1.49     0.17
  10      1.14184030    -0.44851633  -130.28877290    -0.00000047    -0.00000069  0.44D-09  0.21D-09  6  3     1.65     0.17
  11      1.14183979    -0.44851636  -130.28877292    -0.00000002    -0.00000006  0.15D-09  0.32D-10  6  5     1.81     0.17
  12      1.14183875    -0.44851651  -130.28877307    -0.00000015     0.00000033  0.17D-10  0.10D-10  6  6     1.98     0.17
  13      1.14183792    -0.44851654  -130.28877310    -0.00000003     0.00000021  0.60D-11  0.21D-11  6  1     2.13     0.17
  14      1.14183739    -0.44851657  -130.28877313    -0.00000003     0.00000013  0.95D-12  0.67D-12  6  2     2.29     0.18
  15      1.14183717    -0.44851658  -130.28877314    -0.00000001     0.00000003  0.26D-12  0.21D-12  6  4     2.44     0.18
  16      1.14183705    -0.44851658  -130.28877314    -0.00000000     0.00000002  0.36D-13  0.25D-13  6  5     2.59     0.18
  17      1.14183702    -0.44851658  -130.28877314    -0.00000000     0.00000000  0.64D-15  0.18D-14  6  3     2.75     0.18
  18      1.14183702    -0.44851658  -130.28877314     0.00000000    -0.00000000  0.21D-15  0.25D-15  6  6     2.91     0.18
  19      1.14183702    -0.44851658  -130.28877314     0.00000000    -0.00000000  0.64D-16  0.34D-16  6  1     3.06     0.18
  20      1.14183702    -0.44851658  -130.28877314     0.00000000    -0.00000000  0.17D-16  0.59D-17  6  2     3.21     0.18
  21      1.14183702    -0.44851658  -130.28877314     0.00000000    -0.00000000  0.31D-17  0.16D-17  6  5     3.35     0.18
  22      1.14183702    -0.44851658  -130.28877314    -0.00000000     0.00000000  0.31D-18  0.18D-18  6  4     3.51     0.18
  23      1.14183702    -0.44851658  -130.28877314     0.00000000     0.00000000  0.11D-18  0.36D-19  6  3     3.66     0.18
  24      1.14183702    -0.44851658  -130.28877314     0.00000000     0.00000000  0.11D-19  0.49D-20  6  2     3.82     0.18
  25      1.14183702    -0.44851658  -130.28877314     0.00000000    -0.00000000  0.19D-20  0.79D-21  6  6     3.97     0.18
  26      1.14183702    -0.44851658  -130.28877314     0.00000000    -0.00000000  0.42D-21  0.20D-21  6  1     4.11     0.18

 Norm of t1 vector:      0.07747264      S-energy:     0.00000000      T1 diagnostic:  0.01581404
                                                                       D1 diagnostic:  0.04142602

 Doubles amplitudes (print threshold =  0.500E-01):

         I         J         SYM. A    SYM. B    A         B      T(IJ, AB)

         6         6         2         2         1         1     -0.10668584


 Total CPU time for triples:      1.25 sec


 RESULTS
 =======

  Reference energy                   -129.840256561744
  CCSD singlet pair energy             -0.307376403873
  CCSD triplet pair energy             -0.141140175288
  CCSD correlation energy              -0.448516579160

  Triples (T) contribution             -0.020726027823
  Total correlation energy             -0.469242606984

  CCSD total energy                  -130.288773140905
  CCSD[T] energy                     -130.310540379900
  CCSD-T energy                      -130.309101537129
 !CCSD(T) total energy               -130.309499168728

 Timing summary (sec):

 STEP                 CPU(USER)    SYS     CPU(TOT)    WALL
 Transformation          0.14      0.04      0.18      0.19
 CCSD iterations         3.98      0.61      4.59      4.57
 Triples                 1.25      0.05      1.30      1.31

 Program statistics:

 Available memory in ccsd:               994999756
 Min. memory needed in ccsd:                389120
 Max. memory used in ccsd:                  473124
 Max. memory used in cckext:                599488 (26 integral passes)



 **********************************************************************************************************************************
 DATASETS  * FILE   NREC   LENGTH (MB)   RECORD NAMES
              1      20      128.20       500      610      700      900      950      970     1000      129      960     1100   
                                          VAR    BASINP    GEOM    SYMINP    ZMAT    AOBASIS   BASIS     P2S    ABASIS      S 
                                         1400     1410     1200     1210     1080     1600     1650     1300     1700     1380   
                                           T        V       H0       H01     AOSYM     SMH    MOLCAS    ERIS     OPER     JKOP   

              2       4        2.94       700     1000      520     2100   
                                         GEOM     BASIS   MCVARS     RHF  

 PROGRAMS   *        TOTAL   CCSD(T)        HF       INT
 CPU TIMES  *         7.94      5.40      1.19      1.26
 REAL TIME  *         9.69 SEC
 DISK USED  *       327.55 MB      
 **********************************************************************************************************************************

 CCSD(T)/aug-cc-pVTZ energy=   -130.309499168728

        CCSD(T)         HF-SCF  
   -130.30949917   -129.84025656
 **********************************************************************************************************************************
 Molpro calculation terminated
 Variable memory released
