
 Primary working directories    : /tmp/r2666/282202.maple
 Secondary working directories  : /tmp/r2666/282202.maple
 Wavefunction directory         : /ddn/home4/r2666/wfu/
 Main file repository           : /tmp/r2666/282202.maple/

 SHA1      : d5ffa45e93fdbca01ffc919aa182cfdae0147319
 NAME      : 2015.1.35
 ARCHNAME  : linux/x86_64
 FC        : /opt/intel/composer_xe_2015.1.133/bin/intel64/ifort
 BLASLIB   : -Wl,-_start-group /opt/intel/mkl/lib/intel64/libmkl_intel_ilp64.a /opt/intel/mkl/lib/intel64/libmkl_intel_thread.a /opt/intel/mkl/lib/intel64/libmkl_core.a -Wl,-_end-group
 id        : olemiss

 Nodes     nprocs
 cn004        1

 Using customized tuning parameters: mindgm=1; mindgv=20; mindgc=4; mindgr=1; noblas=0; minvec=7
 default implementation of scratch files=df  

 ***,hno CCSD(T)/TZ-F12 QFF
 memory, 995, m;
 gthresh,energy=1.d-12,zero=1.d-22,oneint=1.d-22,twoint=1.d-22;
 gthresh,optgrad=1.d-8,optstep=1.d-8;
 nocompress;
 geomtyp=xyz
 bohr
 geometry={
 3
         99        99
 H        0.0000000000        1.6716102446       -1.9363340083
 N        0.0000000000       -0.1621359488       -1.1442475161
 O        0.0000000000        0.0322934942        1.1299919334
 }
 
 basis=avtz
   {hf,maxit=500;accu,20;}
 {ccsd(t),nocheck,maxit=250;orbital,IGNORE_ERROR;}

 Variables initialized (889), CPU time= 0.00 sec
 Commands  initialized (702), CPU time= 0.01 sec, 572 directives.
 Default parameters read. Elapsed time= 0.08 sec

 Checking input...
 Passed
1


                                         ***  PROGRAM SYSTEM MOLPRO  ***
                                       Copyright, TTI GmbH Stuttgart, 2015
                                    Version 2015.1 linked Jul  9 2018 13:16:40


 **********************************************************************************************************************************
 LABEL *   hno CCSD(T)/TZ-F12 QFF                                                        
  64 bit serial version                                                                  DATE: 04-Mar-20          TIME: 13:46:38  
 **********************************************************************************************************************************

 SHA1:             d5ffa45e93fdbca01ffc919aa182cfdae0147319
 **********************************************************************************************************************************

 THRESHOLDS:

 ZERO    =  1.00D-22  ONEINT  =  1.00D-22  TWOINT  =  1.00D-22  PREFAC  =  1.00D-14  LOCALI  =  1.00D-09  EORDER  =  1.00D-04
 ENERGY  =  1.00D-12  ETEST   =  0.00D+00  EDENS   =  0.00D+00  THRDEDEF=  1.00D-06  GRADIENT=  1.00D-02  STEP    =  1.00D-03
 ORBITAL =  1.00D-05  CIVEC   =  1.00D-05  COEFF   =  1.00D-04  PRINTCI =  5.00D-02  PUNCHCI =  9.90D+01  OPTGRAD =  3.00D-04
 OPTENERG=  1.00D-06  OPTSTEP =  3.00D-04  THRGRAD =  1.00D-10  COMPRESS=  1.00D-11  VARMIN  =  1.00D-07  VARMAX  =  1.00D-03
 THRDOUB =  0.00D+00  THRDIV  =  1.00D-05  THRRED  =  1.00D-07  THRPSP  =  1.00D+00  THRDC   =  1.00D-10  THRCS   =  1.00D-10
 THRNRM  =  1.00D-08  THREQ   =  0.00D+00  THRDE   =  1.00D+00  THRREF  =  1.00D-05  SPARFAC =  1.00D+00  THRDLP  =  1.00D-07
 THRDIA  =  1.00D-10  THRDLS  =  1.00D-07  THRGPS  =  0.00D+00  THRKEX  =  0.00D+00  THRDIS  =  2.00D-01  THRVAR  =  1.00D-10
 THRLOC  =  1.00D-06  THRGAP  =  1.00D-06  THRLOCT = -1.00D+00  THRGAPT = -1.00D+00  THRORB  =  1.00D-06  THRMLTP =  0.00D+00
 THRCPQCI=  1.00D-10  KEXTA   =  0.00D+00  THRCOARS=  0.00D+00  SYMTOL  =  1.00D-06  GRADTOL =  1.00D-06  THROVL  =  1.00D-08
 THRORTH =  1.00D-08  GRID    =  1.00D-06  GRIDMAX =  1.00D-03  DTMAX   =  0.00D+00  THROCCDE=  1.00D-01  THROCCDE=  1.00D-01



 THRESHOLDS:

 ZERO    =  1.00D-22  ONEINT  =  1.00D-22  TWOINT  =  1.00D-22  PREFAC  =  1.00D-14  LOCALI  =  1.00D-09  EORDER  =  1.00D-04
 ENERGY  =  1.00D-12  ETEST   =  0.00D+00  EDENS   =  0.00D+00  THRDEDEF=  1.00D-06  GRADIENT=  1.00D-02  STEP    =  1.00D-03
 ORBITAL =  1.00D-05  CIVEC   =  1.00D-05  COEFF   =  1.00D-04  PRINTCI =  5.00D-02  PUNCHCI =  9.90D+01  OPTGRAD =  1.00D-08
 OPTENERG=  1.00D-06  OPTSTEP =  1.00D-08  THRGRAD =  1.00D-10  COMPRESS=  1.00D-11  VARMIN  =  1.00D-07  VARMAX  =  1.00D-03
 THRDOUB =  0.00D+00  THRDIV  =  1.00D-05  THRRED  =  1.00D-07  THRPSP  =  1.00D+00  THRDC   =  1.00D-10  THRCS   =  1.00D-10
 THRNRM  =  1.00D-08  THREQ   =  0.00D+00  THRDE   =  1.00D+00  THRREF  =  1.00D-05  SPARFAC =  1.00D+00  THRDLP  =  1.00D-07
 THRDIA  =  1.00D-10  THRDLS  =  1.00D-07  THRGPS  =  0.00D+00  THRKEX  =  0.00D+00  THRDIS  =  2.00D-01  THRVAR  =  1.00D-10
 THRLOC  =  1.00D-06  THRGAP  =  1.00D-06  THRLOCT = -1.00D+00  THRGAPT = -1.00D+00  THRORB  =  1.00D-06  THRMLTP =  0.00D+00
 THRCPQCI=  1.00D-10  KEXTA   =  0.00D+00  THRCOARS=  0.00D+00  SYMTOL  =  1.00D-06  GRADTOL =  1.00D-06  THROVL  =  1.00D-08
 THRORTH =  1.00D-08  GRID    =  1.00D-06  GRIDMAX =  1.00D-03  DTMAX   =  0.00D+00  THROCCDE=  1.00D-01  THROCCDE=  1.00D-01



 Input parameters for SORTINT:

 COMPRESS =    0.000000
 C_FINAL  =    1.000000
 DEBUG    =   -1.000000
 C_SORT1  =    0.000000
 C_SEWARD =    0.000000
 THRESH   =    0.000000
 IO       =  molpro                                                          
 SPRI     =    0.000000
 SETTING GEOMTYP        =    XYZ
 ZUNIT=BOHR
 

 Variable memory set to  995000000 words,  buffer space   230000 words

 SETTING BASIS          =    AVTZ


 Recomputing integrals since basis changed


 Using spherical harmonics

 Library entry H      S aug-cc-pVTZ          selected for orbital group  1
 Library entry H      P aug-cc-pVTZ          selected for orbital group  1
 Library entry H      D aug-cc-pVTZ          selected for orbital group  1
 Library entry N      S aug-cc-pVTZ          selected for orbital group  2
 Library entry N      P aug-cc-pVTZ          selected for orbital group  2
 Library entry N      D aug-cc-pVTZ          selected for orbital group  2
 Library entry N      F aug-cc-pVTZ          selected for orbital group  2
 Library entry O      S aug-cc-pVTZ          selected for orbital group  3
 Library entry O      P aug-cc-pVTZ          selected for orbital group  3
 Library entry O      D aug-cc-pVTZ          selected for orbital group  3
 Library entry O      F aug-cc-pVTZ          selected for orbital group  3


 PROGRAM * SEWARD (Integral evaluation for generally contracted gaussian basis sets)     Author: Roland Lindh, 1990

 Geometry written to block  1 of record 700


 Point group  Cs  



 ATOMIC COORDINATES

 NR  ATOM    CHARGE       X              Y              Z

   1  H       1.00    0.000000000    1.671610245   -1.936334008
   2  N       7.00    0.000000000   -0.162135949   -1.144247516
   3  O       8.00    0.000000000    0.032293494    1.129991933

 Bond lengths in Bohr (Angstrom)

 1-2  1.997504972  2-3  2.282535407
     ( 1.057034110)     ( 1.207865720)

 Bond angles

  1-2-3  108.47547239

 NUCLEAR CHARGE:                   16
 NUMBER OF PRIMITIVE AOS:         161
 NUMBER OF SYMMETRY AOS:          141
 NUMBER OF CONTRACTIONS:          115   (  76A'  +  39A"  )
 NUMBER OF CORE ORBITALS:           2   (   2A'  +   0A"  )
 NUMBER OF VALENCE ORBITALS:        9   (   7A'  +   2A"  )


 NUCLEAR REPULSION ENERGY   30.33930925

 Eigenvalues of metric

         1 0.233E-03 0.501E-03 0.182E-02 0.214E-02 0.253E-02 0.358E-02 0.434E-02 0.519E-02
         2 0.395E-02 0.102E-01 0.263E-01 0.372E-01 0.512E-01 0.624E-01 0.818E-01 0.120E+00


 Contracted 2-electron integrals neglected if value below      1.0D-22

       10790060. INTEGRALS WRITTEN OUT IN    2635 BLOCKS ON RECORD 1290 OF FILE 1


 NUMBER OF SORTED TWO-ELECTRON INTEGRALS:   11433631.     BUFFER LENGTH:  32768
 NUMBER OF SEGMENTS:   1  SEGMENT LENGTH:   11433631      RECORD LENGTH: 524288

 Memory used in sort:      11.99 MW

 SORT1 READ    10790060. AND WROTE    10943631. INTEGRALS IN     32 RECORDS. CPU TIME:     0.25 SEC, REAL TIME:     0.31 SEC
 SORT2 READ    10943631. AND WROTE    11433631. INTEGRALS IN      1 RECORDS. CPU TIME:     0.22 SEC, REAL TIME:     0.27 SEC

 FILE SIZES:   FILE 1:   193.0 MBYTE,  FILE 4:   134.3 MBYTE,   TOTAL:    327.2 MBYTE

 OPERATOR DM      FOR CENTER  0  COORDINATES:    0.000000    0.000000    0.000000


 **********************************************************************************************************************************
 DATASETS  * FILE   NREC   LENGTH (MB)   RECORD NAMES
              1      19      111.05       500      610      700      900      950      970     1000      129      960     1100   
                                          VAR    BASINP    GEOM    SYMINP    ZMAT    AOBASIS   BASIS     P2S    ABASIS      S 
                                         1400     1410     1200     1210     1080     1600     1650     1300     1700   
                                           T        V       H0       H01     AOSYM     SMH    MOLCAS    ERIS     OPER   

 PROGRAMS   *        TOTAL       INT
 CPU TIMES  *         1.72      1.58
 REAL TIME  *         2.53 SEC
 DISK USED  *       327.55 MB      
 **********************************************************************************************************************************


 PROGRAM * RHF-SCF (CLOSED SHELL)       Authors: W. Meyer, H.-J. Werner


 NUMBER OF ELECTRONS:       8+    8-
 CONVERGENCE THRESHOLDS:    1.00E-10 (Density)    1.00E-13 (Energy)
 MAX. NUMBER OF ITERATIONS:      500
 INTERPOLATION TYPE:            DIIS
 INTERPOLATION STEPS:              2 (START)      1 (STEP)
 LEVEL SHIFTS:                  0.00 (CLOSED)  0.00 (OPEN) 



 Orbital guess generated from atomic densities. Full valence occupancy:    9   2

 Molecular orbital dump at record        2100.2

 Initial occupancy:   7   1

 ITERATION    DDIFF          GRAD             ENERGY        2-EL.EN.            DIPOLE MOMENTS         DIIS   ORB.
    1      0.000D+00      0.000D+00      -129.78800495    153.837075    0.00000    0.59119   -1.02188    0    start
    2      0.000D+00      0.108D-01      -129.81546152    155.113807    0.00000    0.61014   -0.20906    1    diag
    3      0.119D-01      0.825D-02      -129.83826525    155.223224    0.00000    0.55661   -0.59304    2    diag
    4      0.594D-02      0.128D-02      -129.83905814    154.934029    0.00000    0.56388   -0.53308    3    diag
    5      0.107D-02      0.422D-03      -129.83918480    155.028495    0.00000    0.56957   -0.53595    4    diag
    6      0.451D-03      0.122D-03      -129.83920504    155.012877    0.00000    0.56996   -0.53186    5    diag
    7      0.173D-03      0.604D-04      -129.83921084    155.015410    0.00000    0.57122   -0.52931    6    diag
    8      0.119D-03      0.205D-04      -129.83921146    155.014754    0.00000    0.57125   -0.52831    7    diag
    9      0.445D-04      0.390D-05      -129.83921149    155.014644    0.00000    0.57121   -0.52810    8    diag
   10      0.860D-05      0.892D-06      -129.83921149    155.014624    0.00000    0.57118   -0.52807    9    orth
   11      0.176D-05      0.178D-06      -129.83921149    155.014621    0.00000    0.57117   -0.52806    9    diag
   12      0.340D-06      0.365D-07      -129.83921149    155.014621    0.00000    0.57117   -0.52806    9    diag
   13      0.731D-07      0.923D-08      -129.83921149    155.014621    0.00000    0.57117   -0.52806    9    diag
   14      0.192D-07      0.191D-08      -129.83921149    155.014621    0.00000    0.57117   -0.52806    9    diag
   15      0.381D-08      0.534D-09      -129.83921149    155.014621    0.00000    0.57117   -0.52806    9    diag
   16      0.104D-08      0.145D-09      -129.83921149    155.014621    0.00000    0.57117   -0.52806    9    diag
   17      0.183D-09      0.413D-10      -129.83921149    155.014621    0.00000    0.57117   -0.52806    9    diag
   18      0.509D-10      0.148D-10      -129.83921149    155.014621    0.00000    0.57117   -0.52806    0    orth

 Final occupancy:   7   1

 !RHF STATE 1.1 Energy               -129.839211489228
 Nuclear energy                        30.33930925
 One-electron energy                 -237.68583109
 Two-electron energy                   77.50731035
 Virial quotient                       -1.00222168
 !RHF STATE 1.1 Dipole moment           0.00000000     0.57116841    -0.52806284
 Dipole moment /Debye                   0.00000000     1.45167021    -1.34211396

 Orbital energies:

         1.1          2.1          3.1          4.1          5.1          6.1          7.1          8.1          9.1
    -20.656726   -15.715077    -1.530657    -0.993944    -0.746772    -0.666183    -0.429935     0.029154     0.092151

         1.2          2.2          3.2
     -0.596312     0.064864     0.130283

 HOMO      7.1    -0.429935 =     -11.6991eV
 LUMO      8.1     0.029154 =       0.7933eV
 LUMO-HOMO         0.459089 =      12.4924eV


 **********************************************************************************************************************************
 DATASETS  * FILE   NREC   LENGTH (MB)   RECORD NAMES
              1      19      111.05       500      610      700      900      950      970     1000      129      960     1100   
                                          VAR    BASINP    GEOM    SYMINP    ZMAT    AOBASIS   BASIS     P2S    ABASIS      S 
                                         1400     1410     1200     1210     1080     1600     1650     1300     1700   
                                           T        V       H0       H01     AOSYM     SMH    MOLCAS    ERIS     OPER   

              2       4        2.94       700     1000      520     2100   
                                         GEOM     BASIS   MCVARS     RHF  

 PROGRAMS   *        TOTAL        HF       INT
 CPU TIMES  *         2.91      1.18      1.58
 REAL TIME  *         3.94 SEC
 DISK USED  *       327.55 MB      
 **********************************************************************************************************************************


 PROGRAM * CCSD (Closed-shell coupled cluster)     Authors: C. Hampel, H.-J. Werner, 1991, M. Deegan, P.J. Knowles, 1992


 Convergence thresholds:  THRVAR = 1.00D-08  THRDEN = 1.00D-12

 CCSD(T)     terms to be evaluated (factor= 1.000)


 Number of core orbitals:           2 (   2   0 )
 Number of closed-shell orbitals:   6 (   5   1 )
 Number of external orbitals:     107 (  69  38 )

 Molecular orbitals read from record     2100.2  Type=RHF/CANONICAL (state 1.1)

 Number of N-1 electron functions:               6
 Number of N-2 electron functions:              21
 Number of singly external CSFs:               383
 Number of doubly external CSFs:            107206
 Total number of CSFs:                      107590

 Length of J-op  integral file:               0.00 MB
 Length of K-op  integral file:               0.54 MB
 Length of 3-ext integral record:             0.00 MB

 Memory could be reduced to 5.94 Mwords without degradation in triples

 Integral transformation finished. Total CPU:   0.20 sec, npass=  1  Memory used:   1.65 MW

 Reference energy:                   -129.83921149

 MP2 singlet pair energy:              -0.27955080
 MP2 triplet pair energy:              -0.16524911
 MP2 correlation energy:               -0.44479991
 MP2 total energy:                   -130.28401140

 SCS-MP2 correlation energy:           -0.43828263   (PS=  1.200000  PT=  0.333333)
 SCS-MP2 total energy:               -130.27749412

 ITER.      SQ.NORM     CORR.ENERGY   TOTAL ENERGY   ENERGY CHANGE        DEN1      VAR(S)    VAR(P)  DIIS     TIME  TIME/IT
   1      1.12111822    -0.44890123  -130.28811271    -0.00410131     0.01201135  0.32D-02  0.32D-02  1  1     0.43     0.24
   2      1.13227770    -0.44909473  -130.28830622    -0.00019350    -0.01247269  0.10D-03  0.51D-03  2  2     0.66     0.25
   3      1.13880684    -0.44949923  -130.28871072    -0.00040450    -0.00301422  0.55D-04  0.51D-04  3  3     0.90     0.25
   4      1.14170763    -0.44950966  -130.28872115    -0.00001043    -0.00098067  0.43D-05  0.93D-05  4  4     1.14     0.25
   5      1.14277192    -0.44953884  -130.28875033    -0.00002918    -0.00022534  0.12D-05  0.16D-05  5  5     1.37     0.25
   6      1.14311899    -0.44952177  -130.28873326     0.00001707    -0.00004227  0.10D-06  0.40D-06  6  6     1.62     0.25
   7      1.14319516    -0.44952282  -130.28873431    -0.00000105    -0.00000187  0.20D-07  0.93D-07  6  1     1.85     0.25
   8      1.14321725    -0.44952351  -130.28873500    -0.00000069     0.00000138  0.37D-08  0.17D-07  6  2     2.06     0.25
   9      1.14322282    -0.44952304  -130.28873452     0.00000047     0.00000050  0.28D-08  0.19D-08  6  4     2.30     0.25
  10      1.14322519    -0.44952352  -130.28873501    -0.00000049    -0.00000073  0.46D-09  0.22D-09  6  3     2.53     0.25
  11      1.14322468    -0.44952355  -130.28873504    -0.00000002    -0.00000007  0.16D-09  0.34D-10  6  5     2.78     0.25
  12      1.14322360    -0.44952370  -130.28873519    -0.00000015     0.00000034  0.19D-10  0.11D-10  6  6     3.02     0.25
  13      1.14322273    -0.44952374  -130.28873523    -0.00000004     0.00000022  0.65D-11  0.22D-11  6  1     3.25     0.25
  14      1.14322217    -0.44952377  -130.28873526    -0.00000003     0.00000014  0.10D-11  0.71D-12  6  2     3.48     0.25
  15      1.14322194    -0.44952378  -130.28873526    -0.00000001     0.00000003  0.29D-12  0.22D-12  6  4     3.71     0.25
  16      1.14322184    -0.44952378  -130.28873527    -0.00000000     0.00000001  0.55D-13  0.79D-13  6  3     3.94     0.25
  17      1.14322178    -0.44952378  -130.28873527    -0.00000000     0.00000001  0.39D-14  0.19D-13  6  5     4.19     0.25
  18      1.14322177    -0.44952378  -130.28873527     0.00000000    -0.00000000  0.14D-14  0.40D-14  6  6     4.42     0.25
  19      1.14322177    -0.44952378  -130.28873527    -0.00000000     0.00000000  0.11D-14  0.73D-15  6  1     4.65     0.25
  20      1.14322177    -0.44952378  -130.28873527     0.00000000    -0.00000000  0.24D-15  0.13D-15  6  2     4.87     0.25
  21      1.14322177    -0.44952378  -130.28873527     0.00000000    -0.00000000  0.56D-16  0.33D-16  6  3     5.09     0.25
  22      1.14322177    -0.44952378  -130.28873527     0.00000000     0.00000000  0.65D-17  0.29D-17  6  4     5.29     0.25
  23      1.14322177    -0.44952378  -130.28873527     0.00000000    -0.00000000  0.24D-17  0.60D-18  6  5     5.52     0.25
  24      1.14322177    -0.44952378  -130.28873527     0.00000000     0.00000000  0.16D-18  0.52D-19  6  2     5.77     0.25
  25      1.14322177    -0.44952378  -130.28873527    -0.00000000    -0.00000000  0.24D-19  0.13D-19  6  6     5.98     0.25
  26      1.14322177    -0.44952378  -130.28873527     0.00000000    -0.00000000  0.38D-20  0.22D-20  6  1     6.22     0.25
  27      1.14322177    -0.44952378  -130.28873527    -0.00000000    -0.00000000  0.52D-21  0.53D-21  6  4     6.47     0.25

 Norm of t1 vector:      0.07873773      S-energy:     0.00000000      T1 diagnostic:  0.01607227
                                                                       D1 diagnostic:  0.04211849

 Doubles amplitudes (print threshold =  0.500E-01):

         I         J         SYM. A    SYM. B    A         B      T(IJ, AB)

         6         6         2         2         1         1     -0.10885415


 Total CPU time for triples:      1.77 sec


 RESULTS
 =======

  Reference energy                   -129.839211489228
  CCSD singlet pair energy             -0.308240172832
  CCSD triplet pair energy             -0.141283607222
  CCSD correlation energy              -0.449523780052

  Triples (T) contribution             -0.020947051946
  Total correlation energy             -0.470470831998

  CCSD total energy                  -130.288735269280
  CCSD[T] energy                     -130.310755668175
  CCSD-T energy                      -130.309275517063
 !CCSD(T) total energy               -130.309682321226

 Timing summary (sec):

 STEP                 CPU(USER)    SYS     CPU(TOT)    WALL
 Transformation          0.20      0.04      0.24      0.25
 CCSD iterations         6.27      0.58      6.85      6.86
 Triples                 1.77      0.05      1.82      1.82

 Program statistics:

 Available memory in ccsd:               994999756
 Min. memory needed in ccsd:                389120
 Max. memory used in ccsd:                  473124
 Max. memory used in cckext:                599488 (27 integral passes)



 **********************************************************************************************************************************
 DATASETS  * FILE   NREC   LENGTH (MB)   RECORD NAMES
              1      20      128.20       500      610      700      900      950      970     1000      129      960     1100   
                                          VAR    BASINP    GEOM    SYMINP    ZMAT    AOBASIS   BASIS     P2S    ABASIS      S 
                                         1400     1410     1200     1210     1080     1600     1650     1300     1700     1380   
                                           T        V       H0       H01     AOSYM     SMH    MOLCAS    ERIS     OPER     JKOP   

              2       4        2.94       700     1000      520     2100   
                                         GEOM     BASIS   MCVARS     RHF  

 PROGRAMS   *        TOTAL   CCSD(T)        HF       INT
 CPU TIMES  *        11.17      8.26      1.18      1.58
 REAL TIME  *        12.91 SEC
 DISK USED  *       327.55 MB      
 **********************************************************************************************************************************

 CCSD(T)/aug-cc-pVTZ energy=   -130.309682321226

        CCSD(T)         HF-SCF  
   -130.30968232   -129.83921149
 **********************************************************************************************************************************
 Molpro calculation terminated
 Variable memory released
