
 Primary working directories    : /tmp/r2666/282176.maple
 Secondary working directories  : /tmp/r2666/282176.maple
 Wavefunction directory         : /ddn/home4/r2666/wfu/
 Main file repository           : /tmp/r2666/282176.maple/

 SHA1      : d5ffa45e93fdbca01ffc919aa182cfdae0147319
 NAME      : 2015.1.35
 ARCHNAME  : linux/x86_64
 FC        : /opt/intel/composer_xe_2015.1.133/bin/intel64/ifort
 BLASLIB   : -Wl,-_start-group /opt/intel/mkl/lib/intel64/libmkl_intel_ilp64.a /opt/intel/mkl/lib/intel64/libmkl_intel_thread.a /opt/intel/mkl/lib/intel64/libmkl_core.a -Wl,-_end-group
 id        : olemiss

 Nodes     nprocs
 cn053        1

 Using customized tuning parameters: mindgm=1; mindgv=20; mindgc=4; mindgr=1; noblas=0; minvec=7
 default implementation of scratch files=df  

 ***,hno CCSD(T)/TZ-F12 QFF
 memory, 995, m;
 gthresh,energy=1.d-12,zero=1.d-22,oneint=1.d-22,twoint=1.d-22;
 gthresh,optgrad=1.d-8,optstep=1.d-8;
 nocompress;
 geomtyp=xyz
 bohr
 geometry={
 3
         73        73
 H        0.0000000000        1.6676568771       -1.9313481163
 N        0.0000000000       -0.1610207466       -1.1514082676
 O        0.0000000000        0.0351316594        1.1321667929
 }
 
 basis=avtz
   {hf,maxit=500;accu,20;}
 {ccsd(t),nocheck,maxit=250;orbital,IGNORE_ERROR;}

 Variables initialized (889), CPU time= 0.00 sec
 Commands  initialized (702), CPU time= 0.01 sec, 572 directives.
 Default parameters read. Elapsed time= 0.06 sec

 Checking input...
 Passed
1


                                         ***  PROGRAM SYSTEM MOLPRO  ***
                                       Copyright, TTI GmbH Stuttgart, 2015
                                    Version 2015.1 linked Jul  9 2018 13:16:40


 **********************************************************************************************************************************
 LABEL *   hno CCSD(T)/TZ-F12 QFF                                                        
  64 bit serial version                                                                  DATE: 04-Mar-20          TIME: 13:46:28  
 **********************************************************************************************************************************

 SHA1:             d5ffa45e93fdbca01ffc919aa182cfdae0147319
 **********************************************************************************************************************************

 THRESHOLDS:

 ZERO    =  1.00D-22  ONEINT  =  1.00D-22  TWOINT  =  1.00D-22  PREFAC  =  1.00D-14  LOCALI  =  1.00D-09  EORDER  =  1.00D-04
 ENERGY  =  1.00D-12  ETEST   =  0.00D+00  EDENS   =  0.00D+00  THRDEDEF=  1.00D-06  GRADIENT=  1.00D-02  STEP    =  1.00D-03
 ORBITAL =  1.00D-05  CIVEC   =  1.00D-05  COEFF   =  1.00D-04  PRINTCI =  5.00D-02  PUNCHCI =  9.90D+01  OPTGRAD =  3.00D-04
 OPTENERG=  1.00D-06  OPTSTEP =  3.00D-04  THRGRAD =  1.00D-10  COMPRESS=  1.00D-11  VARMIN  =  1.00D-07  VARMAX  =  1.00D-03
 THRDOUB =  0.00D+00  THRDIV  =  1.00D-05  THRRED  =  1.00D-07  THRPSP  =  1.00D+00  THRDC   =  1.00D-10  THRCS   =  1.00D-10
 THRNRM  =  1.00D-08  THREQ   =  0.00D+00  THRDE   =  1.00D+00  THRREF  =  1.00D-05  SPARFAC =  1.00D+00  THRDLP  =  1.00D-07
 THRDIA  =  1.00D-10  THRDLS  =  1.00D-07  THRGPS  =  0.00D+00  THRKEX  =  0.00D+00  THRDIS  =  2.00D-01  THRVAR  =  1.00D-10
 THRLOC  =  1.00D-06  THRGAP  =  1.00D-06  THRLOCT = -1.00D+00  THRGAPT = -1.00D+00  THRORB  =  1.00D-06  THRMLTP =  0.00D+00
 THRCPQCI=  1.00D-10  KEXTA   =  0.00D+00  THRCOARS=  0.00D+00  SYMTOL  =  1.00D-06  GRADTOL =  1.00D-06  THROVL  =  1.00D-08
 THRORTH =  1.00D-08  GRID    =  1.00D-06  GRIDMAX =  1.00D-03  DTMAX   =  0.00D+00  THROCCDE=  1.00D-01  THROCCDE=  1.00D-01



 THRESHOLDS:

 ZERO    =  1.00D-22  ONEINT  =  1.00D-22  TWOINT  =  1.00D-22  PREFAC  =  1.00D-14  LOCALI  =  1.00D-09  EORDER  =  1.00D-04
 ENERGY  =  1.00D-12  ETEST   =  0.00D+00  EDENS   =  0.00D+00  THRDEDEF=  1.00D-06  GRADIENT=  1.00D-02  STEP    =  1.00D-03
 ORBITAL =  1.00D-05  CIVEC   =  1.00D-05  COEFF   =  1.00D-04  PRINTCI =  5.00D-02  PUNCHCI =  9.90D+01  OPTGRAD =  1.00D-08
 OPTENERG=  1.00D-06  OPTSTEP =  1.00D-08  THRGRAD =  1.00D-10  COMPRESS=  1.00D-11  VARMIN  =  1.00D-07  VARMAX  =  1.00D-03
 THRDOUB =  0.00D+00  THRDIV  =  1.00D-05  THRRED  =  1.00D-07  THRPSP  =  1.00D+00  THRDC   =  1.00D-10  THRCS   =  1.00D-10
 THRNRM  =  1.00D-08  THREQ   =  0.00D+00  THRDE   =  1.00D+00  THRREF  =  1.00D-05  SPARFAC =  1.00D+00  THRDLP  =  1.00D-07
 THRDIA  =  1.00D-10  THRDLS  =  1.00D-07  THRGPS  =  0.00D+00  THRKEX  =  0.00D+00  THRDIS  =  2.00D-01  THRVAR  =  1.00D-10
 THRLOC  =  1.00D-06  THRGAP  =  1.00D-06  THRLOCT = -1.00D+00  THRGAPT = -1.00D+00  THRORB  =  1.00D-06  THRMLTP =  0.00D+00
 THRCPQCI=  1.00D-10  KEXTA   =  0.00D+00  THRCOARS=  0.00D+00  SYMTOL  =  1.00D-06  GRADTOL =  1.00D-06  THROVL  =  1.00D-08
 THRORTH =  1.00D-08  GRID    =  1.00D-06  GRIDMAX =  1.00D-03  DTMAX   =  0.00D+00  THROCCDE=  1.00D-01  THROCCDE=  1.00D-01



 Input parameters for SORTINT:

 COMPRESS =    0.000000
 C_FINAL  =    1.000000
 DEBUG    =   -1.000000
 C_SORT1  =    0.000000
 C_SEWARD =    0.000000
 THRESH   =    0.000000
 IO       =  molpro                                                          
 SPRI     =    0.000000
 SETTING GEOMTYP        =    XYZ
 ZUNIT=BOHR
 

 Variable memory set to  995000000 words,  buffer space   230000 words

 SETTING BASIS          =    AVTZ


 Recomputing integrals since basis changed


 Using spherical harmonics

 Library entry H      S aug-cc-pVTZ          selected for orbital group  1
 Library entry H      P aug-cc-pVTZ          selected for orbital group  1
 Library entry H      D aug-cc-pVTZ          selected for orbital group  1
 Library entry N      S aug-cc-pVTZ          selected for orbital group  2
 Library entry N      P aug-cc-pVTZ          selected for orbital group  2
 Library entry N      D aug-cc-pVTZ          selected for orbital group  2
 Library entry N      F aug-cc-pVTZ          selected for orbital group  2
 Library entry O      S aug-cc-pVTZ          selected for orbital group  3
 Library entry O      P aug-cc-pVTZ          selected for orbital group  3
 Library entry O      D aug-cc-pVTZ          selected for orbital group  3
 Library entry O      F aug-cc-pVTZ          selected for orbital group  3


 PROGRAM * SEWARD (Integral evaluation for generally contracted gaussian basis sets)     Author: Roland Lindh, 1990

 Geometry written to block  1 of record 700


 Point group  Cs  



 ATOMIC COORDINATES

 NR  ATOM    CHARGE       X              Y              Z

   1  H       1.00    0.000000000    1.667656877   -1.931348116
   2  N       7.00    0.000000000   -0.161020747   -1.151408268
   3  O       8.00    0.000000000    0.035131659    1.132166793

 Bond lengths in Bohr (Angstrom)

 1-2  1.988056342  2-3  2.291984036
     ( 1.052034110)     ( 1.212865720)

 Bond angles

  1-2-3  108.18899349

 NUCLEAR CHARGE:                   16
 NUMBER OF PRIMITIVE AOS:         161
 NUMBER OF SYMMETRY AOS:          141
 NUMBER OF CONTRACTIONS:          115   (  76A'  +  39A"  )
 NUMBER OF CORE ORBITALS:           2   (   2A'  +   0A"  )
 NUMBER OF VALENCE ORBITALS:        9   (   7A'  +   2A"  )


 NUCLEAR REPULSION ENERGY   30.25858665

 Eigenvalues of metric

         1 0.233E-03 0.502E-03 0.182E-02 0.214E-02 0.257E-02 0.365E-02 0.432E-02 0.517E-02
         2 0.400E-02 0.101E-01 0.264E-01 0.372E-01 0.513E-01 0.623E-01 0.825E-01 0.120E+00


 Contracted 2-electron integrals neglected if value below      1.0D-22

       10790064. INTEGRALS WRITTEN OUT IN    2635 BLOCKS ON RECORD 1290 OF FILE 1


 NUMBER OF SORTED TWO-ELECTRON INTEGRALS:   11433631.     BUFFER LENGTH:  32768
 NUMBER OF SEGMENTS:   1  SEGMENT LENGTH:   11433631      RECORD LENGTH: 524288

 Memory used in sort:      11.99 MW

 SORT1 READ    10790064. AND WROTE    10943632. INTEGRALS IN     32 RECORDS. CPU TIME:     0.33 SEC, REAL TIME:     0.42 SEC
 SORT2 READ    10943632. AND WROTE    11433631. INTEGRALS IN      1 RECORDS. CPU TIME:     0.21 SEC, REAL TIME:     0.29 SEC

 FILE SIZES:   FILE 1:   193.0 MBYTE,  FILE 4:   134.3 MBYTE,   TOTAL:    327.2 MBYTE

 OPERATOR DM      FOR CENTER  0  COORDINATES:    0.000000    0.000000    0.000000


 **********************************************************************************************************************************
 DATASETS  * FILE   NREC   LENGTH (MB)   RECORD NAMES
              1      19      111.05       500      610      700      900      950      970     1000      129      960     1100   
                                          VAR    BASINP    GEOM    SYMINP    ZMAT    AOBASIS   BASIS     P2S    ABASIS      S 
                                         1400     1410     1200     1210     1080     1600     1650     1300     1700   
                                           T        V       H0       H01     AOSYM     SMH    MOLCAS    ERIS     OPER   

 PROGRAMS   *        TOTAL       INT
 CPU TIMES  *         1.92      1.81
 REAL TIME  *         3.01 SEC
 DISK USED  *       327.55 MB      
 **********************************************************************************************************************************


 PROGRAM * RHF-SCF (CLOSED SHELL)       Authors: W. Meyer, H.-J. Werner


 NUMBER OF ELECTRONS:       8+    8-
 CONVERGENCE THRESHOLDS:    1.00E-10 (Density)    1.00E-13 (Energy)
 MAX. NUMBER OF ITERATIONS:      500
 INTERPOLATION TYPE:            DIIS
 INTERPOLATION STEPS:              2 (START)      1 (STEP)
 LEVEL SHIFTS:                  0.00 (CLOSED)  0.00 (OPEN) 



 Orbital guess generated from atomic densities. Full valence occupancy:    9   2

 Molecular orbital dump at record        2100.2

 Initial occupancy:   7   1

 ITERATION    DDIFF          GRAD             ENERGY        2-EL.EN.            DIPOLE MOMENTS         DIIS   ORB.
    1      0.000D+00      0.000D+00      -129.78696177    153.698221    0.00000    0.59420   -1.03695    0    start
    2      0.000D+00      0.108D-01      -129.81426439    154.956800    0.00000    0.61389   -0.20748    1    diag
    3      0.120D-01      0.836D-02      -129.83770966    155.079564    0.00000    0.55954   -0.59995    2    diag
    4      0.601D-02      0.128D-02      -129.83851163    154.787334    0.00000    0.56687   -0.53924    3    diag
    5      0.108D-02      0.424D-03      -129.83863942    154.881755    0.00000    0.57245   -0.54197    4    diag
    6      0.454D-03      0.122D-03      -129.83865982    154.866120    0.00000    0.57280   -0.53779    5    diag
    7      0.173D-03      0.609D-04      -129.83866575    154.868582    0.00000    0.57404   -0.53517    6    diag
    8      0.120D-03      0.210D-04      -129.83866641    154.867911    0.00000    0.57406   -0.53413    7    diag
    9      0.461D-04      0.400D-05      -129.83866644    154.867799    0.00000    0.57402   -0.53391    8    diag
   10      0.895D-05      0.903D-06      -129.83866644    154.867780    0.00000    0.57399   -0.53388    9    orth
   11      0.178D-05      0.179D-06      -129.83866644    154.867777    0.00000    0.57398   -0.53388    9    diag
   12      0.338D-06      0.370D-07      -129.83866644    154.867776    0.00000    0.57398   -0.53388    9    diag
   13      0.727D-07      0.946D-08      -129.83866644    154.867776    0.00000    0.57398   -0.53388    9    diag
   14      0.193D-07      0.195D-08      -129.83866644    154.867776    0.00000    0.57398   -0.53388    9    diag
   15      0.375D-08      0.537D-09      -129.83866644    154.867776    0.00000    0.57398   -0.53388    9    diag
   16      0.103D-08      0.143D-09      -129.83866644    154.867776    0.00000    0.57398   -0.53388    9    diag
   17      0.174D-09      0.391D-10      -129.83866644    154.867776    0.00000    0.57398   -0.53388    9    diag
   18      0.470D-10      0.137D-10      -129.83866644    154.867776    0.00000    0.57398   -0.53388    9    diag
   19      0.243D-10      0.290D-11      -129.83866644    154.867776    0.00000    0.57398   -0.53388    9    fixocc
   20      0.576D-11      0.496D-12      -129.83866644    154.867776    0.00000    0.57398   -0.53388    9    orth
   21      0.153D-11      0.184D-12      -129.83866644    154.867776    0.00000    0.57398   -0.53388    9    diag
   22      0.191D-11      0.725D-13      -129.83866644    154.867776    0.00000    0.57398   -0.53388    0    orth

 Final occupancy:   7   1

 !RHF STATE 1.1 Energy               -129.838666444810
 Nuclear energy                        30.25858665
 One-electron energy                 -237.53114128
 Two-electron energy                   77.43388818
 Virial quotient                       -1.00230377
 !RHF STATE 1.1 Dipole moment           0.00000000     0.57397978    -0.53387881
 Dipole moment /Debye                   0.00000000     1.45881552    -1.35689569

 Orbital energies:

         1.1          2.1          3.1          4.1          5.1          6.1          7.1          8.1          9.1
    -20.657035   -15.715314    -1.526777    -0.996191    -0.745814    -0.664692    -0.431951     0.029112     0.092149

         1.2          2.2          3.2
     -0.593908     0.063507     0.130071

 HOMO      7.1    -0.431951 =     -11.7540eV
 LUMO      8.1     0.029112 =       0.7922eV
 LUMO-HOMO         0.461063 =      12.5462eV


 **********************************************************************************************************************************
 DATASETS  * FILE   NREC   LENGTH (MB)   RECORD NAMES
              1      19      111.05       500      610      700      900      950      970     1000      129      960     1100   
                                          VAR    BASINP    GEOM    SYMINP    ZMAT    AOBASIS   BASIS     P2S    ABASIS      S 
                                         1400     1410     1200     1210     1080     1600     1650     1300     1700   
                                           T        V       H0       H01     AOSYM     SMH    MOLCAS    ERIS     OPER   

              2       4        2.94       700     1000      520     2100   
                                         GEOM     BASIS   MCVARS     RHF  

 PROGRAMS   *        TOTAL        HF       INT
 CPU TIMES  *         3.44      1.52      1.81
 REAL TIME  *         4.95 SEC
 DISK USED  *       327.55 MB      
 **********************************************************************************************************************************


 PROGRAM * CCSD (Closed-shell coupled cluster)     Authors: C. Hampel, H.-J. Werner, 1991, M. Deegan, P.J. Knowles, 1992


 Convergence thresholds:  THRVAR = 1.00D-08  THRDEN = 1.00D-12

 CCSD(T)     terms to be evaluated (factor= 1.000)


 Number of core orbitals:           2 (   2   0 )
 Number of closed-shell orbitals:   6 (   5   1 )
 Number of external orbitals:     107 (  69  38 )

 Molecular orbitals read from record     2100.2  Type=RHF/CANONICAL (state 1.1)

 Number of N-1 electron functions:               6
 Number of N-2 electron functions:              21
 Number of singly external CSFs:               383
 Number of doubly external CSFs:            107206
 Total number of CSFs:                      107590

 Length of J-op  integral file:               0.00 MB
 Length of K-op  integral file:               0.54 MB
 Length of 3-ext integral record:             0.00 MB

 Memory could be reduced to 5.94 Mwords without degradation in triples

 Integral transformation finished. Total CPU:   0.23 sec, npass=  1  Memory used:   1.65 MW

 Reference energy:                   -129.83866644

 MP2 singlet pair energy:              -0.27995960
 MP2 triplet pair energy:              -0.16553094
 MP2 correlation energy:               -0.44549054
 MP2 total energy:                   -130.28415699

 SCS-MP2 correlation energy:           -0.43894855   (PS=  1.200000  PT=  0.333333)
 SCS-MP2 total energy:               -130.27761500

 ITER.      SQ.NORM     CORR.ENERGY   TOTAL ENERGY   ENERGY CHANGE        DEN1      VAR(S)    VAR(P)  DIIS     TIME  TIME/IT
   1      1.12148610    -0.44940997  -130.28807641    -0.00391942     0.01235473  0.32D-02  0.32D-02  1  1     0.48     0.25
   2      1.13273368    -0.44956831  -130.28823476    -0.00015835    -0.01256574  0.10D-03  0.52D-03  2  2     0.70     0.25
   3      1.13933516    -0.44997723  -130.28864368    -0.00040892    -0.00303649  0.55D-04  0.52D-04  3  3     0.93     0.25
   4      1.14228588    -0.44998894  -130.28865539    -0.00001171    -0.00099335  0.43D-05  0.94D-05  4  4     1.17     0.26
   5      1.14336988    -0.45001872  -130.28868516    -0.00002978    -0.00022917  0.12D-05  0.17D-05  5  5     1.41     0.26
   6      1.14372098    -0.45000108  -130.28866752     0.00001764    -0.00004303  0.10D-06  0.40D-06  6  6     1.66     0.26
   7      1.14379585    -0.45000234  -130.28866878    -0.00000126    -0.00000160  0.19D-07  0.94D-07  6  1     1.88     0.26
   8      1.14381750    -0.45000297  -130.28866942    -0.00000064     0.00000152  0.36D-08  0.17D-07  6  2     2.13     0.26
   9      1.14382294    -0.45000251  -130.28866896     0.00000046     0.00000047  0.29D-08  0.20D-08  6  4     2.35     0.26
  10      1.14382535    -0.45000300  -130.28866945    -0.00000049    -0.00000074  0.47D-09  0.23D-09  6  3     2.60     0.26
  11      1.14382487    -0.45000302  -130.28866947    -0.00000002    -0.00000008  0.16D-09  0.35D-10  6  5     2.83     0.26
  12      1.14382379    -0.45000318  -130.28866963    -0.00000016     0.00000035  0.19D-10  0.11D-10  6  6     3.07     0.26
  13      1.14382291    -0.45000322  -130.28866966    -0.00000004     0.00000022  0.65D-11  0.23D-11  6  1     3.31     0.26
  14      1.14382234    -0.45000325  -130.28866969    -0.00000003     0.00000014  0.10D-11  0.74D-12  6  2     3.53     0.26
  15      1.14382210    -0.45000326  -130.28866970    -0.00000001     0.00000004  0.28D-12  0.23D-12  6  4     3.75     0.26
  16      1.14382200    -0.45000326  -130.28866970    -0.00000000     0.00000001  0.53D-13  0.82D-13  6  3     4.00     0.26
  17      1.14382194    -0.45000326  -130.28866971    -0.00000000     0.00000001  0.40D-14  0.19D-13  6  5     4.23     0.26
  18      1.14382193    -0.45000326  -130.28866971     0.00000000    -0.00000000  0.14D-14  0.41D-14  6  6     4.47     0.26
  19      1.14382193    -0.45000326  -130.28866971    -0.00000000     0.00000000  0.12D-14  0.72D-15  6  1     4.70     0.26
  20      1.14382193    -0.45000326  -130.28866971     0.00000000    -0.00000000  0.23D-15  0.13D-15  6  2     4.94     0.26
  21      1.14382193    -0.45000326  -130.28866971     0.00000000    -0.00000000  0.58D-16  0.32D-16  6  3     5.18     0.26
  22      1.14382193    -0.45000326  -130.28866971     0.00000000     0.00000000  0.66D-17  0.29D-17  6  4     5.43     0.26
  23      1.14382193    -0.45000326  -130.28866971     0.00000000    -0.00000000  0.24D-17  0.60D-18  6  5     5.68     0.26
  24      1.14382193    -0.45000326  -130.28866971     0.00000000     0.00000000  0.16D-18  0.53D-19  6  2     5.91     0.26
  25      1.14382193    -0.45000326  -130.28866971    -0.00000000    -0.00000000  0.25D-19  0.13D-19  6  6     6.15     0.27
  26      1.14382193    -0.45000326  -130.28866971     0.00000000    -0.00000000  0.38D-20  0.24D-20  6  1     6.39     0.27
  27      1.14382193    -0.45000326  -130.28866971    -0.00000000    -0.00000000  0.51D-21  0.58D-21  6  4     6.63     0.27

 Norm of t1 vector:      0.07925589      S-energy:    -0.00000000      T1 diagnostic:  0.01617804
                                                                       D1 diagnostic:  0.04275629

 Doubles amplitudes (print threshold =  0.500E-01):

         I         J         SYM. A    SYM. B    A         B      T(IJ, AB)

         6         6         2         2         1         1     -0.11109734


 Total CPU time for triples:      2.29 sec


 RESULTS
 =======

  Reference energy                   -129.838666444810
  CCSD singlet pair energy             -0.308655567875
  CCSD triplet pair energy             -0.141347693517
  CCSD correlation energy              -0.450003261391

  Triples (T) contribution             -0.021066265335
  Total correlation energy             -0.471069526727

  CCSD total energy                  -130.288669706201
  CCSD[T] energy                     -130.310824384255
  CCSD-T energy                      -130.309326436402
 !CCSD(T) total energy               -130.309735971537

 Timing summary (sec):

 STEP                 CPU(USER)    SYS     CPU(TOT)    WALL
 Transformation          0.23      0.03      0.26      0.26
 CCSD iterations         6.40      0.81      7.21      7.21
 Triples                 2.29      0.08      2.37      2.37

 Program statistics:

 Available memory in ccsd:               994999756
 Min. memory needed in ccsd:                389120
 Max. memory used in ccsd:                  473124
 Max. memory used in cckext:                599488 (27 integral passes)



 **********************************************************************************************************************************
 DATASETS  * FILE   NREC   LENGTH (MB)   RECORD NAMES
              1      20      128.20       500      610      700      900      950      970     1000      129      960     1100   
                                          VAR    BASINP    GEOM    SYMINP    ZMAT    AOBASIS   BASIS     P2S    ABASIS      S 
                                         1400     1410     1200     1210     1080     1600     1650     1300     1700     1380   
                                           T        V       H0       H01     AOSYM     SMH    MOLCAS    ERIS     OPER     JKOP   

              2       4        2.94       700     1000      520     2100   
                                         GEOM     BASIS   MCVARS     RHF  

 PROGRAMS   *        TOTAL   CCSD(T)        HF       INT
 CPU TIMES  *        12.38      8.94      1.52      1.81
 REAL TIME  *        14.85 SEC
 DISK USED  *       327.55 MB      
 **********************************************************************************************************************************

 CCSD(T)/aug-cc-pVTZ energy=   -130.309735971537

        CCSD(T)         HF-SCF  
   -130.30973597   -129.83866644
 **********************************************************************************************************************************
 Molpro calculation terminated
 Variable memory released
