
 Primary working directories    : /tmp/r2666/282211.maple
 Secondary working directories  : /tmp/r2666/282211.maple
 Wavefunction directory         : /ddn/home4/r2666/wfu/
 Main file repository           : /tmp/r2666/282211.maple/

 SHA1      : d5ffa45e93fdbca01ffc919aa182cfdae0147319
 NAME      : 2015.1.35
 ARCHNAME  : linux/x86_64
 FC        : /opt/intel/composer_xe_2015.1.133/bin/intel64/ifort
 BLASLIB   : -Wl,-_start-group /opt/intel/mkl/lib/intel64/libmkl_intel_ilp64.a /opt/intel/mkl/lib/intel64/libmkl_intel_thread.a /opt/intel/mkl/lib/intel64/libmkl_core.a -Wl,-_end-group
 id        : olemiss

 Nodes     nprocs
 cn046        1

 Using customized tuning parameters: mindgm=1; mindgv=20; mindgc=4; mindgr=1; noblas=0; minvec=7
 default implementation of scratch files=df  

 ***,hno CCSD(T)/TZ-F12 QFF
 memory, 995, m;
 gthresh,energy=1.d-12,zero=1.d-22,oneint=1.d-22,twoint=1.d-22;
 gthresh,optgrad=1.d-8,optstep=1.d-8;
 nocompress;
 geomtyp=xyz
 bohr
 geometry={
 3
        108       108
 H        0.0000000000        1.6730169914       -1.9371054457
 N        0.0000000000       -0.1642516276       -1.1532239909
 O        0.0000000000        0.0330024262        1.1397398457
 }
 
 basis=avtz
   {hf,maxit=500;accu,20;}
 {ccsd(t),nocheck,maxit=250;orbital,IGNORE_ERROR;}

 Variables initialized (889), CPU time= 0.01 sec
 Commands  initialized (702), CPU time= 0.00 sec, 572 directives.
 Default parameters read. Elapsed time= 0.05 sec

 Checking input...
 Passed
1


                                         ***  PROGRAM SYSTEM MOLPRO  ***
                                       Copyright, TTI GmbH Stuttgart, 2015
                                    Version 2015.1 linked Jul  9 2018 13:16:40


 **********************************************************************************************************************************
 LABEL *   hno CCSD(T)/TZ-F12 QFF                                                        
  64 bit serial version                                                                  DATE: 04-Mar-20          TIME: 13:46:43  
 **********************************************************************************************************************************

 SHA1:             d5ffa45e93fdbca01ffc919aa182cfdae0147319
 **********************************************************************************************************************************

 THRESHOLDS:

 ZERO    =  1.00D-22  ONEINT  =  1.00D-22  TWOINT  =  1.00D-22  PREFAC  =  1.00D-14  LOCALI  =  1.00D-09  EORDER  =  1.00D-04
 ENERGY  =  1.00D-12  ETEST   =  0.00D+00  EDENS   =  0.00D+00  THRDEDEF=  1.00D-06  GRADIENT=  1.00D-02  STEP    =  1.00D-03
 ORBITAL =  1.00D-05  CIVEC   =  1.00D-05  COEFF   =  1.00D-04  PRINTCI =  5.00D-02  PUNCHCI =  9.90D+01  OPTGRAD =  3.00D-04
 OPTENERG=  1.00D-06  OPTSTEP =  3.00D-04  THRGRAD =  1.00D-10  COMPRESS=  1.00D-11  VARMIN  =  1.00D-07  VARMAX  =  1.00D-03
 THRDOUB =  0.00D+00  THRDIV  =  1.00D-05  THRRED  =  1.00D-07  THRPSP  =  1.00D+00  THRDC   =  1.00D-10  THRCS   =  1.00D-10
 THRNRM  =  1.00D-08  THREQ   =  0.00D+00  THRDE   =  1.00D+00  THRREF  =  1.00D-05  SPARFAC =  1.00D+00  THRDLP  =  1.00D-07
 THRDIA  =  1.00D-10  THRDLS  =  1.00D-07  THRGPS  =  0.00D+00  THRKEX  =  0.00D+00  THRDIS  =  2.00D-01  THRVAR  =  1.00D-10
 THRLOC  =  1.00D-06  THRGAP  =  1.00D-06  THRLOCT = -1.00D+00  THRGAPT = -1.00D+00  THRORB  =  1.00D-06  THRMLTP =  0.00D+00
 THRCPQCI=  1.00D-10  KEXTA   =  0.00D+00  THRCOARS=  0.00D+00  SYMTOL  =  1.00D-06  GRADTOL =  1.00D-06  THROVL  =  1.00D-08
 THRORTH =  1.00D-08  GRID    =  1.00D-06  GRIDMAX =  1.00D-03  DTMAX   =  0.00D+00  THROCCDE=  1.00D-01  THROCCDE=  1.00D-01



 THRESHOLDS:

 ZERO    =  1.00D-22  ONEINT  =  1.00D-22  TWOINT  =  1.00D-22  PREFAC  =  1.00D-14  LOCALI  =  1.00D-09  EORDER  =  1.00D-04
 ENERGY  =  1.00D-12  ETEST   =  0.00D+00  EDENS   =  0.00D+00  THRDEDEF=  1.00D-06  GRADIENT=  1.00D-02  STEP    =  1.00D-03
 ORBITAL =  1.00D-05  CIVEC   =  1.00D-05  COEFF   =  1.00D-04  PRINTCI =  5.00D-02  PUNCHCI =  9.90D+01  OPTGRAD =  1.00D-08
 OPTENERG=  1.00D-06  OPTSTEP =  1.00D-08  THRGRAD =  1.00D-10  COMPRESS=  1.00D-11  VARMIN  =  1.00D-07  VARMAX  =  1.00D-03
 THRDOUB =  0.00D+00  THRDIV  =  1.00D-05  THRRED  =  1.00D-07  THRPSP  =  1.00D+00  THRDC   =  1.00D-10  THRCS   =  1.00D-10
 THRNRM  =  1.00D-08  THREQ   =  0.00D+00  THRDE   =  1.00D+00  THRREF  =  1.00D-05  SPARFAC =  1.00D+00  THRDLP  =  1.00D-07
 THRDIA  =  1.00D-10  THRDLS  =  1.00D-07  THRGPS  =  0.00D+00  THRKEX  =  0.00D+00  THRDIS  =  2.00D-01  THRVAR  =  1.00D-10
 THRLOC  =  1.00D-06  THRGAP  =  1.00D-06  THRLOCT = -1.00D+00  THRGAPT = -1.00D+00  THRORB  =  1.00D-06  THRMLTP =  0.00D+00
 THRCPQCI=  1.00D-10  KEXTA   =  0.00D+00  THRCOARS=  0.00D+00  SYMTOL  =  1.00D-06  GRADTOL =  1.00D-06  THROVL  =  1.00D-08
 THRORTH =  1.00D-08  GRID    =  1.00D-06  GRIDMAX =  1.00D-03  DTMAX   =  0.00D+00  THROCCDE=  1.00D-01  THROCCDE=  1.00D-01



 Input parameters for SORTINT:

 COMPRESS =    0.000000
 C_FINAL  =    1.000000
 DEBUG    =   -1.000000
 C_SORT1  =    0.000000
 C_SEWARD =    0.000000
 THRESH   =    0.000000
 IO       =  molpro                                                          
 SPRI     =    0.000000
 SETTING GEOMTYP        =    XYZ
 ZUNIT=BOHR
 

 Variable memory set to  995000000 words,  buffer space   230000 words

 SETTING BASIS          =    AVTZ


 Recomputing integrals since basis changed


 Using spherical harmonics

 Library entry H      S aug-cc-pVTZ          selected for orbital group  1
 Library entry H      P aug-cc-pVTZ          selected for orbital group  1
 Library entry H      D aug-cc-pVTZ          selected for orbital group  1
 Library entry N      S aug-cc-pVTZ          selected for orbital group  2
 Library entry N      P aug-cc-pVTZ          selected for orbital group  2
 Library entry N      D aug-cc-pVTZ          selected for orbital group  2
 Library entry N      F aug-cc-pVTZ          selected for orbital group  2
 Library entry O      S aug-cc-pVTZ          selected for orbital group  3
 Library entry O      P aug-cc-pVTZ          selected for orbital group  3
 Library entry O      D aug-cc-pVTZ          selected for orbital group  3
 Library entry O      F aug-cc-pVTZ          selected for orbital group  3


 PROGRAM * SEWARD (Integral evaluation for generally contracted gaussian basis sets)     Author: Roland Lindh, 1990

 Geometry written to block  1 of record 700


 Point group  Cs  



 ATOMIC COORDINATES

 NR  ATOM    CHARGE       X              Y              Z

   1  H       1.00    0.000000000    1.673016991   -1.937105446
   2  N       7.00    0.000000000   -0.164251628   -1.153223991
   3  O       8.00    0.000000000    0.033002426    1.139739846

 Bond lengths in Bohr (Angstrom)

 1-2  1.997504972  2-3  2.301432666
     ( 1.057034110)     ( 1.217865719)

 Bond angles

  1-2-3  108.18899349

 NUCLEAR CHARGE:                   16
 NUMBER OF PRIMITIVE AOS:         161
 NUMBER OF SYMMETRY AOS:          141
 NUMBER OF CONTRACTIONS:          115   (  76A'  +  39A"  )
 NUMBER OF CORE ORBITALS:           2   (   2A'  +   0A"  )
 NUMBER OF VALENCE ORBITALS:        9   (   7A'  +   2A"  )


 NUCLEAR REPULSION ENERGY   30.13151686

 Eigenvalues of metric

         1 0.236E-03 0.507E-03 0.183E-02 0.217E-02 0.262E-02 0.373E-02 0.436E-02 0.525E-02
         2 0.406E-02 0.103E-01 0.267E-01 0.375E-01 0.515E-01 0.627E-01 0.836E-01 0.121E+00


 Contracted 2-electron integrals neglected if value below      1.0D-22

       10790064. INTEGRALS WRITTEN OUT IN    2635 BLOCKS ON RECORD 1290 OF FILE 1


 NUMBER OF SORTED TWO-ELECTRON INTEGRALS:   11433631.     BUFFER LENGTH:  32768
 NUMBER OF SEGMENTS:   1  SEGMENT LENGTH:   11433631      RECORD LENGTH: 524288

 Memory used in sort:      11.99 MW

 SORT1 READ    10790064. AND WROTE    10943632. INTEGRALS IN     32 RECORDS. CPU TIME:     0.29 SEC, REAL TIME:     0.40 SEC
 SORT2 READ    10943632. AND WROTE    11433631. INTEGRALS IN      1 RECORDS. CPU TIME:     0.21 SEC, REAL TIME:     0.29 SEC

 FILE SIZES:   FILE 1:   193.0 MBYTE,  FILE 4:   134.3 MBYTE,   TOTAL:    327.2 MBYTE

 OPERATOR DM      FOR CENTER  0  COORDINATES:    0.000000    0.000000    0.000000


 **********************************************************************************************************************************
 DATASETS  * FILE   NREC   LENGTH (MB)   RECORD NAMES
              1      19      111.05       500      610      700      900      950      970     1000      129      960     1100   
                                          VAR    BASINP    GEOM    SYMINP    ZMAT    AOBASIS   BASIS     P2S    ABASIS      S 
                                         1400     1410     1200     1210     1080     1600     1650     1300     1700   
                                           T        V       H0       H01     AOSYM     SMH    MOLCAS    ERIS     OPER   

 PROGRAMS   *        TOTAL       INT
 CPU TIMES  *         1.75      1.65
 REAL TIME  *         2.77 SEC
 DISK USED  *       327.55 MB      
 **********************************************************************************************************************************


 PROGRAM * RHF-SCF (CLOSED SHELL)       Authors: W. Meyer, H.-J. Werner


 NUMBER OF ELECTRONS:       8+    8-
 CONVERGENCE THRESHOLDS:    1.00E-10 (Density)    1.00E-13 (Energy)
 MAX. NUMBER OF ITERATIONS:      500
 INTERPOLATION TYPE:            DIIS
 INTERPOLATION STEPS:              2 (START)      1 (STEP)
 LEVEL SHIFTS:                  0.00 (CLOSED)  0.00 (OPEN) 



 Orbital guess generated from atomic densities. Full valence occupancy:    9   2

 Molecular orbital dump at record        2100.2

 Initial occupancy:   7   1

 ITERATION    DDIFF          GRAD             ENERGY        2-EL.EN.            DIPOLE MOMENTS         DIIS   ORB.
    1      0.000D+00      0.000D+00      -129.78500073    153.467487    0.00000    0.59322   -1.05401    0    start
    2      0.000D+00      0.109D-01      -129.81210003    154.720643    0.00000    0.61669   -0.20261    1    diag
    3      0.122D-01      0.854D-02      -129.83666405    154.853743    0.00000    0.56020   -0.60685    2    diag
    4      0.611D-02      0.129D-02      -129.83747746    154.556940    0.00000    0.56735   -0.54536    3    diag
    5      0.109D-02      0.428D-03      -129.83760824    154.652239    0.00000    0.57300   -0.54803    4    diag
    6      0.459D-03      0.124D-03      -129.83762921    154.636462    0.00000    0.57333   -0.54375    5    diag
    7      0.176D-03      0.619D-04      -129.83763537    154.638899    0.00000    0.57457   -0.54105    6    diag
    8      0.122D-03      0.217D-04      -129.83763609    154.638205    0.00000    0.57459   -0.53998    7    diag
    9      0.481D-04      0.417D-05      -129.83763612    154.638087    0.00000    0.57455   -0.53974    8    diag
   10      0.946D-05      0.931D-06      -129.83763613    154.638067    0.00000    0.57452   -0.53971    9    orth
   11      0.184D-05      0.183D-06      -129.83763613    154.638064    0.00000    0.57451   -0.53971    9    diag
   12      0.346D-06      0.384D-07      -129.83763613    154.638063    0.00000    0.57451   -0.53971    9    diag
   13      0.745D-07      0.998D-08      -129.83763613    154.638063    0.00000    0.57451   -0.53971    9    diag
   14      0.202D-07      0.205D-08      -129.83763613    154.638063    0.00000    0.57451   -0.53971    9    diag
   15      0.387D-08      0.563D-09      -129.83763613    154.638063    0.00000    0.57451   -0.53971    9    diag
   16      0.106D-08      0.147D-09      -129.83763613    154.638063    0.00000    0.57451   -0.53971    9    diag
   17      0.173D-09      0.399D-10      -129.83763613    154.638063    0.00000    0.57451   -0.53971    9    diag
   18      0.468D-10      0.138D-10      -129.83763613    154.638063    0.00000    0.57451   -0.53971    0    orth

 Final occupancy:   7   1

 !RHF STATE 1.1 Energy               -129.837636126445
 Nuclear energy                        30.13151686
 One-electron energy                 -237.28818463
 Two-electron energy                   77.31903164
 Virial quotient                       -1.00250949
 !RHF STATE 1.1 Dipole moment           0.00000000     0.57450782    -0.53971118
 Dipole moment /Debye                   0.00000000     1.46015758    -1.37171913

 Orbital energies:

         1.1          2.1          3.1          4.1          5.1          6.1          7.1          8.1          9.1
    -20.657605   -15.716847    -1.522678    -0.996113    -0.743747    -0.663265    -0.433165     0.029036     0.092128

         1.2          2.2          3.2
     -0.591641     0.062113     0.130048

 HOMO      7.1    -0.433165 =     -11.7870eV
 LUMO      8.1     0.029036 =       0.7901eV
 LUMO-HOMO         0.462201 =      12.5771eV


 **********************************************************************************************************************************
 DATASETS  * FILE   NREC   LENGTH (MB)   RECORD NAMES
              1      19      111.05       500      610      700      900      950      970     1000      129      960     1100   
                                          VAR    BASINP    GEOM    SYMINP    ZMAT    AOBASIS   BASIS     P2S    ABASIS      S 
                                         1400     1410     1200     1210     1080     1600     1650     1300     1700   
                                           T        V       H0       H01     AOSYM     SMH    MOLCAS    ERIS     OPER   

              2       4        2.94       700     1000      520     2100   
                                         GEOM     BASIS   MCVARS     RHF  

 PROGRAMS   *        TOTAL        HF       INT
 CPU TIMES  *         2.99      1.24      1.65
 REAL TIME  *         4.34 SEC
 DISK USED  *       327.55 MB      
 **********************************************************************************************************************************


 PROGRAM * CCSD (Closed-shell coupled cluster)     Authors: C. Hampel, H.-J. Werner, 1991, M. Deegan, P.J. Knowles, 1992


 Convergence thresholds:  THRVAR = 1.00D-08  THRDEN = 1.00D-12

 CCSD(T)     terms to be evaluated (factor= 1.000)


 Number of core orbitals:           2 (   2   0 )
 Number of closed-shell orbitals:   6 (   5   1 )
 Number of external orbitals:     107 (  69  38 )

 Molecular orbitals read from record     2100.2  Type=RHF/CANONICAL (state 1.1)

 Number of N-1 electron functions:               6
 Number of N-2 electron functions:              21
 Number of singly external CSFs:               383
 Number of doubly external CSFs:            107206
 Total number of CSFs:                      107590

 Length of J-op  integral file:               0.00 MB
 Length of K-op  integral file:               0.54 MB
 Length of 3-ext integral record:             0.00 MB

 Memory could be reduced to 5.94 Mwords without degradation in triples

 Integral transformation finished. Total CPU:   0.21 sec, npass=  1  Memory used:   1.65 MW

 Reference energy:                   -129.83763613

 MP2 singlet pair energy:              -0.28061085
 MP2 triplet pair energy:              -0.16595801
 MP2 correlation energy:               -0.44656886
 MP2 total energy:                   -130.28420499

 SCS-MP2 correlation energy:           -0.43999578   (PS=  1.200000  PT=  0.333333)
 SCS-MP2 total energy:               -130.27763191

 ITER.      SQ.NORM     CORR.ENERGY   TOTAL ENERGY   ENERGY CHANGE        DEN1      VAR(S)    VAR(P)  DIIS     TIME  TIME/IT
   1      1.12220933    -0.45027898  -130.28791510    -0.00371012     0.01282418  0.33D-02  0.33D-02  1  1     0.45     0.24
   2      1.13361681    -0.45039334  -130.28802947    -0.00011436    -0.01271822  0.11D-03  0.53D-03  2  2     0.66     0.25
   3      1.14035970    -0.45081459  -130.28845072    -0.00042125    -0.00308194  0.57D-04  0.54D-04  3  3     0.90     0.25
   4      1.14338441    -0.45082586  -130.28846199    -0.00001127    -0.00101385  0.46D-05  0.97D-05  4  4     1.11     0.26
   5      1.14451081    -0.45085702  -130.28849314    -0.00003116    -0.00023794  0.12D-05  0.17D-05  5  5     1.34     0.26
   6      1.14487284    -0.45083860  -130.28847473     0.00001842    -0.00004447  0.11D-06  0.40D-06  6  6     1.58     0.26
   7      1.14494874    -0.45083985  -130.28847598    -0.00000125    -0.00000150  0.19D-07  0.95D-07  6  1     1.82     0.26
   8      1.14497084    -0.45084043  -130.28847655    -0.00000058     0.00000144  0.35D-08  0.18D-07  6  2     2.04     0.26
   9      1.14497648    -0.45083993  -130.28847605     0.00000050     0.00000053  0.29D-08  0.21D-08  6  4     2.28     0.26
  10      1.14497901    -0.45084043  -130.28847656    -0.00000050    -0.00000078  0.49D-09  0.25D-09  6  3     2.51     0.26
  11      1.14497854    -0.45084045  -130.28847658    -0.00000002    -0.00000009  0.17D-09  0.38D-10  6  5     2.75     0.26
  12      1.14497743    -0.45084062  -130.28847674    -0.00000017     0.00000035  0.20D-10  0.12D-10  6  6     2.96     0.26
  13      1.14497651    -0.45084065  -130.28847678    -0.00000004     0.00000023  0.69D-11  0.24D-11  6  1     3.18     0.26
  14      1.14497591    -0.45084069  -130.28847681    -0.00000003     0.00000015  0.11D-11  0.78D-12  6  2     3.40     0.26
  15      1.14497566    -0.45084070  -130.28847682    -0.00000001     0.00000004  0.30D-12  0.24D-12  6  4     3.63     0.26
  16      1.14497555    -0.45084070  -130.28847682    -0.00000000     0.00000001  0.57D-13  0.84D-13  6  3     3.87     0.26
  17      1.14497549    -0.45084070  -130.28847683    -0.00000000     0.00000001  0.42D-14  0.20D-13  6  5     4.10     0.26
  18      1.14497548    -0.45084070  -130.28847683     0.00000000    -0.00000000  0.14D-14  0.44D-14  6  6     4.34     0.26
  19      1.14497548    -0.45084070  -130.28847683    -0.00000000     0.00000000  0.12D-14  0.77D-15  6  1     4.56     0.26
  20      1.14497548    -0.45084070  -130.28847683     0.00000000    -0.00000000  0.24D-15  0.13D-15  6  2     4.80     0.26
  21      1.14497548    -0.45084070  -130.28847683     0.00000000    -0.00000000  0.61D-16  0.34D-16  6  3     5.05     0.26
  22      1.14497548    -0.45084070  -130.28847683     0.00000000    -0.00000000  0.69D-17  0.31D-17  6  4     5.30     0.26
  23      1.14497548    -0.45084070  -130.28847683     0.00000000    -0.00000000  0.26D-17  0.64D-18  6  5     5.52     0.26
  24      1.14497548    -0.45084070  -130.28847683     0.00000000     0.00000000  0.18D-18  0.57D-19  6  2     5.75     0.26
  25      1.14497548    -0.45084070  -130.28847683    -0.00000000    -0.00000000  0.27D-19  0.15D-19  6  6     5.96     0.26
  26      1.14497548    -0.45084070  -130.28847683     0.00000000    -0.00000000  0.41D-20  0.26D-20  6  1     6.18     0.26
  27      1.14497548    -0.45084070  -130.28847683    -0.00000000    -0.00000000  0.55D-21  0.64D-21  6  4     6.40     0.26

 Norm of t1 vector:      0.08032665      S-energy:     0.00000000      T1 diagnostic:  0.01639661
                                                                       D1 diagnostic:  0.04345980

 Doubles amplitudes (print threshold =  0.500E-01):

         I         J         SYM. A    SYM. B    A         B      T(IJ, AB)

         6         6         2         2         1         1     -0.11323536


 Total CPU time for triples:      1.87 sec


 RESULTS
 =======

  Reference energy                   -129.837636126445
  CCSD singlet pair energy             -0.309375937506
  CCSD triplet pair energy             -0.141464762633
  CCSD correlation energy              -0.450840700137

  Triples (T) contribution             -0.021257451733
  Total correlation energy             -0.472098151870

  CCSD total energy                  -130.288476826582
  CCSD[T] energy                     -130.310850768000
  CCSD-T energy                      -130.309317550436
 !CCSD(T) total energy               -130.309734278315

 Timing summary (sec):

 STEP                 CPU(USER)    SYS     CPU(TOT)    WALL
 Transformation          0.21      0.05      0.26      0.29
 CCSD iterations         6.19      0.76      6.95      6.95
 Triples                 1.87      0.04      1.91      1.91

 Program statistics:

 Available memory in ccsd:               994999756
 Min. memory needed in ccsd:                389120
 Max. memory used in ccsd:                  473124
 Max. memory used in cckext:                599488 (27 integral passes)



 **********************************************************************************************************************************
 DATASETS  * FILE   NREC   LENGTH (MB)   RECORD NAMES
              1      20      128.20       500      610      700      900      950      970     1000      129      960     1100   
                                          VAR    BASINP    GEOM    SYMINP    ZMAT    AOBASIS   BASIS     P2S    ABASIS      S 
                                         1400     1410     1200     1210     1080     1600     1650     1300     1700     1380   
                                           T        V       H0       H01     AOSYM     SMH    MOLCAS    ERIS     OPER     JKOP   

              2       4        2.94       700     1000      520     2100   
                                         GEOM     BASIS   MCVARS     RHF  

 PROGRAMS   *        TOTAL   CCSD(T)        HF       INT
 CPU TIMES  *        11.29      8.29      1.24      1.65
 REAL TIME  *        13.53 SEC
 DISK USED  *       327.55 MB      
 **********************************************************************************************************************************

 CCSD(T)/aug-cc-pVTZ energy=   -130.309734278315

        CCSD(T)         HF-SCF  
   -130.30973428   -129.83763613
 **********************************************************************************************************************************
 Molpro calculation terminated
 Variable memory released
