
 Primary working directories    : /tmp/r2666/232484.maple
 Secondary working directories  : /tmp/r2666/232484.maple
 Wavefunction directory         : /ddn/home4/r2666/wfu/
 Main file repository           : /tmp/r2666/232484.maple/

 SHA1      : d5ffa45e93fdbca01ffc919aa182cfdae0147319
 NAME      : 2015.1.35
 ARCHNAME  : linux/x86_64
 FC        : /opt/intel/composer_xe_2015.1.133/bin/intel64/ifort
 BLASLIB   : -Wl,-_start-group /opt/intel/mkl/lib/intel64/libmkl_intel_ilp64.a /opt/intel/mkl/lib/intel64/libmkl_intel_thread.a /opt/intel/mkl/lib/intel64/libmkl_core.a -Wl,-_end-group
 id        : olemiss

 Nodes     nprocs
 cn088        1

 Using customized tuning parameters: mindgm=1; mindgv=20; mindgc=4; mindgr=1; noblas=0; minvec=7
 default implementation of scratch files=df  

 ***,hcn CCSD(T)/TZ-F12 QFF
 memory, 995, m;
 gthresh,energy=1.d-12,zero=1.d-22,oneint=1.d-22,twoint=1.d-22;
 gthresh,optgrad=1.d-8,optstep=1.d-8;
 nocompress;
 geomtyp=xyz
 bohr
 geometry={
 3
         38        38
 N        0.0000000000        0.0000000000        1.1278509343
 C        0.0000000000        0.0000000000       -1.0604473626
 H        0.0000000000        0.0000000000       -3.0644735537
 }
 
 basis=avqz
   {hf,maxit=500;accu,20;}
 {ccsd(t),nocheck,maxit=250;orbital,IGNORE_ERROR;}

 Variables initialized (889), CPU time= 0.01 sec
 Commands  initialized (702), CPU time= 0.01 sec, 572 directives.
 Default parameters read. Elapsed time= 0.05 sec

 Checking input...
 Passed
1


                                         ***  PROGRAM SYSTEM MOLPRO  ***
                                       Copyright, TTI GmbH Stuttgart, 2015
                                    Version 2015.1 linked Jul  9 2018 13:16:40


 **********************************************************************************************************************************
 LABEL *   hcn CCSD(T)/TZ-F12 QFF                                                        
  64 bit serial version                                                                  DATE: 06-Feb-20          TIME: 09:53:25  
 **********************************************************************************************************************************

 SHA1:             d5ffa45e93fdbca01ffc919aa182cfdae0147319
 **********************************************************************************************************************************

 THRESHOLDS:

 ZERO    =  1.00D-22  ONEINT  =  1.00D-22  TWOINT  =  1.00D-22  PREFAC  =  1.00D-14  LOCALI  =  1.00D-09  EORDER  =  1.00D-04
 ENERGY  =  1.00D-12  ETEST   =  0.00D+00  EDENS   =  0.00D+00  THRDEDEF=  1.00D-06  GRADIENT=  1.00D-02  STEP    =  1.00D-03
 ORBITAL =  1.00D-05  CIVEC   =  1.00D-05  COEFF   =  1.00D-04  PRINTCI =  5.00D-02  PUNCHCI =  9.90D+01  OPTGRAD =  3.00D-04
 OPTENERG=  1.00D-06  OPTSTEP =  3.00D-04  THRGRAD =  1.00D-10  COMPRESS=  1.00D-11  VARMIN  =  1.00D-07  VARMAX  =  1.00D-03
 THRDOUB =  0.00D+00  THRDIV  =  1.00D-05  THRRED  =  1.00D-07  THRPSP  =  1.00D+00  THRDC   =  1.00D-10  THRCS   =  1.00D-10
 THRNRM  =  1.00D-08  THREQ   =  0.00D+00  THRDE   =  1.00D+00  THRREF  =  1.00D-05  SPARFAC =  1.00D+00  THRDLP  =  1.00D-07
 THRDIA  =  1.00D-10  THRDLS  =  1.00D-07  THRGPS  =  0.00D+00  THRKEX  =  0.00D+00  THRDIS  =  2.00D-01  THRVAR  =  1.00D-10
 THRLOC  =  1.00D-06  THRGAP  =  1.00D-06  THRLOCT = -1.00D+00  THRGAPT = -1.00D+00  THRORB  =  1.00D-06  THRMLTP =  0.00D+00
 THRCPQCI=  1.00D-10  KEXTA   =  0.00D+00  THRCOARS=  0.00D+00  SYMTOL  =  1.00D-06  GRADTOL =  1.00D-06  THROVL  =  1.00D-08
 THRORTH =  1.00D-08  GRID    =  1.00D-06  GRIDMAX =  1.00D-03  DTMAX   =  0.00D+00  THROCCDE=  1.00D-01  THROCCDE=  1.00D-01



 THRESHOLDS:

 ZERO    =  1.00D-22  ONEINT  =  1.00D-22  TWOINT  =  1.00D-22  PREFAC  =  1.00D-14  LOCALI  =  1.00D-09  EORDER  =  1.00D-04
 ENERGY  =  1.00D-12  ETEST   =  0.00D+00  EDENS   =  0.00D+00  THRDEDEF=  1.00D-06  GRADIENT=  1.00D-02  STEP    =  1.00D-03
 ORBITAL =  1.00D-05  CIVEC   =  1.00D-05  COEFF   =  1.00D-04  PRINTCI =  5.00D-02  PUNCHCI =  9.90D+01  OPTGRAD =  1.00D-08
 OPTENERG=  1.00D-06  OPTSTEP =  1.00D-08  THRGRAD =  1.00D-10  COMPRESS=  1.00D-11  VARMIN  =  1.00D-07  VARMAX  =  1.00D-03
 THRDOUB =  0.00D+00  THRDIV  =  1.00D-05  THRRED  =  1.00D-07  THRPSP  =  1.00D+00  THRDC   =  1.00D-10  THRCS   =  1.00D-10
 THRNRM  =  1.00D-08  THREQ   =  0.00D+00  THRDE   =  1.00D+00  THRREF  =  1.00D-05  SPARFAC =  1.00D+00  THRDLP  =  1.00D-07
 THRDIA  =  1.00D-10  THRDLS  =  1.00D-07  THRGPS  =  0.00D+00  THRKEX  =  0.00D+00  THRDIS  =  2.00D-01  THRVAR  =  1.00D-10
 THRLOC  =  1.00D-06  THRGAP  =  1.00D-06  THRLOCT = -1.00D+00  THRGAPT = -1.00D+00  THRORB  =  1.00D-06  THRMLTP =  0.00D+00
 THRCPQCI=  1.00D-10  KEXTA   =  0.00D+00  THRCOARS=  0.00D+00  SYMTOL  =  1.00D-06  GRADTOL =  1.00D-06  THROVL  =  1.00D-08
 THRORTH =  1.00D-08  GRID    =  1.00D-06  GRIDMAX =  1.00D-03  DTMAX   =  0.00D+00  THROCCDE=  1.00D-01  THROCCDE=  1.00D-01



 Input parameters for SORTINT:

 COMPRESS =    0.000000
 C_FINAL  =    1.000000
 DEBUG    =   -1.000000
 C_SORT1  =    0.000000
 C_SEWARD =    0.000000
 THRESH   =    0.000000
 IO       =  molpro                                                          
 SPRI     =    0.000000
 SETTING GEOMTYP        =    XYZ
 ZUNIT=BOHR
 

 Variable memory set to  995000000 words,  buffer space   230000 words

 SETTING BASIS          =    AVQZ


 Recomputing integrals since basis changed


 Using spherical harmonics

 Library entry N      S aug-cc-pVQZ          selected for orbital group  1
 Library entry N      P aug-cc-pVQZ          selected for orbital group  1
 Library entry N      D aug-cc-pVQZ          selected for orbital group  1
 Library entry N      F aug-cc-pVQZ          selected for orbital group  1
 Library entry N      G aug-cc-pVQZ          selected for orbital group  1
 Library entry C      S aug-cc-pVQZ          selected for orbital group  2
 Library entry C      P aug-cc-pVQZ          selected for orbital group  2
 Library entry C      D aug-cc-pVQZ          selected for orbital group  2
 Library entry C      F aug-cc-pVQZ          selected for orbital group  2
 Library entry C      G aug-cc-pVQZ          selected for orbital group  2
 Library entry H      S aug-cc-pVQZ          selected for orbital group  3
 Library entry H      P aug-cc-pVQZ          selected for orbital group  3
 Library entry H      D aug-cc-pVQZ          selected for orbital group  3
 Library entry H      F aug-cc-pVQZ          selected for orbital group  3


 PROGRAM * SEWARD (Integral evaluation for generally contracted gaussian basis sets)     Author: Roland Lindh, 1990

 Geometry written to block  1 of record 700


 Point group  C2v 



 ATOMIC COORDINATES

 NR  ATOM    CHARGE       X              Y              Z

   1  N       7.00    0.000000000    0.000000000    1.127850934
   2  C       6.00    0.000000000    0.000000000   -1.060447363
   3  H       1.00    0.000000000    0.000000000   -3.064473554

 Bond lengths in Bohr (Angstrom)

 1-2  2.188298297  2-3  2.004026191
     ( 1.157997589)     ( 1.060484990)

 Bond angles

  1-2-3  179.99999879

 NUCLEAR CHARGE:                   14
 NUMBER OF PRIMITIVE AOS:         293
 NUMBER OF SYMMETRY AOS:          234
 NUMBER OF CONTRACTIONS:          206   (  81A1  +  49B1  +  49B2  +  27A2  )
 NUMBER OF CORE ORBITALS:           2   (   2A1  +   0B1  +   0B2  +   0A2  )
 NUMBER OF VALENCE ORBITALS:        9   (   5A1  +   2B1  +   2B2  +   0A2  )


 NUCLEAR REPULSION ENERGY   23.85668672

 EXTRA SYMMETRY OF AOS IN SYMMETRY 1:   1 1 1 1 1 1 1 1 1 1   1 1 2 1 2 1 2 1 2 1   2 1 2 1 2 1 3 2 1 3   2 1 1 1 1 1 1 1 1 1
                                        1 1 1 2 1 2 1 2 1 2   1 2 1 2 1 2 1 3 2 1   3 2 1 1 1 1 1 1 1 1   1 1 2 1 2 1 2 1 2 1
                                        2
 EXTRA SYMMETRY OF AOS IN SYMMETRY 2:   1 1 1 1 1 1 1 1 1 1   2 1 2 1 2 1 2 1 2 1   1 1 1 1 1 1 1 1 1 2   1 2 1 2 1 2 1 2 1 1
                                        1 1 1 1 1 1 2 1 2
 EXTRA SYMMETRY OF AOS IN SYMMETRY 3:   1 1 1 1 1 1 1 1 1 1   2 1 2 1 2 1 2 1 2 1   1 1 1 1 1 1 1 1 1 2   1 2 1 2 1 2 1 2 1 1
                                        1 1 1 1 1 1 2 1 2
 EXTRA SYMMETRY OF AOS IN SYMMETRY 4:   1 1 1 1 1 1 1 1 2 1   2 1 1 1 1 1 1 1 1 2   1 2 1 1 1 1 1

 Eigenvalues of metric

         1 0.171E-04 0.390E-04 0.706E-04 0.279E-03 0.399E-03 0.439E-03 0.524E-03 0.802E-03
         2 0.404E-03 0.930E-03 0.300E-02 0.349E-02 0.476E-02 0.640E-02 0.868E-02 0.107E-01
         3 0.404E-03 0.930E-03 0.300E-02 0.349E-02 0.476E-02 0.640E-02 0.868E-02 0.107E-01
         4 0.464E-02 0.124E-01 0.322E-01 0.563E-01 0.890E-01 0.141E+00 0.197E+00 0.229E+00


 Contracted 2-electron integrals neglected if value below      1.0D-22

       51229149. INTEGRALS WRITTEN OUT IN   12511 BLOCKS ON RECORD 1290 OF FILE 1


 NUMBER OF SORTED TWO-ELECTRON INTEGRALS:   58298162.     BUFFER LENGTH:  32768
 NUMBER OF SEGMENTS:   4  SEGMENT LENGTH:   15999501      RECORD LENGTH: 524288

 Memory used in sort:      16.56 MW

 SORT1 READ    51229149. AND WROTE    51984740. INTEGRALS IN    150 RECORDS. CPU TIME:     1.29 SEC, REAL TIME:     1.62 SEC
 SORT2 READ    51984740. AND WROTE    58298162. INTEGRALS IN      4 RECORDS. CPU TIME:     0.81 SEC, REAL TIME:     1.06 SEC

 FILE SIZES:   FILE 1:   840.8 MBYTE,  FILE 4:   629.2 MBYTE,   TOTAL:   1470.0 MBYTE

 OPERATOR DM      FOR CENTER  0  COORDINATES:    0.000000    0.000000    0.000000


 **********************************************************************************************************************************
 DATASETS  * FILE   NREC   LENGTH (MB)   RECORD NAMES
              1      19      461.88       500      610      700      900      950      970     1000      129      960     1100   
                                          VAR    BASINP    GEOM    SYMINP    ZMAT    AOBASIS   BASIS     P2S    ABASIS      S 
                                         1400     1410     1200     1210     1080     1600     1650     1300     1700   
                                           T        V       H0       H01     AOSYM     SMH    MOLCAS    ERIS     OPER   

 PROGRAMS   *        TOTAL       INT
 CPU TIMES  *         8.74      8.64
 REAL TIME  *        11.21 SEC
 DISK USED  *         1.47 GB      
 **********************************************************************************************************************************


 PROGRAM * RHF-SCF (CLOSED SHELL)       Authors: W. Meyer, H.-J. Werner


 NUMBER OF ELECTRONS:       7+    7-
 CONVERGENCE THRESHOLDS:    1.00E-10 (Density)    1.00E-13 (Energy)
 MAX. NUMBER OF ITERATIONS:      500
 INTERPOLATION TYPE:            DIIS
 INTERPOLATION STEPS:              2 (START)      1 (STEP)
 LEVEL SHIFTS:                  0.00 (CLOSED)  0.00 (OPEN) 



 Orbital guess generated from atomic densities. Full valence occupancy:    7   2   2   0

 Molecular orbital dump at record        2100.2

 Initial occupancy:   5   1   1   0

 ITERATION    DDIFF          GRAD             ENERGY        2-EL.EN.            DIPOLE MOMENTS         DIIS   ORB.
    1      0.000D+00      0.000D+00       -92.88955896    111.812472    0.00000    0.00000   -1.77974    0    start
    2      0.000D+00      0.700D-02       -92.89833644    110.971769    0.00000    0.00000   -0.89402    1    diag
    3      0.717D-02      0.627D-02       -92.91357614    111.507020    0.00000    0.00000   -1.30640    2    diag
    4      0.354D-02      0.527D-03       -92.91380908    111.465874    0.00000    0.00000   -1.29511    3    diag
    5      0.641D-03      0.115D-03       -92.91382265    111.476715    0.00000    0.00000   -1.29367    4    diag
    6      0.153D-03      0.312D-04       -92.91382352    111.471469    0.00000    0.00000   -1.29368    5    diag
    7      0.346D-04      0.112D-04       -92.91382360    111.472625    0.00000    0.00000   -1.29374    6    diag
    8      0.115D-04      0.236D-05       -92.91382360    111.472576    0.00000    0.00000   -1.29371    7    diag
    9      0.245D-05      0.271D-06       -92.91382360    111.472586    0.00000    0.00000   -1.29371    8    diag
   10      0.352D-06      0.333D-07       -92.91382360    111.472586    0.00000    0.00000   -1.29371    9    orth
   11      0.383D-07      0.471D-08       -92.91382360    111.472586    0.00000    0.00000   -1.29371    9    diag
   12      0.601D-08      0.438D-09       -92.91382360    111.472586    0.00000    0.00000   -1.29371    9    diag
   13      0.112D-08      0.562D-10       -92.91382360    111.472586    0.00000    0.00000   -1.29371    9    diag
   14      0.964D-10      0.678D-11       -92.91382360    111.472586    0.00000    0.00000   -1.29371    0    orth

 Final occupancy:   5   1   1   0

 !RHF STATE 1.1 Energy                -92.913823603305
 Nuclear energy                        23.85668672
 One-electron energy                 -172.50680356
 Two-electron energy                   55.73629324
 Virial quotient                       -1.00225999
 !RHF STATE 1.1 Dipole moment           0.00000000     0.00000000    -1.29370523
 Dipole moment /Debye                   0.00000000     0.00000000    -3.28805533

 Orbital energies:

         1.1          2.1          3.1          4.1          5.1          6.1          7.1
    -15.600280   -11.292609    -1.234357    -0.815942    -0.582718     0.020527     0.062628

         1.2          2.2          3.2
     -0.495602     0.063582     0.119296

         1.3          2.3          3.3
     -0.495602     0.063582     0.119296

         1.4          2.4
      0.225865     0.394627

 HOMO      1.2    -0.495602 =     -13.4860eV
 LUMO      6.1     0.020527 =       0.5586eV
 LUMO-HOMO         0.516128 =      14.0446eV


 **********************************************************************************************************************************
 DATASETS  * FILE   NREC   LENGTH (MB)   RECORD NAMES
              1      19      461.88       500      610      700      900      950      970     1000      129      960     1100   
                                          VAR    BASINP    GEOM    SYMINP    ZMAT    AOBASIS   BASIS     P2S    ABASIS      S 
                                         1400     1410     1200     1210     1080     1600     1650     1300     1700   
                                           T        V       H0       H01     AOSYM     SMH    MOLCAS    ERIS     OPER   

              2       4        3.06       700     1000      520     2100   
                                         GEOM     BASIS   MCVARS     RHF  

 PROGRAMS   *        TOTAL        HF       INT
 CPU TIMES  *        11.28      2.54      8.64
 REAL TIME  *        14.43 SEC
 DISK USED  *         1.47 GB      
 **********************************************************************************************************************************


 PROGRAM * CCSD (Closed-shell coupled cluster)     Authors: C. Hampel, H.-J. Werner, 1991, M. Deegan, P.J. Knowles, 1992


 Convergence thresholds:  THRVAR = 1.00D-08  THRDEN = 1.00D-12

 CCSD(T)     terms to be evaluated (factor= 1.000)


 Number of core orbitals:           2 (   2   0   0   0 )
 Number of closed-shell orbitals:   5 (   3   1   1   0 )
 Number of external orbitals:     199 (  76  48  48  27 )

 Molecular orbitals read from record     2100.2  Type=RHF/CANONICAL (state 1.1)

 Number of N-1 electron functions:               5
 Number of N-2 electron functions:              15
 Number of singly external CSFs:               324
 Number of doubly external CSFs:            129659
 Total number of CSFs:                      129984

 Length of J-op  integral file:               0.00 MB
 Length of K-op  integral file:               0.86 MB
 Length of 3-ext integral record:             0.00 MB

 Memory could be reduced to 15.89 Mwords without degradation in triples

 Integral transformation finished. Total CPU:   0.46 sec, npass=  1  Memory used:   1.90 MW

 Reference energy:                    -92.91382360

 MP2 singlet pair energy:              -0.23852908
 MP2 triplet pair energy:              -0.13232488
 MP2 correlation energy:               -0.37085396
 MP2 total energy:                    -93.28467756

 SCS-MP2 correlation energy:           -0.36857038   (PS=  1.200000  PT=  0.333333)
 SCS-MP2 total energy:                -93.28239398

 ITER.      SQ.NORM     CORR.ENERGY   TOTAL ENERGY   ENERGY CHANGE        DEN1      VAR(S)    VAR(P)  DIIS     TIME  TIME/IT
   1      1.11617267    -0.36940405   -93.28322766     0.00144991     0.01478054  0.26D-02  0.32D-02  1  1     0.90     0.52
   2      1.12551063    -0.36956322   -93.28338682    -0.00015917    -0.01023031  0.64D-04  0.41D-03  2  2     1.31     0.52
   3      1.13062419    -0.36979039   -93.28361400    -0.00022718    -0.00262988  0.14D-04  0.45D-04  3  3     1.77     0.53
   4      1.13275988    -0.36987016   -93.28369376    -0.00007976    -0.00075115  0.60D-06  0.51D-05  4  4     2.24     0.53
   5      1.13331048    -0.36987375   -93.28369735    -0.00000359    -0.00015670  0.78D-07  0.46D-06  5  5     2.73     0.53
   6      1.13342704    -0.36987114   -93.28369474     0.00000261    -0.00003072  0.10D-07  0.37D-07  6  6     3.21     0.53
   7      1.13343497    -0.36987283   -93.28369644    -0.00000170    -0.00000094  0.90D-09  0.31D-08  6  1     3.65     0.53
   8      1.13343669    -0.36987334   -93.28369694    -0.00000050    -0.00000045  0.11D-09  0.27D-09  6  2     4.11     0.53
   9      1.13343686    -0.36987341   -93.28369701    -0.00000007    -0.00000009  0.12D-10  0.17D-10  6  3     4.56     0.53
  10      1.13343672    -0.36987345   -93.28369706    -0.00000004     0.00000012  0.12D-11  0.17D-11  6  4     5.03     0.53
  11      1.13343665    -0.36987347   -93.28369707    -0.00000001     0.00000003  0.20D-12  0.14D-12  6  5     5.47     0.53
  12      1.13343658    -0.36987347   -93.28369707    -0.00000001     0.00000003  0.30D-13  0.25D-13  6  6     5.92     0.53
  13      1.13343655    -0.36987347   -93.28369708    -0.00000000     0.00000001  0.30D-14  0.61D-14  6  1     6.37     0.53
  14      1.13343653    -0.36987347   -93.28369708    -0.00000000     0.00000001  0.42D-15  0.58D-15  6  3     6.84     0.53
  15      1.13343652    -0.36987347   -93.28369708    -0.00000000     0.00000000  0.15D-16  0.41D-16  6  2     7.30     0.53
  16      1.13343652    -0.36987347   -93.28369708     0.00000000     0.00000000  0.30D-17  0.43D-17  6  4     7.77     0.53
  17      1.13343652    -0.36987347   -93.28369708    -0.00000000     0.00000000  0.58D-18  0.61D-18  6  5     8.24     0.53
  18      1.13343652    -0.36987347   -93.28369708    -0.00000000     0.00000000  0.54D-19  0.56D-19  6  6     8.72     0.53
  19      1.13343652    -0.36987347   -93.28369708    -0.00000000    -0.00000000  0.10D-19  0.69D-20  6  1     9.20     0.53

 Norm of t1 vector:      0.06501644      S-energy:    -0.00000000      T1 diagnostic:  0.01453812
                                                                       D1 diagnostic:  0.02925864

 Doubles amplitudes (print threshold =  0.500E-01):

         I         J         SYM. A    SYM. B    A         B      T(IJ, AB)

         4         4         2         2         3         3     -0.05109130
         5         5         3         3         3         3     -0.05109130


 Total CPU time for triples:      2.66 sec


 RESULTS
 =======

  Reference energy                    -92.913823603304
  CCSD singlet pair energy             -0.259261917346
  CCSD triplet pair energy             -0.110611555982
  CCSD correlation energy              -0.369873473329

  Triples (T) contribution             -0.019724738556
  Total correlation energy             -0.389598211885

  CCSD total energy                   -93.283697076634
  CCSD[T] energy                      -93.304272996072
  CCSD-T energy                       -93.303034826530
 !CCSD(T) total energy                -93.303421815189

 Timing summary (sec):

 STEP                 CPU(USER)    SYS     CPU(TOT)    WALL
 Transformation          0.47      0.10      0.57      0.68
 CCSD iterations         8.73      1.41     10.14     10.15
 Triples                 2.66      0.13      2.79      2.79

 Program statistics:

 Available memory in ccsd:               994999800
 Min. memory needed in ccsd:                524097
 Max. memory used in ccsd:                  626326
 Max. memory used in cckext:                818237 (19 integral passes)



 **********************************************************************************************************************************
 DATASETS  * FILE   NREC   LENGTH (MB)   RECORD NAMES
              1      20      504.86       500      610      700      900      950      970     1000      129      960     1100   
                                          VAR    BASINP    GEOM    SYMINP    ZMAT    AOBASIS   BASIS     P2S    ABASIS      S 
                                         1400     1410     1200     1210     1080     1600     1650     1300     1700     1380   
                                           T        V       H0       H01     AOSYM     SMH    MOLCAS    ERIS     OPER     JKOP   

              2       4        3.06       700     1000      520     2100   
                                         GEOM     BASIS   MCVARS     RHF  

 PROGRAMS   *        TOTAL   CCSD(T)        HF       INT
 CPU TIMES  *        23.20     11.91      2.54      8.64
 REAL TIME  *        32.41 SEC
 DISK USED  *         1.47 GB      
 **********************************************************************************************************************************

 CCSD(T)/aug-cc-pVQZ energy=    -93.303421815189

        CCSD(T)         HF-SCF  
    -93.30342182    -92.91382360
 **********************************************************************************************************************************
 Molpro calculation terminated
 Variable memory released
