
 Primary working directories    : /tmp/r2666/232487.maple
 Secondary working directories  : /tmp/r2666/232487.maple
 Wavefunction directory         : /ddn/home4/r2666/wfu/
 Main file repository           : /tmp/r2666/232487.maple/

 SHA1      : d5ffa45e93fdbca01ffc919aa182cfdae0147319
 NAME      : 2015.1.35
 ARCHNAME  : linux/x86_64
 FC        : /opt/intel/composer_xe_2015.1.133/bin/intel64/ifort
 BLASLIB   : -Wl,-_start-group /opt/intel/mkl/lib/intel64/libmkl_intel_ilp64.a /opt/intel/mkl/lib/intel64/libmkl_intel_thread.a /opt/intel/mkl/lib/intel64/libmkl_core.a -Wl,-_end-group
 id        : olemiss

 Nodes     nprocs
 cn078        1

 Using customized tuning parameters: mindgm=1; mindgv=20; mindgc=4; mindgr=1; noblas=0; minvec=7
 default implementation of scratch files=df  

 ***,hcn CCSD(T)/TZ-F12 QFF
 memory, 995, m;
 gthresh,energy=1.d-12,zero=1.d-22,oneint=1.d-22,twoint=1.d-22;
 gthresh,optgrad=1.d-8,optstep=1.d-8;
 nocompress;
 geomtyp=xyz
 bohr
 geometry={
 3
         41        41
 N       -0.0046256470        0.0000000675        1.1309517820
 C        0.0096312361       -0.0000000018       -1.0573000722
 H       -0.0050055891       -0.0000000657       -3.0707216918
 }
 
 basis=avqz
   {hf,maxit=500;accu,20;}
 {ccsd(t),nocheck,maxit=250;orbital,IGNORE_ERROR;}

 Variables initialized (889), CPU time= 0.00 sec
 Commands  initialized (702), CPU time= 0.01 sec, 572 directives.
 Default parameters read. Elapsed time= 0.05 sec

 Checking input...
 Passed
1


                                         ***  PROGRAM SYSTEM MOLPRO  ***
                                       Copyright, TTI GmbH Stuttgart, 2015
                                    Version 2015.1 linked Jul  9 2018 13:16:40


 **********************************************************************************************************************************
 LABEL *   hcn CCSD(T)/TZ-F12 QFF                                                        
  64 bit serial version                                                                  DATE: 06-Feb-20          TIME: 09:53:34  
 **********************************************************************************************************************************

 SHA1:             d5ffa45e93fdbca01ffc919aa182cfdae0147319
 **********************************************************************************************************************************

 THRESHOLDS:

 ZERO    =  1.00D-22  ONEINT  =  1.00D-22  TWOINT  =  1.00D-22  PREFAC  =  1.00D-14  LOCALI  =  1.00D-09  EORDER  =  1.00D-04
 ENERGY  =  1.00D-12  ETEST   =  0.00D+00  EDENS   =  0.00D+00  THRDEDEF=  1.00D-06  GRADIENT=  1.00D-02  STEP    =  1.00D-03
 ORBITAL =  1.00D-05  CIVEC   =  1.00D-05  COEFF   =  1.00D-04  PRINTCI =  5.00D-02  PUNCHCI =  9.90D+01  OPTGRAD =  3.00D-04
 OPTENERG=  1.00D-06  OPTSTEP =  3.00D-04  THRGRAD =  1.00D-10  COMPRESS=  1.00D-11  VARMIN  =  1.00D-07  VARMAX  =  1.00D-03
 THRDOUB =  0.00D+00  THRDIV  =  1.00D-05  THRRED  =  1.00D-07  THRPSP  =  1.00D+00  THRDC   =  1.00D-10  THRCS   =  1.00D-10
 THRNRM  =  1.00D-08  THREQ   =  0.00D+00  THRDE   =  1.00D+00  THRREF  =  1.00D-05  SPARFAC =  1.00D+00  THRDLP  =  1.00D-07
 THRDIA  =  1.00D-10  THRDLS  =  1.00D-07  THRGPS  =  0.00D+00  THRKEX  =  0.00D+00  THRDIS  =  2.00D-01  THRVAR  =  1.00D-10
 THRLOC  =  1.00D-06  THRGAP  =  1.00D-06  THRLOCT = -1.00D+00  THRGAPT = -1.00D+00  THRORB  =  1.00D-06  THRMLTP =  0.00D+00
 THRCPQCI=  1.00D-10  KEXTA   =  0.00D+00  THRCOARS=  0.00D+00  SYMTOL  =  1.00D-06  GRADTOL =  1.00D-06  THROVL  =  1.00D-08
 THRORTH =  1.00D-08  GRID    =  1.00D-06  GRIDMAX =  1.00D-03  DTMAX   =  0.00D+00  THROCCDE=  1.00D-01  THROCCDE=  1.00D-01



 THRESHOLDS:

 ZERO    =  1.00D-22  ONEINT  =  1.00D-22  TWOINT  =  1.00D-22  PREFAC  =  1.00D-14  LOCALI  =  1.00D-09  EORDER  =  1.00D-04
 ENERGY  =  1.00D-12  ETEST   =  0.00D+00  EDENS   =  0.00D+00  THRDEDEF=  1.00D-06  GRADIENT=  1.00D-02  STEP    =  1.00D-03
 ORBITAL =  1.00D-05  CIVEC   =  1.00D-05  COEFF   =  1.00D-04  PRINTCI =  5.00D-02  PUNCHCI =  9.90D+01  OPTGRAD =  1.00D-08
 OPTENERG=  1.00D-06  OPTSTEP =  1.00D-08  THRGRAD =  1.00D-10  COMPRESS=  1.00D-11  VARMIN  =  1.00D-07  VARMAX  =  1.00D-03
 THRDOUB =  0.00D+00  THRDIV  =  1.00D-05  THRRED  =  1.00D-07  THRPSP  =  1.00D+00  THRDC   =  1.00D-10  THRCS   =  1.00D-10
 THRNRM  =  1.00D-08  THREQ   =  0.00D+00  THRDE   =  1.00D+00  THRREF  =  1.00D-05  SPARFAC =  1.00D+00  THRDLP  =  1.00D-07
 THRDIA  =  1.00D-10  THRDLS  =  1.00D-07  THRGPS  =  0.00D+00  THRKEX  =  0.00D+00  THRDIS  =  2.00D-01  THRVAR  =  1.00D-10
 THRLOC  =  1.00D-06  THRGAP  =  1.00D-06  THRLOCT = -1.00D+00  THRGAPT = -1.00D+00  THRORB  =  1.00D-06  THRMLTP =  0.00D+00
 THRCPQCI=  1.00D-10  KEXTA   =  0.00D+00  THRCOARS=  0.00D+00  SYMTOL  =  1.00D-06  GRADTOL =  1.00D-06  THROVL  =  1.00D-08
 THRORTH =  1.00D-08  GRID    =  1.00D-06  GRIDMAX =  1.00D-03  DTMAX   =  0.00D+00  THROCCDE=  1.00D-01  THROCCDE=  1.00D-01



 Input parameters for SORTINT:

 COMPRESS =    0.000000
 C_FINAL  =    1.000000
 DEBUG    =   -1.000000
 C_SORT1  =    0.000000
 C_SEWARD =    0.000000
 THRESH   =    0.000000
 IO       =  molpro                                                          
 SPRI     =    0.000000
 SETTING GEOMTYP        =    XYZ
 ZUNIT=BOHR
 

 Variable memory set to  995000000 words,  buffer space   230000 words

 SETTING BASIS          =    AVQZ


 Recomputing integrals since basis changed


 Using spherical harmonics

 Library entry N      S aug-cc-pVQZ          selected for orbital group  1
 Library entry N      P aug-cc-pVQZ          selected for orbital group  1
 Library entry N      D aug-cc-pVQZ          selected for orbital group  1
 Library entry N      F aug-cc-pVQZ          selected for orbital group  1
 Library entry N      G aug-cc-pVQZ          selected for orbital group  1
 Library entry C      S aug-cc-pVQZ          selected for orbital group  2
 Library entry C      P aug-cc-pVQZ          selected for orbital group  2
 Library entry C      D aug-cc-pVQZ          selected for orbital group  2
 Library entry C      F aug-cc-pVQZ          selected for orbital group  2
 Library entry C      G aug-cc-pVQZ          selected for orbital group  2
 Library entry H      S aug-cc-pVQZ          selected for orbital group  3
 Library entry H      P aug-cc-pVQZ          selected for orbital group  3
 Library entry H      D aug-cc-pVQZ          selected for orbital group  3
 Library entry H      F aug-cc-pVQZ          selected for orbital group  3


 PROGRAM * SEWARD (Integral evaluation for generally contracted gaussian basis sets)     Author: Roland Lindh, 1990

 Geometry written to block  1 of record 700


 Point group  Cs  



 ATOMIC COORDINATES

 NR  ATOM    CHARGE       X              Y              Z

   1  N       7.00   -0.004625647    0.000000000    1.130951782
   2  C       6.00    0.009631236    0.000000000   -1.057300072
   3  H       1.00   -0.005005589    0.000000000   -3.070721692

 Bond lengths in Bohr (Angstrom)

 1-2  2.188298297  2-3  2.013474821
     ( 1.157997589)     ( 1.065484990)

 Bond angles

  1-2-3  179.21020058

 NUCLEAR CHARGE:                   14
 NUMBER OF PRIMITIVE AOS:         293
 NUMBER OF SYMMETRY AOS:          234
 NUMBER OF CONTRACTIONS:          206   ( 130A'  +  76A"  )
 NUMBER OF CORE ORBITALS:           2   (   2A'  +   0A"  )
 NUMBER OF VALENCE ORBITALS:        9   (   7A'  +   2A"  )


 NUCLEAR REPULSION ENERGY   23.83892167


 Eigenvalues of metric

         1 0.174E-04 0.393E-04 0.724E-04 0.280E-03 0.399E-03 0.406E-03 0.439E-03 0.526E-03
         2 0.404E-03 0.944E-03 0.303E-02 0.355E-02 0.465E-02 0.480E-02 0.645E-02 0.871E-02


 Contracted 2-electron integrals neglected if value below      1.0D-22

      109905842. INTEGRALS WRITTEN OUT IN   26840 BLOCKS ON RECORD 1290 OF FILE 1


 NUMBER OF SORTED TWO-ELECTRON INTEGRALS:  115283741.     BUFFER LENGTH:  32768
 NUMBER OF SEGMENTS:   8  SEGMENT LENGTH:   15998004      RECORD LENGTH: 524288

 Memory used in sort:      16.56 MW

 SORT1 READ   109905842. AND WROTE   110825860. INTEGRALS IN    321 RECORDS. CPU TIME:     1.75 SEC, REAL TIME:     2.66 SEC
 SORT2 READ   110825860. AND WROTE   115283741. INTEGRALS IN      8 RECORDS. CPU TIME:     1.36 SEC, REAL TIME:     1.91 SEC

 FILE SIZES:   FILE 1:  1780.0 MBYTE,  FILE 4:  1346.4 MBYTE,   TOTAL:   3126.5 MBYTE

 OPERATOR DM      FOR CENTER  0  COORDINATES:    0.000000    0.000000    0.000000


 **********************************************************************************************************************************
 DATASETS  * FILE   NREC   LENGTH (MB)   RECORD NAMES
              1      19      943.99       500      610      700      900      950      970     1000      129      960     1100   
                                          VAR    BASINP    GEOM    SYMINP    ZMAT    AOBASIS   BASIS     P2S    ABASIS      S 
                                         1400     1410     1200     1210     1080     1600     1650     1300     1700   
                                           T        V       H0       H01     AOSYM     SMH    MOLCAS    ERIS     OPER   

 PROGRAMS   *        TOTAL       INT
 CPU TIMES  *        10.96     10.87
 REAL TIME  *        13.80 SEC
 DISK USED  *         3.13 GB      
 **********************************************************************************************************************************


 PROGRAM * RHF-SCF (CLOSED SHELL)       Authors: W. Meyer, H.-J. Werner


 NUMBER OF ELECTRONS:       7+    7-
 CONVERGENCE THRESHOLDS:    1.00E-10 (Density)    1.00E-13 (Energy)
 MAX. NUMBER OF ITERATIONS:      500
 INTERPOLATION TYPE:            DIIS
 INTERPOLATION STEPS:              2 (START)      1 (STEP)
 LEVEL SHIFTS:                  0.00 (CLOSED)  0.00 (OPEN) 



 Orbital guess generated from atomic densities. Full valence occupancy:    9   2

 Molecular orbital dump at record        2100.2

 Initial occupancy:   6   1

 ITERATION    DDIFF          GRAD             ENERGY        2-EL.EN.            DIPOLE MOMENTS         DIIS   ORB.
    1      0.000D+00      0.000D+00       -92.88931915    111.788364    0.00692    0.00000   -1.78628    0    start
    2      0.000D+00      0.536D-02       -92.89810506    110.941288   -0.00253    0.00000   -0.89472    1    diag
    3      0.527D-02      0.481D-02       -92.91353024    111.479216    0.00143    0.00000   -1.30906    2    diag
    4      0.261D-02      0.400D-03       -92.91376232    111.438469    0.00110    0.00000   -1.29781    3    diag
    5      0.467D-03      0.877D-04       -92.91377597    111.449356    0.00099    0.00000   -1.29636    4    diag
    6      0.112D-03      0.240D-04       -92.91377685    111.444096    0.00098    0.00000   -1.29637    5    diag
    7      0.255D-04      0.859D-05       -92.91377693    111.445263    0.00097    0.00000   -1.29643    6    diag
    8      0.847D-05      0.181D-05       -92.91377694    111.445214    0.00097    0.00000   -1.29640    7    diag
    9      0.180D-05      0.208D-06       -92.91377694    111.445224    0.00097    0.00000   -1.29639    8    diag
   10      0.259D-06      0.261D-07       -92.91377694    111.445224    0.00097    0.00000   -1.29639    9    orth
   11      0.292D-07      0.488D-08       -92.91377694    111.445224    0.00097    0.00000   -1.29639    9    diag
   12      0.629D-08      0.184D-08       -92.91377694    111.445224    0.00097    0.00000   -1.29639    9    diag
   13      0.323D-08      0.871D-09       -92.91377694    111.445224    0.00097    0.00000   -1.29639    9    diag
   14      0.228D-08      0.223D-09       -92.91377694    111.445224    0.00097    0.00000   -1.29639    9    diag
   15      0.502D-09      0.874D-10       -92.91377694    111.445224    0.00097    0.00000   -1.29639    9    diag
   16      0.192D-09      0.173D-10       -92.91377694    111.445224    0.00097    0.00000   -1.29639    9    diag
   17      0.280D-10      0.388D-11       -92.91377694    111.445224    0.00097    0.00000   -1.29639    9    diag
   18      0.116D-10      0.542D-12       -92.91377694    111.445224    0.00097    0.00000   -1.29639    9    diag
   19      0.835D-11      0.211D-12       -92.91377694    111.445224    0.00097    0.00000   -1.29639    9    fixocc
   20      0.816D-11      0.131D-12       -92.91377694    111.445224    0.00097    0.00000   -1.29639    9    orth
   21      0.310D-11      0.182D-12       -92.91377694    111.445224    0.00097    0.00000   -1.29639    9    diag
   22      0.131D-11      0.146D-12       -92.91377694    111.445224    0.00097    0.00000   -1.29639    9    diag
   23      0.196D-11      0.243D-12       -92.91377694    111.445224    0.00097    0.00000   -1.29639    0    orth

 Final occupancy:   6   1

 !RHF STATE 1.1 Energy                -92.913776936752
 Nuclear energy                        23.83892167
 One-electron energy                 -172.47531082
 Two-electron energy                   55.72261221
 Virial quotient                       -1.00234456
 !RHF STATE 1.1 Dipole moment           0.00097320     0.00000000    -1.29639299
 Dipole moment /Debye                   0.00247347     0.00000000    -3.29488649

 Orbital energies:

         1.1          2.1          3.1          4.1          5.1          6.1          7.1          8.1
    -15.600187   -11.292983    -1.234293    -0.813976    -0.582549    -0.495526     0.020510     0.062607

         1.2          2.2          3.2
     -0.495529     0.063586     0.119355

 HOMO      6.1    -0.495526 =     -13.4840eV
 LUMO      7.1     0.020510 =       0.5581eV
 LUMO-HOMO         0.516036 =      14.0421eV


 **********************************************************************************************************************************
 DATASETS  * FILE   NREC   LENGTH (MB)   RECORD NAMES
              1      19      943.99       500      610      700      900      950      970     1000      129      960     1100   
                                          VAR    BASINP    GEOM    SYMINP    ZMAT    AOBASIS   BASIS     P2S    ABASIS      S 
                                         1400     1410     1200     1210     1080     1600     1650     1300     1700   
                                           T        V       H0       H01     AOSYM     SMH    MOLCAS    ERIS     OPER   

              2       4        3.27       700     1000      520     2100   
                                         GEOM     BASIS   MCVARS     RHF  

 PROGRAMS   *        TOTAL        HF       INT
 CPU TIMES  *        22.51     11.54     10.87
 REAL TIME  *        28.20 SEC
 DISK USED  *         3.13 GB      
 **********************************************************************************************************************************


 PROGRAM * CCSD (Closed-shell coupled cluster)     Authors: C. Hampel, H.-J. Werner, 1991, M. Deegan, P.J. Knowles, 1992


 Convergence thresholds:  THRVAR = 1.00D-08  THRDEN = 1.00D-12

 CCSD(T)     terms to be evaluated (factor= 1.000)


 Number of core orbitals:           2 (   2   0 )
 Number of closed-shell orbitals:   5 (   4   1 )
 Number of external orbitals:     199 ( 124  75 )

 Molecular orbitals read from record     2100.2  Type=RHF/CANONICAL (state 1.1)

 Number of N-1 electron functions:               5
 Number of N-2 electron functions:              15
 Number of singly external CSFs:               571
 Number of doubly external CSFs:            253406
 Total number of CSFs:                      253978

 Length of J-op  integral file:               0.00 MB
 Length of K-op  integral file:               1.60 MB
 Length of 3-ext integral record:             0.00 MB

 Memory could be reduced to 30.93 Mwords without degradation in triples

 Integral transformation finished. Total CPU:   1.36 sec, npass=  1  Memory used:   8.33 MW

 Reference energy:                    -92.91377694

 MP2 singlet pair energy:              -0.23856574
 MP2 triplet pair energy:              -0.13233893
 MP2 correlation energy:               -0.37090468
 MP2 total energy:                    -93.28468161

 SCS-MP2 correlation energy:           -0.36862312   (PS=  1.200000  PT=  0.333333)
 SCS-MP2 total energy:                -93.28240005

 ITER.      SQ.NORM     CORR.ENERGY   TOTAL ENERGY   ENERGY CHANGE        DEN1      VAR(S)    VAR(P)  DIIS     TIME  TIME/IT
   1      1.11626565    -0.36945570   -93.28323264     0.00144898     0.01479308  0.26D-02  0.32D-02  1  1     2.43     1.20
   2      1.12562044    -0.36961838   -93.28339532    -0.00016268    -0.01024024  0.64D-04  0.41D-03  2  2     3.51     1.21
   3      1.13075047    -0.36984730   -93.28362424    -0.00022892    -0.00263697  0.14D-04  0.45D-04  3  3     4.58     1.22
   4      1.13289055    -0.36992729   -93.28370423    -0.00007999    -0.00075269  0.60D-06  0.52D-05  4  4     5.67     1.23
   5      1.13344238    -0.36993110   -93.28370804    -0.00000381    -0.00015687  0.80D-07  0.46D-06  5  5     6.79     1.24
   6      1.13356018    -0.36992845   -93.28370538     0.00000266    -0.00003107  0.10D-07  0.37D-07  6  6     7.89     1.24
   7      1.13356827    -0.36993013   -93.28370707    -0.00000168    -0.00000098  0.91D-09  0.31D-08  6  1     8.94     1.24
   8      1.13357003    -0.36993063   -93.28370757    -0.00000050    -0.00000046  0.11D-09  0.27D-09  6  2     9.98     1.24
   9      1.13357021    -0.36993070   -93.28370764    -0.00000007    -0.00000010  0.12D-10  0.17D-10  6  3    11.02     1.23
  10      1.13357006    -0.36993075   -93.28370768    -0.00000005     0.00000012  0.12D-11  0.17D-11  6  4    12.05     1.23
  11      1.13356999    -0.36993076   -93.28370770    -0.00000001     0.00000003  0.20D-12  0.15D-12  6  5    13.12     1.23
  12      1.13356993    -0.36993076   -93.28370770    -0.00000001     0.00000003  0.29D-13  0.25D-13  6  6    14.16     1.23
  13      1.13356989    -0.36993077   -93.28370770    -0.00000000     0.00000001  0.33D-14  0.62D-14  6  1    15.20     1.23
  14      1.13356987    -0.36993077   -93.28370770    -0.00000000     0.00000001  0.49D-15  0.61D-15  6  3    16.32     1.23
  15      1.13356987    -0.36993077   -93.28370770    -0.00000000     0.00000000  0.39D-16  0.44D-16  6  2    17.45     1.24
  16      1.13356987    -0.36993077   -93.28370770     0.00000000     0.00000000  0.11D-16  0.58D-17  6  4    18.46     1.23
  17      1.13356987    -0.36993077   -93.28370770    -0.00000000     0.00000000  0.27D-17  0.11D-17  6  5    19.49     1.23
  18      1.13356987    -0.36993077   -93.28370770     0.00000000     0.00000000  0.41D-18  0.19D-18  6  6    20.57     1.23
  19      1.13356987    -0.36993077   -93.28370770     0.00000000    -0.00000000  0.67D-19  0.38D-19  6  1    21.64     1.23

 Norm of t1 vector:      0.06505027      S-energy:    -0.00000000      T1 diagnostic:  0.01454568
                                                                       D1 diagnostic:  0.02925154

 Doubles amplitudes (print threshold =  0.500E-01):

         I         J         SYM. A    SYM. B    A         B      T(IJ, AB)

         4         4         1         1         7         7     -0.05102710
         5         5         2         2         3         3     -0.05106724


 Total CPU time for triples:      9.31 sec


 RESULTS
 =======

  Reference energy                    -92.913776936752
  CCSD singlet pair energy             -0.259322932254
  CCSD triplet pair energy             -0.110607834722
  CCSD correlation energy              -0.369930766977

  Triples (T) contribution             -0.019738360893
  Total correlation energy             -0.389669127871

  CCSD total energy                   -93.283707703729
  CCSD[T] energy                      -93.304298038517
  CCSD-T energy                       -93.303058864621
 !CCSD(T) total energy                -93.303446064622

 Timing summary (sec):

 STEP                 CPU(USER)    SYS     CPU(TOT)    WALL
 Transformation          1.39      0.24      1.63      1.62
 CCSD iterations        20.25      3.13     23.38     23.40
 Triples                 9.31      0.25      9.56      9.57

 Program statistics:

 Available memory in ccsd:               994999800
 Min. memory needed in ccsd:               1003324
 Max. memory used in ccsd:                 1199476
 Max. memory used in cckext:               2145959 (19 integral passes)



 **********************************************************************************************************************************
 DATASETS  * FILE   NREC   LENGTH (MB)   RECORD NAMES
              1      20     1028.32       500      610      700      900      950      970     1000      129      960     1100   
                                          VAR    BASINP    GEOM    SYMINP    ZMAT    AOBASIS   BASIS     P2S    ABASIS      S 
                                         1400     1410     1200     1210     1080     1600     1650     1300     1700     1380   
                                           T        V       H0       H01     AOSYM     SMH    MOLCAS    ERIS     OPER     JKOP   

              2       4        3.27       700     1000      520     2100   
                                         GEOM     BASIS   MCVARS     RHF  

 PROGRAMS   *        TOTAL   CCSD(T)        HF       INT
 CPU TIMES  *        53.48     30.97     11.54     10.87
 REAL TIME  *        62.81 SEC
 DISK USED  *         3.13 GB      
 **********************************************************************************************************************************

 CCSD(T)/aug-cc-pVQZ energy=    -93.303446064622

        CCSD(T)         HF-SCF  
    -93.30344606    -92.91377694
 **********************************************************************************************************************************
 Molpro calculation terminated
 Variable memory released
