
 Primary working directories    : /tmp/r2666/232491.maple
 Secondary working directories  : /tmp/r2666/232491.maple
 Wavefunction directory         : /ddn/home4/r2666/wfu/
 Main file repository           : /tmp/r2666/232491.maple/

 SHA1      : d5ffa45e93fdbca01ffc919aa182cfdae0147319
 NAME      : 2015.1.35
 ARCHNAME  : linux/x86_64
 FC        : /opt/intel/composer_xe_2015.1.133/bin/intel64/ifort
 BLASLIB   : -Wl,-_start-group /opt/intel/mkl/lib/intel64/libmkl_intel_ilp64.a /opt/intel/mkl/lib/intel64/libmkl_intel_thread.a /opt/intel/mkl/lib/intel64/libmkl_core.a -Wl,-_end-group
 id        : olemiss

 Nodes     nprocs
 cn095        1

 Using customized tuning parameters: mindgm=1; mindgv=20; mindgc=4; mindgr=1; noblas=0; minvec=7
 default implementation of scratch files=df  

 ***,hcn CCSD(T)/TZ-F12 QFF
 memory, 995, m;
 gthresh,energy=1.d-12,zero=1.d-22,oneint=1.d-22,twoint=1.d-22;
 gthresh,optgrad=1.d-8,optstep=1.d-8;
 nocompress;
 geomtyp=xyz
 bohr
 geometry={
 3
         45        45
 N        0.0000000000        0.0000000000        1.1404491076
 C        0.0000000000        0.0000000000       -1.0478491894
 H        0.0000000000        0.0000000000       -3.0896699002
 }
 
 basis=avqz
   {hf,maxit=500;accu,20;}
 {ccsd(t),nocheck,maxit=250;orbital,IGNORE_ERROR;}

 Variables initialized (889), CPU time= 0.01 sec
 Commands  initialized (702), CPU time= 0.01 sec, 572 directives.
 Default parameters read. Elapsed time= 0.05 sec

 Checking input...
 Passed
1


                                         ***  PROGRAM SYSTEM MOLPRO  ***
                                       Copyright, TTI GmbH Stuttgart, 2015
                                    Version 2015.1 linked Jul  9 2018 13:16:40


 **********************************************************************************************************************************
 LABEL *   hcn CCSD(T)/TZ-F12 QFF                                                        
  64 bit serial version                                                                  DATE: 06-Feb-20          TIME: 09:53:44  
 **********************************************************************************************************************************

 SHA1:             d5ffa45e93fdbca01ffc919aa182cfdae0147319
 **********************************************************************************************************************************

 THRESHOLDS:

 ZERO    =  1.00D-22  ONEINT  =  1.00D-22  TWOINT  =  1.00D-22  PREFAC  =  1.00D-14  LOCALI  =  1.00D-09  EORDER  =  1.00D-04
 ENERGY  =  1.00D-12  ETEST   =  0.00D+00  EDENS   =  0.00D+00  THRDEDEF=  1.00D-06  GRADIENT=  1.00D-02  STEP    =  1.00D-03
 ORBITAL =  1.00D-05  CIVEC   =  1.00D-05  COEFF   =  1.00D-04  PRINTCI =  5.00D-02  PUNCHCI =  9.90D+01  OPTGRAD =  3.00D-04
 OPTENERG=  1.00D-06  OPTSTEP =  3.00D-04  THRGRAD =  1.00D-10  COMPRESS=  1.00D-11  VARMIN  =  1.00D-07  VARMAX  =  1.00D-03
 THRDOUB =  0.00D+00  THRDIV  =  1.00D-05  THRRED  =  1.00D-07  THRPSP  =  1.00D+00  THRDC   =  1.00D-10  THRCS   =  1.00D-10
 THRNRM  =  1.00D-08  THREQ   =  0.00D+00  THRDE   =  1.00D+00  THRREF  =  1.00D-05  SPARFAC =  1.00D+00  THRDLP  =  1.00D-07
 THRDIA  =  1.00D-10  THRDLS  =  1.00D-07  THRGPS  =  0.00D+00  THRKEX  =  0.00D+00  THRDIS  =  2.00D-01  THRVAR  =  1.00D-10
 THRLOC  =  1.00D-06  THRGAP  =  1.00D-06  THRLOCT = -1.00D+00  THRGAPT = -1.00D+00  THRORB  =  1.00D-06  THRMLTP =  0.00D+00
 THRCPQCI=  1.00D-10  KEXTA   =  0.00D+00  THRCOARS=  0.00D+00  SYMTOL  =  1.00D-06  GRADTOL =  1.00D-06  THROVL  =  1.00D-08
 THRORTH =  1.00D-08  GRID    =  1.00D-06  GRIDMAX =  1.00D-03  DTMAX   =  0.00D+00  THROCCDE=  1.00D-01  THROCCDE=  1.00D-01



 THRESHOLDS:

 ZERO    =  1.00D-22  ONEINT  =  1.00D-22  TWOINT  =  1.00D-22  PREFAC  =  1.00D-14  LOCALI  =  1.00D-09  EORDER  =  1.00D-04
 ENERGY  =  1.00D-12  ETEST   =  0.00D+00  EDENS   =  0.00D+00  THRDEDEF=  1.00D-06  GRADIENT=  1.00D-02  STEP    =  1.00D-03
 ORBITAL =  1.00D-05  CIVEC   =  1.00D-05  COEFF   =  1.00D-04  PRINTCI =  5.00D-02  PUNCHCI =  9.90D+01  OPTGRAD =  1.00D-08
 OPTENERG=  1.00D-06  OPTSTEP =  1.00D-08  THRGRAD =  1.00D-10  COMPRESS=  1.00D-11  VARMIN  =  1.00D-07  VARMAX  =  1.00D-03
 THRDOUB =  0.00D+00  THRDIV  =  1.00D-05  THRRED  =  1.00D-07  THRPSP  =  1.00D+00  THRDC   =  1.00D-10  THRCS   =  1.00D-10
 THRNRM  =  1.00D-08  THREQ   =  0.00D+00  THRDE   =  1.00D+00  THRREF  =  1.00D-05  SPARFAC =  1.00D+00  THRDLP  =  1.00D-07
 THRDIA  =  1.00D-10  THRDLS  =  1.00D-07  THRGPS  =  0.00D+00  THRKEX  =  0.00D+00  THRDIS  =  2.00D-01  THRVAR  =  1.00D-10
 THRLOC  =  1.00D-06  THRGAP  =  1.00D-06  THRLOCT = -1.00D+00  THRGAPT = -1.00D+00  THRORB  =  1.00D-06  THRMLTP =  0.00D+00
 THRCPQCI=  1.00D-10  KEXTA   =  0.00D+00  THRCOARS=  0.00D+00  SYMTOL  =  1.00D-06  GRADTOL =  1.00D-06  THROVL  =  1.00D-08
 THRORTH =  1.00D-08  GRID    =  1.00D-06  GRIDMAX =  1.00D-03  DTMAX   =  0.00D+00  THROCCDE=  1.00D-01  THROCCDE=  1.00D-01



 Input parameters for SORTINT:

 COMPRESS =    0.000000
 C_FINAL  =    1.000000
 DEBUG    =   -1.000000
 C_SORT1  =    0.000000
 C_SEWARD =    0.000000
 THRESH   =    0.000000
 IO       =  molpro                                                          
 SPRI     =    0.000000
 SETTING GEOMTYP        =    XYZ
 ZUNIT=BOHR
 

 Variable memory set to  995000000 words,  buffer space   230000 words

 SETTING BASIS          =    AVQZ


 Recomputing integrals since basis changed


 Using spherical harmonics

 Library entry N      S aug-cc-pVQZ          selected for orbital group  1
 Library entry N      P aug-cc-pVQZ          selected for orbital group  1
 Library entry N      D aug-cc-pVQZ          selected for orbital group  1
 Library entry N      F aug-cc-pVQZ          selected for orbital group  1
 Library entry N      G aug-cc-pVQZ          selected for orbital group  1
 Library entry C      S aug-cc-pVQZ          selected for orbital group  2
 Library entry C      P aug-cc-pVQZ          selected for orbital group  2
 Library entry C      D aug-cc-pVQZ          selected for orbital group  2
 Library entry C      F aug-cc-pVQZ          selected for orbital group  2
 Library entry C      G aug-cc-pVQZ          selected for orbital group  2
 Library entry H      S aug-cc-pVQZ          selected for orbital group  3
 Library entry H      P aug-cc-pVQZ          selected for orbital group  3
 Library entry H      D aug-cc-pVQZ          selected for orbital group  3
 Library entry H      F aug-cc-pVQZ          selected for orbital group  3


 PROGRAM * SEWARD (Integral evaluation for generally contracted gaussian basis sets)     Author: Roland Lindh, 1990

 Geometry written to block  1 of record 700


 Point group  C2v 



 ATOMIC COORDINATES

 NR  ATOM    CHARGE       X              Y              Z

   1  N       7.00    0.000000000    0.000000000    1.140449108
   2  C       6.00    0.000000000    0.000000000   -1.047849189
   3  H       1.00    0.000000000    0.000000000   -3.089669900

 Bond lengths in Bohr (Angstrom)

 1-2  2.188298297  2-3  2.041820711
     ( 1.157997589)     ( 1.080484989)

 Bond angles

  1-2-3  179.99999829

 NUCLEAR CHARGE:                   14
 NUMBER OF PRIMITIVE AOS:         293
 NUMBER OF SYMMETRY AOS:          234
 NUMBER OF CONTRACTIONS:          206   (  81A1  +  49B1  +  49B2  +  27A2  )
 NUMBER OF CORE ORBITALS:           2   (   2A1  +   0B1  +   0B2  +   0A2  )
 NUMBER OF VALENCE ORBITALS:        9   (   5A1  +   2B1  +   2B2  +   0A2  )


 NUCLEAR REPULSION ENERGY   23.78634936

 EXTRA SYMMETRY OF AOS IN SYMMETRY 1:   1 1 1 1 1 1 1 1 1 1   1 1 2 1 2 1 2 1 2 1   2 1 2 1 2 1 3 2 1 3   2 1 1 1 1 1 1 1 1 1
                                        1 1 1 2 1 2 1 2 1 2   1 2 1 2 1 2 1 3 2 1   3 2 1 1 1 1 1 1 1 1   1 1 2 1 2 1 2 1 2 1
                                        2
 EXTRA SYMMETRY OF AOS IN SYMMETRY 2:   1 1 1 1 1 1 1 1 1 1   2 1 2 1 2 1 2 1 2 1   1 1 1 1 1 1 1 1 1 2   1 2 1 2 1 2 1 2 1 1
                                        1 1 1 1 1 1 2 1 2
 EXTRA SYMMETRY OF AOS IN SYMMETRY 3:   1 1 1 1 1 1 1 1 1 1   2 1 2 1 2 1 2 1 2 1   1 1 1 1 1 1 1 1 1 2   1 2 1 2 1 2 1 2 1 1
                                        1 1 1 1 1 1 2 1 2
 EXTRA SYMMETRY OF AOS IN SYMMETRY 4:   1 1 1 1 1 1 1 1 2 1   2 1 1 1 1 1 1 1 1 2   1 2 1 1 1 1 1

 Eigenvalues of metric

         1 0.184E-04 0.398E-04 0.782E-04 0.283E-03 0.405E-03 0.440E-03 0.533E-03 0.834E-03
         2 0.405E-03 0.986E-03 0.311E-02 0.371E-02 0.494E-02 0.659E-02 0.880E-02 0.108E-01
         3 0.405E-03 0.986E-03 0.311E-02 0.371E-02 0.494E-02 0.659E-02 0.880E-02 0.108E-01
         4 0.465E-02 0.131E-01 0.325E-01 0.590E-01 0.903E-01 0.143E+00 0.199E+00 0.231E+00


 Contracted 2-electron integrals neglected if value below      1.0D-22

       51217476. INTEGRALS WRITTEN OUT IN   12508 BLOCKS ON RECORD 1290 OF FILE 1


 NUMBER OF SORTED TWO-ELECTRON INTEGRALS:   58298162.     BUFFER LENGTH:  32768
 NUMBER OF SEGMENTS:   4  SEGMENT LENGTH:   15999501      RECORD LENGTH: 524288

 Memory used in sort:      16.56 MW

 SORT1 READ    51217476. AND WROTE    51972551. INTEGRALS IN    150 RECORDS. CPU TIME:     1.20 SEC, REAL TIME:     1.57 SEC
 SORT2 READ    51972551. AND WROTE    58298162. INTEGRALS IN      4 RECORDS. CPU TIME:     0.77 SEC, REAL TIME:     1.01 SEC

 FILE SIZES:   FILE 1:   840.6 MBYTE,  FILE 4:   629.2 MBYTE,   TOTAL:   1469.8 MBYTE

 OPERATOR DM      FOR CENTER  0  COORDINATES:    0.000000    0.000000    0.000000


 **********************************************************************************************************************************
 DATASETS  * FILE   NREC   LENGTH (MB)   RECORD NAMES
              1      19      461.82       500      610      700      900      950      970     1000      129      960     1100   
                                          VAR    BASINP    GEOM    SYMINP    ZMAT    AOBASIS   BASIS     P2S    ABASIS      S 
                                         1400     1410     1200     1210     1080     1600     1650     1300     1700   
                                           T        V       H0       H01     AOSYM     SMH    MOLCAS    ERIS     OPER   

 PROGRAMS   *        TOTAL       INT
 CPU TIMES  *         8.27      8.17
 REAL TIME  *        11.47 SEC
 DISK USED  *         1.47 GB      
 **********************************************************************************************************************************


 PROGRAM * RHF-SCF (CLOSED SHELL)       Authors: W. Meyer, H.-J. Werner


 NUMBER OF ELECTRONS:       7+    7-
 CONVERGENCE THRESHOLDS:    1.00E-10 (Density)    1.00E-13 (Energy)
 MAX. NUMBER OF ITERATIONS:      500
 INTERPOLATION TYPE:            DIIS
 INTERPOLATION STEPS:              2 (START)      1 (STEP)
 LEVEL SHIFTS:                  0.00 (CLOSED)  0.00 (OPEN) 



 Orbital guess generated from atomic densities. Full valence occupancy:    7   2   2   0

 Molecular orbital dump at record        2100.2

 Initial occupancy:   5   1   1   0

 ITERATION    DDIFF          GRAD             ENERGY        2-EL.EN.            DIPOLE MOMENTS         DIIS   ORB.
    1      0.000D+00      0.000D+00       -92.88842261    111.716896    0.00000    0.00000   -1.80590    0    start
    2      0.000D+00      0.712D-02       -92.89723312    110.851043    0.00000    0.00000   -0.89733    1    diag
    3      0.726D-02      0.642D-02       -92.91320265    111.396714    0.00000    0.00000   -1.31737    2    diag
    4      0.361D-02      0.519D-03       -92.91343223    111.357158    0.00000    0.00000   -1.30621    3    diag
    5      0.626D-03      0.115D-03       -92.91344610    111.368157    0.00000    0.00000   -1.30471    4    diag
    6      0.153D-03      0.320D-04       -92.91344701    111.362860    0.00000    0.00000   -1.30471    5    diag
    7      0.354D-04      0.115D-04       -92.91344710    111.364061    0.00000    0.00000   -1.30479    6    diag
    8      0.117D-04      0.240D-05       -92.91344710    111.364010    0.00000    0.00000   -1.30476    7    diag
    9      0.245D-05      0.273D-06       -92.91344710    111.364019    0.00000    0.00000   -1.30475    8    diag
   10      0.350D-06      0.327D-07       -92.91344710    111.364020    0.00000    0.00000   -1.30475    9    orth
   11      0.379D-07      0.456D-08       -92.91344710    111.364020    0.00000    0.00000   -1.30475    9    diag
   12      0.588D-08      0.438D-09       -92.91344710    111.364020    0.00000    0.00000   -1.30475    9    diag
   13      0.109D-08      0.544D-10       -92.91344710    111.364020    0.00000    0.00000   -1.30475    9    diag
   14      0.941D-10      0.630D-11       -92.91344710    111.364020    0.00000    0.00000   -1.30475    0    orth

 Final occupancy:   5   1   1   0

 !RHF STATE 1.1 Energy                -92.913447103340
 Nuclear energy                        23.78634936
 One-electron energy                 -172.38180650
 Two-electron energy                   55.68201003
 Virial quotient                       -1.00259016
 !RHF STATE 1.1 Dipole moment           0.00000000     0.00000000    -1.30474920
 Dipole moment /Debye                   0.00000000     0.00000000    -3.31612447

 Orbital energies:

         1.1          2.1          3.1          4.1          5.1          6.1          7.1
    -15.599897   -11.294100    -1.234090    -0.808172    -0.582030     0.020450     0.062554

         1.2          2.2          3.2
     -0.495302     0.063593     0.119527

         1.3          2.3          3.3
     -0.495302     0.063593     0.119527

         1.4          2.4
      0.226030     0.395017

 HOMO      1.2    -0.495302 =     -13.4779eV
 LUMO      6.1     0.020450 =       0.5565eV
 LUMO-HOMO         0.515752 =      14.0343eV


 **********************************************************************************************************************************
 DATASETS  * FILE   NREC   LENGTH (MB)   RECORD NAMES
              1      19      461.82       500      610      700      900      950      970     1000      129      960     1100   
                                          VAR    BASINP    GEOM    SYMINP    ZMAT    AOBASIS   BASIS     P2S    ABASIS      S 
                                         1400     1410     1200     1210     1080     1600     1650     1300     1700   
                                           T        V       H0       H01     AOSYM     SMH    MOLCAS    ERIS     OPER   

              2       4        3.06       700     1000      520     2100   
                                         GEOM     BASIS   MCVARS     RHF  

 PROGRAMS   *        TOTAL        HF       INT
 CPU TIMES  *        10.71      2.45      8.17
 REAL TIME  *        14.55 SEC
 DISK USED  *         1.47 GB      
 **********************************************************************************************************************************


 PROGRAM * CCSD (Closed-shell coupled cluster)     Authors: C. Hampel, H.-J. Werner, 1991, M. Deegan, P.J. Knowles, 1992


 Convergence thresholds:  THRVAR = 1.00D-08  THRDEN = 1.00D-12

 CCSD(T)     terms to be evaluated (factor= 1.000)


 Number of core orbitals:           2 (   2   0   0   0 )
 Number of closed-shell orbitals:   5 (   3   1   1   0 )
 Number of external orbitals:     199 (  76  48  48  27 )

 Molecular orbitals read from record     2100.2  Type=RHF/CANONICAL (state 1.1)

 Number of N-1 electron functions:               5
 Number of N-2 electron functions:              15
 Number of singly external CSFs:               324
 Number of doubly external CSFs:            129659
 Total number of CSFs:                      129984

 Length of J-op  integral file:               0.00 MB
 Length of K-op  integral file:               0.86 MB
 Length of 3-ext integral record:             0.00 MB

 Memory could be reduced to 15.89 Mwords without degradation in triples

 Integral transformation finished. Total CPU:   0.42 sec, npass=  1  Memory used:   1.90 MW

 Reference energy:                    -92.91344710

 MP2 singlet pair energy:              -0.23867476
 MP2 triplet pair energy:              -0.13238064
 MP2 correlation energy:               -0.37105539
 MP2 total energy:                    -93.28450250

 SCS-MP2 correlation energy:           -0.36877988   (PS=  1.200000  PT=  0.333333)
 SCS-MP2 total energy:                -93.28222698

 ITER.      SQ.NORM     CORR.ENERGY   TOTAL ENERGY   ENERGY CHANGE        DEN1      VAR(S)    VAR(P)  DIIS     TIME  TIME/IT
   1      1.11654376    -0.36961057   -93.28305768     0.00144482     0.01482936  0.26D-02  0.32D-02  1  1     0.89     0.52
   2      1.12594932    -0.36978406   -93.28323116    -0.00017349    -0.01027003  0.64D-04  0.41D-03  2  2     1.34     0.53
   3      1.13112950    -0.37001836   -93.28346546    -0.00023430    -0.00265852  0.14D-04  0.46D-04  3  3     1.76     0.53
   4      1.13328295    -0.37009903   -93.28354614    -0.00008068    -0.00075741  0.62D-06  0.52D-05  4  4     2.19     0.52
   5      1.13383839    -0.37010350   -93.28355060    -0.00000447    -0.00015737  0.89D-07  0.48D-06  5  5     2.61     0.52
   6      1.13396003    -0.37010072   -93.28354782     0.00000279    -0.00003212  0.10D-07  0.38D-07  6  6     3.05     0.52
   7      1.13396864    -0.37010236   -93.28354947    -0.00000165    -0.00000110  0.93D-09  0.31D-08  6  1     3.49     0.52
   8      1.13397051    -0.37010285   -93.28354996    -0.00000049    -0.00000050  0.12D-09  0.28D-09  6  2     3.95     0.52
   9      1.13397071    -0.37010292   -93.28355002    -0.00000007    -0.00000010  0.12D-10  0.18D-10  6  3     4.42     0.52
  10      1.13397057    -0.37010297   -93.28355007    -0.00000005     0.00000012  0.11D-11  0.18D-11  6  4     4.86     0.52
  11      1.13397050    -0.37010298   -93.28355009    -0.00000001     0.00000003  0.16D-12  0.16D-12  6  5     5.30     0.52
  12      1.13397044    -0.37010299   -93.28355009    -0.00000001     0.00000003  0.19D-13  0.26D-13  6  6     5.73     0.52
  13      1.13397040    -0.37010299   -93.28355009    -0.00000000     0.00000001  0.18D-14  0.60D-14  6  1     6.21     0.52
  14      1.13397038    -0.37010299   -93.28355009    -0.00000000     0.00000001  0.24D-15  0.65D-15  6  3     6.67     0.52
  15      1.13397037    -0.37010299   -93.28355009    -0.00000000     0.00000000  0.11D-16  0.43D-16  6  2     7.14     0.52
  16      1.13397037    -0.37010299   -93.28355009     0.00000000     0.00000000  0.15D-17  0.46D-17  6  4     7.58     0.52
  17      1.13397037    -0.37010299   -93.28355009    -0.00000000     0.00000000  0.36D-18  0.64D-18  6  5     8.04     0.52
  18      1.13397037    -0.37010299   -93.28355009    -0.00000000     0.00000000  0.33D-19  0.51D-19  6  6     8.52     0.52
  19      1.13397037    -0.37010299   -93.28355009    -0.00000000     0.00000000  0.48D-20  0.58D-20  6  1     8.96     0.52
  20      1.13397037    -0.37010299   -93.28355009     0.00000000     0.00000000  0.11D-20  0.11D-20  6  3     9.41     0.52

 Norm of t1 vector:      0.06515716      S-energy:    -0.00000000      T1 diagnostic:  0.01456958
                                                                       D1 diagnostic:  0.02922767

 Doubles amplitudes (print threshold =  0.500E-01):

         I         J         SYM. A    SYM. B    A         B      T(IJ, AB)

         4         4         2         2         3         3     -0.05099870
         5         5         3         3         3         3     -0.05099870


 Total CPU time for triples:      2.94 sec


 RESULTS
 =======

  Reference energy                    -92.913447103340
  CCSD singlet pair energy             -0.259505794945
  CCSD triplet pair energy             -0.110597194547
  CCSD correlation energy              -0.370102989494

  Triples (T) contribution             -0.019778860265
  Total correlation energy             -0.389881849759

  CCSD total energy                   -93.283550092834
  CCSD[T] energy                      -93.304183343776
  CCSD-T energy                       -93.302941099773
 !CCSD(T) total energy                -93.303328953099

 Timing summary (sec):

 STEP                 CPU(USER)    SYS     CPU(TOT)    WALL
 Transformation          0.42      0.14      0.56      0.57
 CCSD iterations         8.99      1.38     10.37     10.37
 Triples                 2.94      0.14      3.08      3.08

 Program statistics:

 Available memory in ccsd:               994999800
 Min. memory needed in ccsd:                524097
 Max. memory used in ccsd:                  626326
 Max. memory used in cckext:                818237 (20 integral passes)



 **********************************************************************************************************************************
 DATASETS  * FILE   NREC   LENGTH (MB)   RECORD NAMES
              1      20      504.80       500      610      700      900      950      970     1000      129      960     1100   
                                          VAR    BASINP    GEOM    SYMINP    ZMAT    AOBASIS   BASIS     P2S    ABASIS      S 
                                         1400     1410     1200     1210     1080     1600     1650     1300     1700     1380   
                                           T        V       H0       H01     AOSYM     SMH    MOLCAS    ERIS     OPER     JKOP   

              2       4        3.06       700     1000      520     2100   
                                         GEOM     BASIS   MCVARS     RHF  

 PROGRAMS   *        TOTAL   CCSD(T)        HF       INT
 CPU TIMES  *        23.11     12.39      2.45      8.17
 REAL TIME  *        28.66 SEC
 DISK USED  *         1.47 GB      
 **********************************************************************************************************************************

 CCSD(T)/aug-cc-pVQZ energy=    -93.303328953099

        CCSD(T)         HF-SCF  
    -93.30332895    -92.91344710
 **********************************************************************************************************************************
 Molpro calculation terminated
 Variable memory released
