
 Primary working directories    : /tmp/r2666/232458.maple
 Secondary working directories  : /tmp/r2666/232458.maple
 Wavefunction directory         : /ddn/home4/r2666/wfu/
 Main file repository           : /tmp/r2666/232458.maple/

 SHA1      : d5ffa45e93fdbca01ffc919aa182cfdae0147319
 NAME      : 2015.1.35
 ARCHNAME  : linux/x86_64
 FC        : /opt/intel/composer_xe_2015.1.133/bin/intel64/ifort
 BLASLIB   : -Wl,-_start-group /opt/intel/mkl/lib/intel64/libmkl_intel_ilp64.a /opt/intel/mkl/lib/intel64/libmkl_intel_thread.a /opt/intel/mkl/lib/intel64/libmkl_core.a -Wl,-_end-group
 id        : olemiss

 Nodes     nprocs
 cn052        1

 Using customized tuning parameters: mindgm=1; mindgv=20; mindgc=4; mindgr=1; noblas=0; minvec=7
 default implementation of scratch files=df  

 ***,hcn CCSD(T)/TZ-F12 QFF
 memory, 995, m;
 gthresh,energy=1.d-12,zero=1.d-22,oneint=1.d-22,twoint=1.d-22;
 gthresh,optgrad=1.d-8,optstep=1.d-8;
 nocompress;
 geomtyp=xyz
 bohr
 geometry={
 3
         12        12
 N        0.0000000000        0.0000000000        1.1121032177
 C        0.0000000000        0.0000000000       -1.0572978193
 H        0.0000000000        0.0000000000       -3.0518753804
 }
 
 basis=avqz
   {hf,maxit=500;accu,20;}
 {ccsd(t),nocheck,maxit=250;orbital,IGNORE_ERROR;}

 Variables initialized (889), CPU time= 0.00 sec
 Commands  initialized (702), CPU time= 0.01 sec, 572 directives.
 Default parameters read. Elapsed time= 0.05 sec

 Checking input...
 Passed
1


                                         ***  PROGRAM SYSTEM MOLPRO  ***
                                       Copyright, TTI GmbH Stuttgart, 2015
                                    Version 2015.1 linked Jul  9 2018 13:16:40


 **********************************************************************************************************************************
 LABEL *   hcn CCSD(T)/TZ-F12 QFF                                                        
  64 bit serial version                                                                  DATE: 06-Feb-20          TIME: 09:50:36  
 **********************************************************************************************************************************

 SHA1:             d5ffa45e93fdbca01ffc919aa182cfdae0147319
 **********************************************************************************************************************************

 THRESHOLDS:

 ZERO    =  1.00D-22  ONEINT  =  1.00D-22  TWOINT  =  1.00D-22  PREFAC  =  1.00D-14  LOCALI  =  1.00D-09  EORDER  =  1.00D-04
 ENERGY  =  1.00D-12  ETEST   =  0.00D+00  EDENS   =  0.00D+00  THRDEDEF=  1.00D-06  GRADIENT=  1.00D-02  STEP    =  1.00D-03
 ORBITAL =  1.00D-05  CIVEC   =  1.00D-05  COEFF   =  1.00D-04  PRINTCI =  5.00D-02  PUNCHCI =  9.90D+01  OPTGRAD =  3.00D-04
 OPTENERG=  1.00D-06  OPTSTEP =  3.00D-04  THRGRAD =  1.00D-10  COMPRESS=  1.00D-11  VARMIN  =  1.00D-07  VARMAX  =  1.00D-03
 THRDOUB =  0.00D+00  THRDIV  =  1.00D-05  THRRED  =  1.00D-07  THRPSP  =  1.00D+00  THRDC   =  1.00D-10  THRCS   =  1.00D-10
 THRNRM  =  1.00D-08  THREQ   =  0.00D+00  THRDE   =  1.00D+00  THRREF  =  1.00D-05  SPARFAC =  1.00D+00  THRDLP  =  1.00D-07
 THRDIA  =  1.00D-10  THRDLS  =  1.00D-07  THRGPS  =  0.00D+00  THRKEX  =  0.00D+00  THRDIS  =  2.00D-01  THRVAR  =  1.00D-10
 THRLOC  =  1.00D-06  THRGAP  =  1.00D-06  THRLOCT = -1.00D+00  THRGAPT = -1.00D+00  THRORB  =  1.00D-06  THRMLTP =  0.00D+00
 THRCPQCI=  1.00D-10  KEXTA   =  0.00D+00  THRCOARS=  0.00D+00  SYMTOL  =  1.00D-06  GRADTOL =  1.00D-06  THROVL  =  1.00D-08
 THRORTH =  1.00D-08  GRID    =  1.00D-06  GRIDMAX =  1.00D-03  DTMAX   =  0.00D+00  THROCCDE=  1.00D-01  THROCCDE=  1.00D-01



 THRESHOLDS:

 ZERO    =  1.00D-22  ONEINT  =  1.00D-22  TWOINT  =  1.00D-22  PREFAC  =  1.00D-14  LOCALI  =  1.00D-09  EORDER  =  1.00D-04
 ENERGY  =  1.00D-12  ETEST   =  0.00D+00  EDENS   =  0.00D+00  THRDEDEF=  1.00D-06  GRADIENT=  1.00D-02  STEP    =  1.00D-03
 ORBITAL =  1.00D-05  CIVEC   =  1.00D-05  COEFF   =  1.00D-04  PRINTCI =  5.00D-02  PUNCHCI =  9.90D+01  OPTGRAD =  1.00D-08
 OPTENERG=  1.00D-06  OPTSTEP =  1.00D-08  THRGRAD =  1.00D-10  COMPRESS=  1.00D-11  VARMIN  =  1.00D-07  VARMAX  =  1.00D-03
 THRDOUB =  0.00D+00  THRDIV  =  1.00D-05  THRRED  =  1.00D-07  THRPSP  =  1.00D+00  THRDC   =  1.00D-10  THRCS   =  1.00D-10
 THRNRM  =  1.00D-08  THREQ   =  0.00D+00  THRDE   =  1.00D+00  THRREF  =  1.00D-05  SPARFAC =  1.00D+00  THRDLP  =  1.00D-07
 THRDIA  =  1.00D-10  THRDLS  =  1.00D-07  THRGPS  =  0.00D+00  THRKEX  =  0.00D+00  THRDIS  =  2.00D-01  THRVAR  =  1.00D-10
 THRLOC  =  1.00D-06  THRGAP  =  1.00D-06  THRLOCT = -1.00D+00  THRGAPT = -1.00D+00  THRORB  =  1.00D-06  THRMLTP =  0.00D+00
 THRCPQCI=  1.00D-10  KEXTA   =  0.00D+00  THRCOARS=  0.00D+00  SYMTOL  =  1.00D-06  GRADTOL =  1.00D-06  THROVL  =  1.00D-08
 THRORTH =  1.00D-08  GRID    =  1.00D-06  GRIDMAX =  1.00D-03  DTMAX   =  0.00D+00  THROCCDE=  1.00D-01  THROCCDE=  1.00D-01



 Input parameters for SORTINT:

 COMPRESS =    0.000000
 C_FINAL  =    1.000000
 DEBUG    =   -1.000000
 C_SORT1  =    0.000000
 C_SEWARD =    0.000000
 THRESH   =    0.000000
 IO       =  molpro                                                          
 SPRI     =    0.000000
 SETTING GEOMTYP        =    XYZ
 ZUNIT=BOHR
 

 Variable memory set to  995000000 words,  buffer space   230000 words

 SETTING BASIS          =    AVQZ


 Recomputing integrals since basis changed


 Using spherical harmonics

 Library entry N      S aug-cc-pVQZ          selected for orbital group  1
 Library entry N      P aug-cc-pVQZ          selected for orbital group  1
 Library entry N      D aug-cc-pVQZ          selected for orbital group  1
 Library entry N      F aug-cc-pVQZ          selected for orbital group  1
 Library entry N      G aug-cc-pVQZ          selected for orbital group  1
 Library entry C      S aug-cc-pVQZ          selected for orbital group  2
 Library entry C      P aug-cc-pVQZ          selected for orbital group  2
 Library entry C      D aug-cc-pVQZ          selected for orbital group  2
 Library entry C      F aug-cc-pVQZ          selected for orbital group  2
 Library entry C      G aug-cc-pVQZ          selected for orbital group  2
 Library entry H      S aug-cc-pVQZ          selected for orbital group  3
 Library entry H      P aug-cc-pVQZ          selected for orbital group  3
 Library entry H      D aug-cc-pVQZ          selected for orbital group  3
 Library entry H      F aug-cc-pVQZ          selected for orbital group  3


 PROGRAM * SEWARD (Integral evaluation for generally contracted gaussian basis sets)     Author: Roland Lindh, 1990

 Geometry written to block  1 of record 700


 Point group  C2v 



 ATOMIC COORDINATES

 NR  ATOM    CHARGE       X              Y              Z

   1  N       7.00    0.000000000    0.000000000    1.112103218
   2  C       6.00    0.000000000    0.000000000   -1.057297819
   3  H       1.00    0.000000000    0.000000000   -3.051875380

 Bond lengths in Bohr (Angstrom)

 1-2  2.169401037  2-3  1.994577561
     ( 1.147997590)     ( 1.055484991)

 Bond angles

  1-2-3  179.99999879

 NUCLEAR CHARGE:                   14
 NUMBER OF PRIMITIVE AOS:         293
 NUMBER OF SYMMETRY AOS:          234
 NUMBER OF CONTRACTIONS:          206   (  81A1  +  49B1  +  49B2  +  27A2  )
 NUMBER OF CORE ORBITALS:           2   (   2A1  +   0B1  +   0B2  +   0A2  )
 NUMBER OF VALENCE ORBITALS:        9   (   5A1  +   2B1  +   2B2  +   0A2  )


 NUCLEAR REPULSION ENERGY   24.04942280

 EXTRA SYMMETRY OF AOS IN SYMMETRY 1:   1 1 1 1 1 1 1 1 1 1   1 1 2 1 2 1 2 1 2 1   2 1 2 1 2 1 3 2 1 3   2 1 1 1 1 1 1 1 1 1
                                        1 1 1 2 1 2 1 2 1 2   1 2 1 2 1 2 1 3 2 1   3 2 1 1 1 1 1 1 1 1   1 1 2 1 2 1 2 1 2 1
                                        2
 EXTRA SYMMETRY OF AOS IN SYMMETRY 2:   1 1 1 1 1 1 1 1 1 1   2 1 2 1 2 1 2 1 2 1   1 1 1 1 1 1 1 1 1 2   1 2 1 2 1 2 1 2 1 1
                                        1 1 1 1 1 1 2 1 2
 EXTRA SYMMETRY OF AOS IN SYMMETRY 3:   1 1 1 1 1 1 1 1 1 1   2 1 2 1 2 1 2 1 2 1   1 1 1 1 1 1 1 1 1 2   1 2 1 2 1 2 1 2 1 1
                                        1 1 1 1 1 1 2 1 2
 EXTRA SYMMETRY OF AOS IN SYMMETRY 4:   1 1 1 1 1 1 1 1 2 1   2 1 1 1 1 1 1 1 1 2   1 2 1 1 1 1 1

 Eigenvalues of metric

         1 0.165E-04 0.383E-04 0.682E-04 0.274E-03 0.392E-03 0.430E-03 0.515E-03 0.791E-03
         2 0.395E-03 0.909E-03 0.287E-02 0.339E-02 0.464E-02 0.628E-02 0.862E-02 0.106E-01
         3 0.395E-03 0.909E-03 0.287E-02 0.339E-02 0.464E-02 0.628E-02 0.862E-02 0.106E-01
         4 0.450E-02 0.123E-01 0.312E-01 0.550E-01 0.873E-01 0.139E+00 0.195E+00 0.227E+00


 Contracted 2-electron integrals neglected if value below      1.0D-22

       51238028. INTEGRALS WRITTEN OUT IN   12513 BLOCKS ON RECORD 1290 OF FILE 1


 NUMBER OF SORTED TWO-ELECTRON INTEGRALS:   58298162.     BUFFER LENGTH:  32768
 NUMBER OF SEGMENTS:   4  SEGMENT LENGTH:   15999501      RECORD LENGTH: 524288

 Memory used in sort:      16.56 MW

 SORT1 READ    51238028. AND WROTE    51993600. INTEGRALS IN    150 RECORDS. CPU TIME:     2.33 SEC, REAL TIME:     2.83 SEC
 SORT2 READ    51993600. AND WROTE    58298162. INTEGRALS IN      4 RECORDS. CPU TIME:     1.40 SEC, REAL TIME:     1.71 SEC

 FILE SIZES:   FILE 1:   840.9 MBYTE,  FILE 4:   629.2 MBYTE,   TOTAL:   1470.1 MBYTE

 OPERATOR DM      FOR CENTER  0  COORDINATES:    0.000000    0.000000    0.000000


 **********************************************************************************************************************************
 DATASETS  * FILE   NREC   LENGTH (MB)   RECORD NAMES
              1      19      461.94       500      610      700      900      950      970     1000      129      960     1100   
                                          VAR    BASINP    GEOM    SYMINP    ZMAT    AOBASIS   BASIS     P2S    ABASIS      S 
                                         1400     1410     1200     1210     1080     1600     1650     1300     1700   
                                           T        V       H0       H01     AOSYM     SMH    MOLCAS    ERIS     OPER   

 PROGRAMS   *        TOTAL       INT
 CPU TIMES  *        15.08     14.97
 REAL TIME  *        19.11 SEC
 DISK USED  *         1.47 GB      
 **********************************************************************************************************************************


 PROGRAM * RHF-SCF (CLOSED SHELL)       Authors: W. Meyer, H.-J. Werner


 NUMBER OF ELECTRONS:       7+    7-
 CONVERGENCE THRESHOLDS:    1.00E-10 (Density)    1.00E-13 (Energy)
 MAX. NUMBER OF ITERATIONS:      500
 INTERPOLATION TYPE:            DIIS
 INTERPOLATION STEPS:              2 (START)      1 (STEP)
 LEVEL SHIFTS:                  0.00 (CLOSED)  0.00 (OPEN) 



 Orbital guess generated from atomic densities. Full valence occupancy:    7   2   2   0

 Molecular orbital dump at record        2100.2

 Initial occupancy:   5   1   1   0

 ITERATION    DDIFF          GRAD             ENERGY        2-EL.EN.            DIPOLE MOMENTS         DIIS   ORB.
    1      0.000D+00      0.000D+00       -92.89126611    112.235294    0.00000    0.00000   -1.76558    0    start
    2      0.000D+00      0.700D-02       -92.90046270    111.337638    0.00000    0.00000   -0.90269    1    diag
    3      0.714D-02      0.616D-02       -92.91507805    111.878085    0.00000    0.00000   -1.30118    2    diag
    4      0.349D-02      0.523D-03       -92.91530590    111.843105    0.00000    0.00000   -1.28985    3    diag
    5      0.636D-03      0.110D-03       -92.91531882    111.850685    0.00000    0.00000   -1.28840    4    diag
    6      0.152D-03      0.290D-04       -92.91531953    111.846335    0.00000    0.00000   -1.28853    5    diag
    7      0.311D-04      0.101D-04       -92.91531959    111.847529    0.00000    0.00000   -1.28857    6    diag
    8      0.103D-04      0.219D-05       -92.91531960    111.847468    0.00000    0.00000   -1.28853    7    diag
    9      0.224D-05      0.254D-06       -92.91531960    111.847477    0.00000    0.00000   -1.28853    8    diag
   10      0.330D-06      0.322D-07       -92.91531960    111.847478    0.00000    0.00000   -1.28853    9    orth
   11      0.367D-07      0.472D-08       -92.91531960    111.847478    0.00000    0.00000   -1.28853    9    diag
   12      0.589D-08      0.431D-09       -92.91531960    111.847478    0.00000    0.00000   -1.28853    9    diag
   13      0.110D-08      0.587D-10       -92.91531960    111.847478    0.00000    0.00000   -1.28853    9    diag
   14      0.997D-10      0.784D-11       -92.91531960    111.847478    0.00000    0.00000   -1.28853    9    diag
   15      0.280D-10      0.309D-11       -92.91531960    111.847478    0.00000    0.00000   -1.28853    0    orth

 Final occupancy:   5   1   1   0

 !RHF STATE 1.1 Energy                -92.915319595784
 Nuclear energy                        24.04942280
 One-electron energy                 -172.88848127
 Two-electron energy                   55.92373887
 Virial quotient                       -1.00158980
 !RHF STATE 1.1 Dipole moment           0.00000000     0.00000000    -1.28852701
 Dipole moment /Debye                   0.00000000     0.00000000    -3.27489449

 Orbital energies:

         1.1          2.1          3.1          4.1          5.1          6.1          7.1
    -15.596748   -11.288543    -1.239097    -0.816408    -0.582338     0.020589     0.062695

         1.2          2.2          3.2
     -0.498684     0.063575     0.119851

         1.3          2.3          3.3
     -0.498684     0.063575     0.119851

         1.4          2.4
      0.225694     0.394333

 HOMO      1.2    -0.498684 =     -13.5699eV
 LUMO      6.1     0.020589 =       0.5602eV
 LUMO-HOMO         0.519273 =      14.1301eV


 **********************************************************************************************************************************
 DATASETS  * FILE   NREC   LENGTH (MB)   RECORD NAMES
              1      19      461.94       500      610      700      900      950      970     1000      129      960     1100   
                                          VAR    BASINP    GEOM    SYMINP    ZMAT    AOBASIS   BASIS     P2S    ABASIS      S 
                                         1400     1410     1200     1210     1080     1600     1650     1300     1700   
                                           T        V       H0       H01     AOSYM     SMH    MOLCAS    ERIS     OPER   

              2       4        3.06       700     1000      520     2100   
                                         GEOM     BASIS   MCVARS     RHF  

 PROGRAMS   *        TOTAL        HF       INT
 CPU TIMES  *        18.65      3.56     14.97
 REAL TIME  *        23.77 SEC
 DISK USED  *         1.47 GB      
 **********************************************************************************************************************************


 PROGRAM * CCSD (Closed-shell coupled cluster)     Authors: C. Hampel, H.-J. Werner, 1991, M. Deegan, P.J. Knowles, 1992


 Convergence thresholds:  THRVAR = 1.00D-08  THRDEN = 1.00D-12

 CCSD(T)     terms to be evaluated (factor= 1.000)


 Number of core orbitals:           2 (   2   0   0   0 )
 Number of closed-shell orbitals:   5 (   3   1   1   0 )
 Number of external orbitals:     199 (  76  48  48  27 )

 Molecular orbitals read from record     2100.2  Type=RHF/CANONICAL (state 1.1)

 Number of N-1 electron functions:               5
 Number of N-2 electron functions:              15
 Number of singly external CSFs:               324
 Number of doubly external CSFs:            129659
 Total number of CSFs:                      129984

 Length of J-op  integral file:               0.00 MB
 Length of K-op  integral file:               0.86 MB
 Length of 3-ext integral record:             0.00 MB

 Memory could be reduced to 15.89 Mwords without degradation in triples

 Integral transformation finished. Total CPU:   0.75 sec, npass=  1  Memory used:   1.90 MW

 Reference energy:                    -92.91531960

 MP2 singlet pair energy:              -0.23742097
 MP2 triplet pair energy:              -0.13145069
 MP2 correlation energy:               -0.36887166
 MP2 total energy:                    -93.28419125

 SCS-MP2 correlation energy:           -0.36669670   (PS=  1.200000  PT=  0.333333)
 SCS-MP2 total energy:                -93.28201630

 ITER.      SQ.NORM     CORR.ENERGY   TOTAL ENERGY   ENERGY CHANGE        DEN1      VAR(S)    VAR(P)  DIIS     TIME  TIME/IT
   1      1.11485065    -0.36796125   -93.28328085     0.00091041     0.01381107  0.25D-02  0.30D-02  1  1     1.44     0.83
   2      1.12392365    -0.36819962   -93.28351922    -0.00023837    -0.00997669  0.61D-04  0.39D-03  2  2     2.17     0.84
   3      1.12883954    -0.36841556   -93.28373516    -0.00021594    -0.00255784  0.13D-04  0.42D-04  3  3     2.92     0.85
   4      1.13086243    -0.36848966   -93.28380926    -0.00007410    -0.00072041  0.58D-06  0.47D-05  4  4     3.67     0.85
   5      1.13137594    -0.36849263   -93.28381223    -0.00000297    -0.00014771  0.74D-07  0.41D-06  5  5     4.42     0.85
   6      1.13148139    -0.36849029   -93.28380989     0.00000234    -0.00002796  0.87D-08  0.32D-07  6  6     5.15     0.85
   7      1.13148858    -0.36849180   -93.28381140    -0.00000151    -0.00000090  0.84D-09  0.27D-08  6  1     5.89     0.86
   8      1.13149011    -0.36849227   -93.28381186    -0.00000046    -0.00000037  0.10D-09  0.24D-09  6  2     6.61     0.86
   9      1.13149028    -0.36849233   -93.28381193    -0.00000007    -0.00000009  0.11D-10  0.15D-10  6  3     7.36     0.86
  10      1.13149015    -0.36849237   -93.28381197    -0.00000004     0.00000011  0.11D-11  0.14D-11  6  4     8.07     0.86
  11      1.13149009    -0.36849238   -93.28381198    -0.00000001     0.00000003  0.16D-12  0.13D-12  6  5     8.82     0.86
  12      1.13149003    -0.36849239   -93.28381199    -0.00000000     0.00000002  0.22D-13  0.23D-13  6  6     9.56     0.86
  13      1.13149000    -0.36849239   -93.28381199    -0.00000000     0.00000001  0.21D-14  0.53D-14  6  1    10.27     0.86
  14      1.13148998    -0.36849239   -93.28381199    -0.00000000     0.00000001  0.24D-15  0.53D-15  6  3    11.01     0.86
  15      1.13148998    -0.36849239   -93.28381199    -0.00000000     0.00000000  0.10D-16  0.34D-16  6  2    11.74     0.86
  16      1.13148998    -0.36849239   -93.28381199     0.00000000     0.00000000  0.18D-17  0.36D-17  6  4    12.50     0.86
  17      1.13148998    -0.36849239   -93.28381199    -0.00000000     0.00000000  0.39D-18  0.50D-18  6  5    13.25     0.86
  18      1.13148998    -0.36849239   -93.28381199    -0.00000000     0.00000000  0.38D-19  0.43D-19  6  6    13.97     0.86
  19      1.13148998    -0.36849239   -93.28381199    -0.00000000     0.00000000  0.84D-20  0.66D-20  6  1    14.70     0.86

 Norm of t1 vector:      0.06361470      S-energy:    -0.00000000      T1 diagnostic:  0.01422468
                                                                       D1 diagnostic:  0.02858165

 Doubles amplitudes (print threshold =  0.500E-01):

         I         J         SYM. A    SYM. B    A         B      T(IJ, AB)

         4         4         2         2         3         3     -0.05005489
         5         5         3         3         3         3     -0.05005489


 Total CPU time for triples:      5.24 sec


 RESULTS
 =======

  Reference energy                    -92.915319595784
  CCSD singlet pair energy             -0.258099490731
  CCSD triplet pair energy             -0.110392900634
  CCSD correlation energy              -0.368492391365

  Triples (T) contribution             -0.019386336311
  Total correlation energy             -0.387878727676

  CCSD total energy                   -93.283811987150
  CCSD[T] energy                      -93.304009911872
  CCSD-T energy                       -93.302827285805
 !CCSD(T) total energy                -93.303198323460

 Timing summary (sec):

 STEP                 CPU(USER)    SYS     CPU(TOT)    WALL
 Transformation          0.75      0.17      0.92      0.92
 CCSD iterations        13.95      2.35     16.30     16.33
 Triples                 5.24      0.17      5.41      5.43

 Program statistics:

 Available memory in ccsd:               994999800
 Min. memory needed in ccsd:                524097
 Max. memory used in ccsd:                  626326
 Max. memory used in cckext:                818237 (19 integral passes)



 **********************************************************************************************************************************
 DATASETS  * FILE   NREC   LENGTH (MB)   RECORD NAMES
              1      20      504.92       500      610      700      900      950      970     1000      129      960     1100   
                                          VAR    BASINP    GEOM    SYMINP    ZMAT    AOBASIS   BASIS     P2S    ABASIS      S 
                                         1400     1410     1200     1210     1080     1600     1650     1300     1700     1380   
                                           T        V       H0       H01     AOSYM     SMH    MOLCAS    ERIS     OPER     JKOP   

              2       4        3.06       700     1000      520     2100   
                                         GEOM     BASIS   MCVARS     RHF  

 PROGRAMS   *        TOTAL   CCSD(T)        HF       INT
 CPU TIMES  *        38.61     19.97      3.56     14.97
 REAL TIME  *        46.53 SEC
 DISK USED  *         1.47 GB      
 **********************************************************************************************************************************

 CCSD(T)/aug-cc-pVQZ energy=    -93.303198323460

        CCSD(T)         HF-SCF  
    -93.30319832    -92.91531960
 **********************************************************************************************************************************
 Molpro calculation terminated
 Variable memory released
