
 Primary working directories    : /tmp/r2666/232500.maple
 Secondary working directories  : /tmp/r2666/232500.maple
 Wavefunction directory         : /ddn/home4/r2666/wfu/
 Main file repository           : /tmp/r2666/232500.maple/

 SHA1      : d5ffa45e93fdbca01ffc919aa182cfdae0147319
 NAME      : 2015.1.35
 ARCHNAME  : linux/x86_64
 FC        : /opt/intel/composer_xe_2015.1.133/bin/intel64/ifort
 BLASLIB   : -Wl,-_start-group /opt/intel/mkl/lib/intel64/libmkl_intel_ilp64.a /opt/intel/mkl/lib/intel64/libmkl_intel_thread.a /opt/intel/mkl/lib/intel64/libmkl_core.a -Wl,-_end-group
 id        : olemiss

 Nodes     nprocs
 cn090        1

 Using customized tuning parameters: mindgm=1; mindgv=20; mindgc=4; mindgr=1; noblas=0; minvec=7
 default implementation of scratch files=df  

 ***,hcn CCSD(T)/TZ-F12 QFF
 memory, 995, m;
 gthresh,energy=1.d-12,zero=1.d-22,oneint=1.d-22,twoint=1.d-22;
 gthresh,optgrad=1.d-8,optstep=1.d-8;
 nocompress;
 geomtyp=xyz
 bohr
 geometry={
 3
         54        54
 N        0.0000000000        0.0000000000        1.1467481942
 C        0.0000000000        0.0000000000       -1.0604473626
 H        0.0000000000        0.0000000000       -3.0833708136
 }
 
 basis=avqz
   {hf,maxit=500;accu,20;}
 {ccsd(t),nocheck,maxit=250;orbital,IGNORE_ERROR;}

 Variables initialized (889), CPU time= 0.00 sec
 Commands  initialized (702), CPU time= 0.01 sec, 572 directives.
 Default parameters read. Elapsed time= 0.06 sec

 Checking input...
 Passed
1


                                         ***  PROGRAM SYSTEM MOLPRO  ***
                                       Copyright, TTI GmbH Stuttgart, 2015
                                    Version 2015.1 linked Jul  9 2018 13:16:40


 **********************************************************************************************************************************
 LABEL *   hcn CCSD(T)/TZ-F12 QFF                                                        
  64 bit serial version                                                                  DATE: 06-Feb-20          TIME: 09:54:03  
 **********************************************************************************************************************************

 SHA1:             d5ffa45e93fdbca01ffc919aa182cfdae0147319
 **********************************************************************************************************************************

 THRESHOLDS:

 ZERO    =  1.00D-22  ONEINT  =  1.00D-22  TWOINT  =  1.00D-22  PREFAC  =  1.00D-14  LOCALI  =  1.00D-09  EORDER  =  1.00D-04
 ENERGY  =  1.00D-12  ETEST   =  0.00D+00  EDENS   =  0.00D+00  THRDEDEF=  1.00D-06  GRADIENT=  1.00D-02  STEP    =  1.00D-03
 ORBITAL =  1.00D-05  CIVEC   =  1.00D-05  COEFF   =  1.00D-04  PRINTCI =  5.00D-02  PUNCHCI =  9.90D+01  OPTGRAD =  3.00D-04
 OPTENERG=  1.00D-06  OPTSTEP =  3.00D-04  THRGRAD =  1.00D-10  COMPRESS=  1.00D-11  VARMIN  =  1.00D-07  VARMAX  =  1.00D-03
 THRDOUB =  0.00D+00  THRDIV  =  1.00D-05  THRRED  =  1.00D-07  THRPSP  =  1.00D+00  THRDC   =  1.00D-10  THRCS   =  1.00D-10
 THRNRM  =  1.00D-08  THREQ   =  0.00D+00  THRDE   =  1.00D+00  THRREF  =  1.00D-05  SPARFAC =  1.00D+00  THRDLP  =  1.00D-07
 THRDIA  =  1.00D-10  THRDLS  =  1.00D-07  THRGPS  =  0.00D+00  THRKEX  =  0.00D+00  THRDIS  =  2.00D-01  THRVAR  =  1.00D-10
 THRLOC  =  1.00D-06  THRGAP  =  1.00D-06  THRLOCT = -1.00D+00  THRGAPT = -1.00D+00  THRORB  =  1.00D-06  THRMLTP =  0.00D+00
 THRCPQCI=  1.00D-10  KEXTA   =  0.00D+00  THRCOARS=  0.00D+00  SYMTOL  =  1.00D-06  GRADTOL =  1.00D-06  THROVL  =  1.00D-08
 THRORTH =  1.00D-08  GRID    =  1.00D-06  GRIDMAX =  1.00D-03  DTMAX   =  0.00D+00  THROCCDE=  1.00D-01  THROCCDE=  1.00D-01



 THRESHOLDS:

 ZERO    =  1.00D-22  ONEINT  =  1.00D-22  TWOINT  =  1.00D-22  PREFAC  =  1.00D-14  LOCALI  =  1.00D-09  EORDER  =  1.00D-04
 ENERGY  =  1.00D-12  ETEST   =  0.00D+00  EDENS   =  0.00D+00  THRDEDEF=  1.00D-06  GRADIENT=  1.00D-02  STEP    =  1.00D-03
 ORBITAL =  1.00D-05  CIVEC   =  1.00D-05  COEFF   =  1.00D-04  PRINTCI =  5.00D-02  PUNCHCI =  9.90D+01  OPTGRAD =  1.00D-08
 OPTENERG=  1.00D-06  OPTSTEP =  1.00D-08  THRGRAD =  1.00D-10  COMPRESS=  1.00D-11  VARMIN  =  1.00D-07  VARMAX  =  1.00D-03
 THRDOUB =  0.00D+00  THRDIV  =  1.00D-05  THRRED  =  1.00D-07  THRPSP  =  1.00D+00  THRDC   =  1.00D-10  THRCS   =  1.00D-10
 THRNRM  =  1.00D-08  THREQ   =  0.00D+00  THRDE   =  1.00D+00  THRREF  =  1.00D-05  SPARFAC =  1.00D+00  THRDLP  =  1.00D-07
 THRDIA  =  1.00D-10  THRDLS  =  1.00D-07  THRGPS  =  0.00D+00  THRKEX  =  0.00D+00  THRDIS  =  2.00D-01  THRVAR  =  1.00D-10
 THRLOC  =  1.00D-06  THRGAP  =  1.00D-06  THRLOCT = -1.00D+00  THRGAPT = -1.00D+00  THRORB  =  1.00D-06  THRMLTP =  0.00D+00
 THRCPQCI=  1.00D-10  KEXTA   =  0.00D+00  THRCOARS=  0.00D+00  SYMTOL  =  1.00D-06  GRADTOL =  1.00D-06  THROVL  =  1.00D-08
 THRORTH =  1.00D-08  GRID    =  1.00D-06  GRIDMAX =  1.00D-03  DTMAX   =  0.00D+00  THROCCDE=  1.00D-01  THROCCDE=  1.00D-01



 Input parameters for SORTINT:

 COMPRESS =    0.000000
 C_FINAL  =    1.000000
 DEBUG    =   -1.000000
 C_SORT1  =    0.000000
 C_SEWARD =    0.000000
 THRESH   =    0.000000
 IO       =  molpro                                                          
 SPRI     =    0.000000
 SETTING GEOMTYP        =    XYZ
 ZUNIT=BOHR
 

 Variable memory set to  995000000 words,  buffer space   230000 words

 SETTING BASIS          =    AVQZ


 Recomputing integrals since basis changed


 Using spherical harmonics

 Library entry N      S aug-cc-pVQZ          selected for orbital group  1
 Library entry N      P aug-cc-pVQZ          selected for orbital group  1
 Library entry N      D aug-cc-pVQZ          selected for orbital group  1
 Library entry N      F aug-cc-pVQZ          selected for orbital group  1
 Library entry N      G aug-cc-pVQZ          selected for orbital group  1
 Library entry C      S aug-cc-pVQZ          selected for orbital group  2
 Library entry C      P aug-cc-pVQZ          selected for orbital group  2
 Library entry C      D aug-cc-pVQZ          selected for orbital group  2
 Library entry C      F aug-cc-pVQZ          selected for orbital group  2
 Library entry C      G aug-cc-pVQZ          selected for orbital group  2
 Library entry H      S aug-cc-pVQZ          selected for orbital group  3
 Library entry H      P aug-cc-pVQZ          selected for orbital group  3
 Library entry H      D aug-cc-pVQZ          selected for orbital group  3
 Library entry H      F aug-cc-pVQZ          selected for orbital group  3


 PROGRAM * SEWARD (Integral evaluation for generally contracted gaussian basis sets)     Author: Roland Lindh, 1990

 Geometry written to block  1 of record 700


 Point group  C2v 



 ATOMIC COORDINATES

 NR  ATOM    CHARGE       X              Y              Z

   1  N       7.00    0.000000000    0.000000000    1.146748194
   2  C       6.00    0.000000000    0.000000000   -1.060447363
   3  H       1.00    0.000000000    0.000000000   -3.083370814

 Bond lengths in Bohr (Angstrom)

 1-2  2.207195557  2-3  2.022923451
     ( 1.167997589)     ( 1.070484990)

 Bond angles

  1-2-3  179.99999829

 NUCLEAR CHARGE:                   14
 NUMBER OF PRIMITIVE AOS:         293
 NUMBER OF SYMMETRY AOS:          234
 NUMBER OF CONTRACTIONS:          206   (  81A1  +  49B1  +  49B2  +  27A2  )
 NUMBER OF CORE ORBITALS:           2   (   2A1  +   0B1  +   0B2  +   0A2  )
 NUMBER OF VALENCE ORBITALS:        9   (   5A1  +   2B1  +   2B2  +   0A2  )


 NUCLEAR REPULSION ENERGY   23.64947612

 EXTRA SYMMETRY OF AOS IN SYMMETRY 1:   1 1 1 1 1 1 1 1 1 1   1 1 2 1 2 1 2 1 2 1   2 1 2 1 2 1 3 2 1 3   2 1 1 1 1 1 1 1 1 1
                                        1 1 1 2 1 2 1 2 1 2   1 2 1 2 1 2 1 3 2 1   3 2 1 1 1 1 1 1 1 1   1 1 2 1 2 1 2 1 2 1
                                        2
 EXTRA SYMMETRY OF AOS IN SYMMETRY 2:   1 1 1 1 1 1 1 1 1 1   2 1 2 1 2 1 2 1 2 1   1 1 1 1 1 1 1 1 1 2   1 2 1 2 1 2 1 2 1 1
                                        1 1 1 1 1 1 2 1 2
 EXTRA SYMMETRY OF AOS IN SYMMETRY 3:   1 1 1 1 1 1 1 1 1 1   2 1 2 1 2 1 2 1 2 1   1 1 1 1 1 1 1 1 1 2   1 2 1 2 1 2 1 2 1 1
                                        1 1 1 1 1 1 2 1 2
 EXTRA SYMMETRY OF AOS IN SYMMETRY 4:   1 1 1 1 1 1 1 1 2 1   2 1 1 1 1 1 1 1 1 2   1 2 1 1 1 1 1

 Eigenvalues of metric

         1 0.180E-04 0.400E-04 0.750E-04 0.284E-03 0.406E-03 0.448E-03 0.536E-03 0.821E-03
         2 0.414E-03 0.965E-03 0.315E-02 0.364E-02 0.493E-02 0.657E-02 0.877E-02 0.108E-01
         3 0.414E-03 0.965E-03 0.315E-02 0.364E-02 0.493E-02 0.657E-02 0.877E-02 0.108E-01
         4 0.480E-02 0.128E-01 0.332E-01 0.583E-01 0.910E-01 0.144E+00 0.199E+00 0.233E+00


 Contracted 2-electron integrals neglected if value below      1.0D-22

       51216643. INTEGRALS WRITTEN OUT IN   12508 BLOCKS ON RECORD 1290 OF FILE 1


 NUMBER OF SORTED TWO-ELECTRON INTEGRALS:   58298162.     BUFFER LENGTH:  32768
 NUMBER OF SEGMENTS:   4  SEGMENT LENGTH:   15999501      RECORD LENGTH: 524288

 Memory used in sort:      16.56 MW

 SORT1 READ    51216643. AND WROTE    51971880. INTEGRALS IN    150 RECORDS. CPU TIME:     1.29 SEC, REAL TIME:     1.63 SEC
 SORT2 READ    51971880. AND WROTE    58298162. INTEGRALS IN      4 RECORDS. CPU TIME:     0.85 SEC, REAL TIME:     1.11 SEC

 FILE SIZES:   FILE 1:   840.6 MBYTE,  FILE 4:   629.2 MBYTE,   TOTAL:   1469.8 MBYTE

 OPERATOR DM      FOR CENTER  0  COORDINATES:    0.000000    0.000000    0.000000


 **********************************************************************************************************************************
 DATASETS  * FILE   NREC   LENGTH (MB)   RECORD NAMES
              1      19      461.81       500      610      700      900      950      970     1000      129      960     1100   
                                          VAR    BASINP    GEOM    SYMINP    ZMAT    AOBASIS   BASIS     P2S    ABASIS      S 
                                         1400     1410     1200     1210     1080     1600     1650     1300     1700   
                                           T        V       H0       H01     AOSYM     SMH    MOLCAS    ERIS     OPER   

 PROGRAMS   *        TOTAL       INT
 CPU TIMES  *         8.39      8.30
 REAL TIME  *        10.10 SEC
 DISK USED  *         1.47 GB      
 **********************************************************************************************************************************


 PROGRAM * RHF-SCF (CLOSED SHELL)       Authors: W. Meyer, H.-J. Werner


 NUMBER OF ELECTRONS:       7+    7-
 CONVERGENCE THRESHOLDS:    1.00E-10 (Density)    1.00E-13 (Energy)
 MAX. NUMBER OF ITERATIONS:      500
 INTERPOLATION TYPE:            DIIS
 INTERPOLATION STEPS:              2 (START)      1 (STEP)
 LEVEL SHIFTS:                  0.00 (CLOSED)  0.00 (OPEN) 



 Orbital guess generated from atomic densities. Full valence occupancy:    7   2   2   0

 Molecular orbital dump at record        2100.2

 Initial occupancy:   5   1   1   0

 ITERATION    DDIFF          GRAD             ENERGY        2-EL.EN.            DIPOLE MOMENTS         DIIS   ORB.
    1      0.000D+00      0.000D+00       -92.88706738    111.372873    0.00000    0.00000   -1.80073    0    start
    2      0.000D+00      0.704D-02       -92.89541853    110.580115    0.00000    0.00000   -0.88542    1    diag
    3      0.723D-02      0.642D-02       -92.91152011    111.113920    0.00000    0.00000   -1.31448    2    diag
    4      0.361D-02      0.531D-03       -92.91175748    111.066774    0.00000    0.00000   -1.30314    3    diag
    5      0.642D-03      0.121D-03       -92.91177188    111.080691    0.00000    0.00000   -1.30177    4    diag
    6      0.155D-03      0.335D-04       -92.91177295    111.074791    0.00000    0.00000   -1.30164    5    diag
    7      0.388D-04      0.121D-04       -92.91177304    111.075911    0.00000    0.00000   -1.30173    6    diag
    8      0.124D-04      0.254D-05       -92.91177305    111.075870    0.00000    0.00000   -1.30170    7    diag
    9      0.266D-05      0.289D-06       -92.91177305    111.075880    0.00000    0.00000   -1.30169    8    diag
   10      0.375D-06      0.342D-07       -92.91177305    111.075881    0.00000    0.00000   -1.30169    9    orth
   11      0.399D-07      0.466D-08       -92.91177305    111.075881    0.00000    0.00000   -1.30169    9    diag
   12      0.610D-08      0.445D-09       -92.91177305    111.075881    0.00000    0.00000   -1.30169    9    diag
   13      0.113D-08      0.509D-10       -92.91177305    111.075881    0.00000    0.00000   -1.30169    9    diag
   14      0.945D-10      0.558D-11       -92.91177305    111.075881    0.00000    0.00000   -1.30169    9    diag
   15      0.212D-10      0.166D-11       -92.91177305    111.075881    0.00000    0.00000   -1.30169    9    diag
   16      0.226D-10      0.489D-12       -92.91177305    111.075881    0.00000    0.00000   -1.30169    9    diag
   17      0.854D-11      0.170D-12       -92.91177305    111.075881    0.00000    0.00000   -1.30169    9    diag
   18      0.372D-11      0.137D-12       -92.91177305    111.075881    0.00000    0.00000   -1.30169    9    diag
   19      0.289D-11      0.154D-12       -92.91177305    111.075881    0.00000    0.00000   -1.30169    0    orth

 Final occupancy:   5   1   1   0

 !RHF STATE 1.1 Energy                -92.911773047557
 Nuclear energy                        23.64947612
 One-electron energy                 -172.09918945
 Two-electron energy                   55.53794029
 Virial quotient                       -1.00298700
 !RHF STATE 1.1 Dipole moment           0.00000000     0.00000000    -1.30168988
 Dipole moment /Debye                   0.00000000     0.00000000    -3.30834895

 Orbital energies:

         1.1          2.1          3.1          4.1          5.1          6.1          7.1
    -15.603670   -11.297018    -1.229556    -0.813547    -0.582867     0.020443     0.062540

         1.2          2.2          3.2
     -0.492498     0.063578     0.118768

         1.3          2.3          3.3
     -0.492498     0.063578     0.118768

         1.4          2.4
      0.226073     0.395027

 HOMO      1.2    -0.492498 =     -13.4016eV
 LUMO      6.1     0.020443 =       0.5563eV
 LUMO-HOMO         0.512941 =      13.9578eV


 **********************************************************************************************************************************
 DATASETS  * FILE   NREC   LENGTH (MB)   RECORD NAMES
              1      19      461.81       500      610      700      900      950      970     1000      129      960     1100   
                                          VAR    BASINP    GEOM    SYMINP    ZMAT    AOBASIS   BASIS     P2S    ABASIS      S 
                                         1400     1410     1200     1210     1080     1600     1650     1300     1700   
                                           T        V       H0       H01     AOSYM     SMH    MOLCAS    ERIS     OPER   

              2       4        3.06       700     1000      520     2100   
                                         GEOM     BASIS   MCVARS     RHF  

 PROGRAMS   *        TOTAL        HF       INT
 CPU TIMES  *        11.71      3.32      8.30
 REAL TIME  *        14.51 SEC
 DISK USED  *         1.47 GB      
 **********************************************************************************************************************************


 PROGRAM * CCSD (Closed-shell coupled cluster)     Authors: C. Hampel, H.-J. Werner, 1991, M. Deegan, P.J. Knowles, 1992


 Convergence thresholds:  THRVAR = 1.00D-08  THRDEN = 1.00D-12

 CCSD(T)     terms to be evaluated (factor= 1.000)


 Number of core orbitals:           2 (   2   0   0   0 )
 Number of closed-shell orbitals:   5 (   3   1   1   0 )
 Number of external orbitals:     199 (  76  48  48  27 )

 Molecular orbitals read from record     2100.2  Type=RHF/CANONICAL (state 1.1)

 Number of N-1 electron functions:               5
 Number of N-2 electron functions:              15
 Number of singly external CSFs:               324
 Number of doubly external CSFs:            129659
 Total number of CSFs:                      129984

 Length of J-op  integral file:               0.00 MB
 Length of K-op  integral file:               0.86 MB
 Length of 3-ext integral record:             0.00 MB

 Memory could be reduced to 15.89 Mwords without degradation in triples

 Integral transformation finished. Total CPU:   0.42 sec, npass=  1  Memory used:   1.90 MW

 Reference energy:                    -92.91177305

 MP2 singlet pair energy:              -0.23969326
 MP2 triplet pair energy:              -0.13323482
 MP2 correlation energy:               -0.37292808
 MP2 total energy:                    -93.28470113

 SCS-MP2 correlation energy:           -0.37053358   (PS=  1.200000  PT=  0.333333)
 SCS-MP2 total energy:                -93.28230662

 ITER.      SQ.NORM     CORR.ENERGY   TOTAL ENERGY   ENERGY CHANGE        DEN1      VAR(S)    VAR(P)  DIIS     TIME  TIME/IT
   1      1.11759807    -0.37092331   -93.28269636     0.00200477     0.01579861  0.28D-02  0.34D-02  1  1     0.88     0.51
   2      1.12722748    -0.37099989   -93.28277294    -0.00007658    -0.01050404  0.68D-04  0.43D-03  2  2     1.32     0.52
   3      1.13256180    -0.37124027   -93.28301332    -0.00024038    -0.00271045  0.15D-04  0.48D-04  3  3     1.76     0.52
   4      1.13482027    -0.37132630   -93.28309935    -0.00008603    -0.00078455  0.63D-06  0.56D-05  4  4     2.20     0.52
   5      1.13541175    -0.37133085   -93.28310390    -0.00000455    -0.00016634  0.84D-07  0.52D-06  5  5     2.67     0.53
   6      1.13554202    -0.37132788   -93.28310092     0.00000298    -0.00003414  0.12D-07  0.42D-07  6  6     3.13     0.53
   7      1.13555096    -0.37132977   -93.28310282    -0.00000189    -0.00000103  0.98D-09  0.35D-08  6  1     3.58     0.53
   8      1.13555295    -0.37133031   -93.28310336    -0.00000054    -0.00000055  0.12D-09  0.31D-09  6  2     4.01     0.53
   9      1.13555313    -0.37133039   -93.28310343    -0.00000008    -0.00000010  0.15D-10  0.20D-10  6  3     4.49     0.54
  10      1.13555296    -0.37133044   -93.28310348    -0.00000005     0.00000013  0.14D-11  0.20D-11  6  4     4.95     0.54
  11      1.13555288    -0.37133045   -93.28310350    -0.00000002     0.00000003  0.26D-12  0.16D-12  6  5     5.40     0.54
  12      1.13555281    -0.37133046   -93.28310351    -0.00000001     0.00000003  0.40D-13  0.29D-13  6  6     5.85     0.54
  13      1.13555277    -0.37133046   -93.28310351    -0.00000000     0.00000001  0.43D-14  0.73D-14  6  1     6.32     0.54
  14      1.13555275    -0.37133046   -93.28310351    -0.00000000     0.00000001  0.63D-15  0.68D-15  6  3     6.77     0.54
  15      1.13555274    -0.37133046   -93.28310351    -0.00000000     0.00000000  0.20D-16  0.51D-16  6  2     7.24     0.54
  16      1.13555274    -0.37133046   -93.28310351     0.00000000     0.00000000  0.40D-17  0.54D-17  6  4     7.69     0.54
  17      1.13555274    -0.37133046   -93.28310351    -0.00000000     0.00000000  0.75D-18  0.76D-18  6  5     8.13     0.54
  18      1.13555274    -0.37133046   -93.28310351    -0.00000000     0.00000000  0.67D-19  0.71D-19  6  6     8.58     0.54
  19      1.13555274    -0.37133046   -93.28310351    -0.00000000    -0.00000000  0.11D-19  0.85D-20  6  1     9.01     0.54

 Norm of t1 vector:      0.06647387      S-energy:    -0.00000000      T1 diagnostic:  0.01486401
                                                                       D1 diagnostic:  0.02993762

 Doubles amplitudes (print threshold =  0.500E-01):

         I         J         SYM. A    SYM. B    A         B      T(IJ, AB)

         4         4         2         2         3         3     -0.05194568
         5         5         3         3         3         3     -0.05194568


 Total CPU time for triples:      3.00 sec


 RESULTS
 =======

  Reference energy                    -92.911773047557
  CCSD singlet pair energy             -0.260503030637
  CCSD triplet pair energy             -0.110827430740
  CCSD correlation energy              -0.371330461378

  Triples (T) contribution             -0.020083261013
  Total correlation energy             -0.391413722391

  CCSD total energy                   -93.283103508935
  CCSD[T] energy                      -93.304080086691
  CCSD-T energy                       -93.302783145588
 !CCSD(T) total energy                -93.303186769948

 Timing summary (sec):

 STEP                 CPU(USER)    SYS     CPU(TOT)    WALL
 Transformation          0.43      0.14      0.57      0.57
 CCSD iterations         8.58      1.70     10.28     10.30
 Triples                 3.00      0.12      3.12      3.12

 Program statistics:

 Available memory in ccsd:               994999800
 Min. memory needed in ccsd:                524097
 Max. memory used in ccsd:                  626326
 Max. memory used in cckext:                818237 (19 integral passes)



 **********************************************************************************************************************************
 DATASETS  * FILE   NREC   LENGTH (MB)   RECORD NAMES
              1      20      504.79       500      610      700      900      950      970     1000      129      960     1100   
                                          VAR    BASINP    GEOM    SYMINP    ZMAT    AOBASIS   BASIS     P2S    ABASIS      S 
                                         1400     1410     1200     1210     1080     1600     1650     1300     1700     1380   
                                           T        V       H0       H01     AOSYM     SMH    MOLCAS    ERIS     OPER     JKOP   

              2       4        3.06       700     1000      520     2100   
                                         GEOM     BASIS   MCVARS     RHF  

 PROGRAMS   *        TOTAL   CCSD(T)        HF       INT
 CPU TIMES  *        23.74     12.03      3.32      8.30
 REAL TIME  *        28.55 SEC
 DISK USED  *         1.47 GB      
 **********************************************************************************************************************************

 CCSD(T)/aug-cc-pVQZ energy=    -93.303186769948

        CCSD(T)         HF-SCF  
    -93.30318677    -92.91177305
 **********************************************************************************************************************************
 Molpro calculation terminated
 Variable memory released
