
 Primary working directories    : /tmp/r2666/233468.maple
 Secondary working directories  : /tmp/r2666/233468.maple
 Wavefunction directory         : /ddn/home4/r2666/wfu/
 Main file repository           : /tmp/r2666/233468.maple/

 SHA1      : d5ffa45e93fdbca01ffc919aa182cfdae0147319
 NAME      : 2015.1.35
 ARCHNAME  : linux/x86_64
 FC        : /opt/intel/composer_xe_2015.1.133/bin/intel64/ifort
 BLASLIB   : -Wl,-_start-group /opt/intel/mkl/lib/intel64/libmkl_intel_ilp64.a /opt/intel/mkl/lib/intel64/libmkl_intel_thread.a /opt/intel/mkl/lib/intel64/libmkl_core.a -Wl,-_end-group
 id        : olemiss

 Nodes     nprocs
 cn093        1

 Using customized tuning parameters: mindgm=1; mindgv=20; mindgc=4; mindgr=1; noblas=0; minvec=7
 default implementation of scratch files=df  

 ***,hcn CCSD(T)/TZ-F12 QFF
 memory, 995, m;
 gthresh,energy=1.d-12,zero=1.d-22,oneint=1.d-22,twoint=1.d-22;
 gthresh,optgrad=1.d-8,optstep=1.d-8;
 nocompress;
 geomtyp=xyz
 bohr
 geometry={
 3
         28        28
 N       -0.0046162072        0.0000000025        1.1246527606
 C        0.0096115372       -0.0000000001       -1.0541504528
 H       -0.0049953300       -0.0000000024       -3.0675722899
 }
 
 basis=avqz
   {hf,maxit=500;accu,20;}
 {ccsd(t),nocheck,maxit=250;orbital,IGNORE_ERROR;}

 Variables initialized (889), CPU time= 0.01 sec
 Commands  initialized (702), CPU time= 0.01 sec, 572 directives.
 Default parameters read. Elapsed time= 0.05 sec

 Checking input...
 Passed
1


                                         ***  PROGRAM SYSTEM MOLPRO  ***
                                       Copyright, TTI GmbH Stuttgart, 2015
                                    Version 2015.1 linked Jul  9 2018 13:16:40


 **********************************************************************************************************************************
 LABEL *   hcn CCSD(T)/TZ-F12 QFF                                                        
  64 bit serial version                                                                  DATE: 06-Feb-20          TIME: 21:34:40  
 **********************************************************************************************************************************

 SHA1:             d5ffa45e93fdbca01ffc919aa182cfdae0147319
 **********************************************************************************************************************************

 THRESHOLDS:

 ZERO    =  1.00D-22  ONEINT  =  1.00D-22  TWOINT  =  1.00D-22  PREFAC  =  1.00D-14  LOCALI  =  1.00D-09  EORDER  =  1.00D-04
 ENERGY  =  1.00D-12  ETEST   =  0.00D+00  EDENS   =  0.00D+00  THRDEDEF=  1.00D-06  GRADIENT=  1.00D-02  STEP    =  1.00D-03
 ORBITAL =  1.00D-05  CIVEC   =  1.00D-05  COEFF   =  1.00D-04  PRINTCI =  5.00D-02  PUNCHCI =  9.90D+01  OPTGRAD =  3.00D-04
 OPTENERG=  1.00D-06  OPTSTEP =  3.00D-04  THRGRAD =  1.00D-10  COMPRESS=  1.00D-11  VARMIN  =  1.00D-07  VARMAX  =  1.00D-03
 THRDOUB =  0.00D+00  THRDIV  =  1.00D-05  THRRED  =  1.00D-07  THRPSP  =  1.00D+00  THRDC   =  1.00D-10  THRCS   =  1.00D-10
 THRNRM  =  1.00D-08  THREQ   =  0.00D+00  THRDE   =  1.00D+00  THRREF  =  1.00D-05  SPARFAC =  1.00D+00  THRDLP  =  1.00D-07
 THRDIA  =  1.00D-10  THRDLS  =  1.00D-07  THRGPS  =  0.00D+00  THRKEX  =  0.00D+00  THRDIS  =  2.00D-01  THRVAR  =  1.00D-10
 THRLOC  =  1.00D-06  THRGAP  =  1.00D-06  THRLOCT = -1.00D+00  THRGAPT = -1.00D+00  THRORB  =  1.00D-06  THRMLTP =  0.00D+00
 THRCPQCI=  1.00D-10  KEXTA   =  0.00D+00  THRCOARS=  0.00D+00  SYMTOL  =  1.00D-06  GRADTOL =  1.00D-06  THROVL  =  1.00D-08
 THRORTH =  1.00D-08  GRID    =  1.00D-06  GRIDMAX =  1.00D-03  DTMAX   =  0.00D+00  THROCCDE=  1.00D-01  THROCCDE=  1.00D-01



 THRESHOLDS:

 ZERO    =  1.00D-22  ONEINT  =  1.00D-22  TWOINT  =  1.00D-22  PREFAC  =  1.00D-14  LOCALI  =  1.00D-09  EORDER  =  1.00D-04
 ENERGY  =  1.00D-12  ETEST   =  0.00D+00  EDENS   =  0.00D+00  THRDEDEF=  1.00D-06  GRADIENT=  1.00D-02  STEP    =  1.00D-03
 ORBITAL =  1.00D-05  CIVEC   =  1.00D-05  COEFF   =  1.00D-04  PRINTCI =  5.00D-02  PUNCHCI =  9.90D+01  OPTGRAD =  1.00D-08
 OPTENERG=  1.00D-06  OPTSTEP =  1.00D-08  THRGRAD =  1.00D-10  COMPRESS=  1.00D-11  VARMIN  =  1.00D-07  VARMAX  =  1.00D-03
 THRDOUB =  0.00D+00  THRDIV  =  1.00D-05  THRRED  =  1.00D-07  THRPSP  =  1.00D+00  THRDC   =  1.00D-10  THRCS   =  1.00D-10
 THRNRM  =  1.00D-08  THREQ   =  0.00D+00  THRDE   =  1.00D+00  THRREF  =  1.00D-05  SPARFAC =  1.00D+00  THRDLP  =  1.00D-07
 THRDIA  =  1.00D-10  THRDLS  =  1.00D-07  THRGPS  =  0.00D+00  THRKEX  =  0.00D+00  THRDIS  =  2.00D-01  THRVAR  =  1.00D-10
 THRLOC  =  1.00D-06  THRGAP  =  1.00D-06  THRLOCT = -1.00D+00  THRGAPT = -1.00D+00  THRORB  =  1.00D-06  THRMLTP =  0.00D+00
 THRCPQCI=  1.00D-10  KEXTA   =  0.00D+00  THRCOARS=  0.00D+00  SYMTOL  =  1.00D-06  GRADTOL =  1.00D-06  THROVL  =  1.00D-08
 THRORTH =  1.00D-08  GRID    =  1.00D-06  GRIDMAX =  1.00D-03  DTMAX   =  0.00D+00  THROCCDE=  1.00D-01  THROCCDE=  1.00D-01



 Input parameters for SORTINT:

 COMPRESS =    0.000000
 C_FINAL  =    1.000000
 DEBUG    =   -1.000000
 C_SORT1  =    0.000000
 C_SEWARD =    0.000000
 THRESH   =    0.000000
 IO       =  molpro                                                          
 SPRI     =    0.000000
 SETTING GEOMTYP        =    XYZ
 ZUNIT=BOHR
 

 Variable memory set to  995000000 words,  buffer space   230000 words

 SETTING BASIS          =    AVQZ


 Recomputing integrals since basis changed


 Using spherical harmonics

 Library entry N      S aug-cc-pVQZ          selected for orbital group  1
 Library entry N      P aug-cc-pVQZ          selected for orbital group  1
 Library entry N      D aug-cc-pVQZ          selected for orbital group  1
 Library entry N      F aug-cc-pVQZ          selected for orbital group  1
 Library entry N      G aug-cc-pVQZ          selected for orbital group  1
 Library entry C      S aug-cc-pVQZ          selected for orbital group  2
 Library entry C      P aug-cc-pVQZ          selected for orbital group  2
 Library entry C      D aug-cc-pVQZ          selected for orbital group  2
 Library entry C      F aug-cc-pVQZ          selected for orbital group  2
 Library entry C      G aug-cc-pVQZ          selected for orbital group  2
 Library entry H      S aug-cc-pVQZ          selected for orbital group  3
 Library entry H      P aug-cc-pVQZ          selected for orbital group  3
 Library entry H      D aug-cc-pVQZ          selected for orbital group  3
 Library entry H      F aug-cc-pVQZ          selected for orbital group  3


 PROGRAM * SEWARD (Integral evaluation for generally contracted gaussian basis sets)     Author: Roland Lindh, 1990

 Geometry written to block  1 of record 700


 Point group  Cs  



 ATOMIC COORDINATES

 NR  ATOM    CHARGE       X              Y              Z

   1  N       7.00   -0.004616207    0.000000000    1.124652761
   2  C       6.00    0.009611537    0.000000000   -1.054150453
   3  H       1.00   -0.004995330    0.000000000   -3.067572290

 Bond lengths in Bohr (Angstrom)

 1-2  2.178849667  2-3  2.013474821
     ( 1.152997590)     ( 1.065484990)

 Bond angles

  1-2-3  179.21020056

 NUCLEAR CHARGE:                   14
 NUMBER OF PRIMITIVE AOS:         293
 NUMBER OF SYMMETRY AOS:          234
 NUMBER OF CONTRACTIONS:          206   ( 130A'  +  76A"  )
 NUMBER OF CORE ORBITALS:           2   (   2A'  +   0A"  )
 NUMBER OF VALENCE ORBITALS:        9   (   7A'  +   2A"  )


 NUCLEAR REPULSION ENERGY   23.92590736


 Eigenvalues of metric

         1 0.173E-04 0.390E-04 0.721E-04 0.278E-03 0.396E-03 0.402E-03 0.435E-03 0.523E-03
         2 0.400E-03 0.940E-03 0.298E-02 0.353E-02 0.457E-02 0.476E-02 0.641E-02 0.869E-02


 Contracted 2-electron integrals neglected if value below      1.0D-22

      109906044. INTEGRALS WRITTEN OUT IN   26840 BLOCKS ON RECORD 1290 OF FILE 1


 NUMBER OF SORTED TWO-ELECTRON INTEGRALS:  115283741.     BUFFER LENGTH:  32768
 NUMBER OF SEGMENTS:   8  SEGMENT LENGTH:   15998004      RECORD LENGTH: 524288

 Memory used in sort:      16.56 MW

 SORT1 READ   109906044. AND WROTE   110826063. INTEGRALS IN    321 RECORDS. CPU TIME:     2.02 SEC, REAL TIME:     2.94 SEC
 SORT2 READ   110826063. AND WROTE   115283741. INTEGRALS IN      8 RECORDS. CPU TIME:     1.44 SEC, REAL TIME:     2.11 SEC

 FILE SIZES:   FILE 1:  1780.0 MBYTE,  FILE 4:  1346.4 MBYTE,   TOTAL:   3126.5 MBYTE

 OPERATOR DM      FOR CENTER  0  COORDINATES:    0.000000    0.000000    0.000000


 **********************************************************************************************************************************
 DATASETS  * FILE   NREC   LENGTH (MB)   RECORD NAMES
              1      19      943.99       500      610      700      900      950      970     1000      129      960     1100   
                                          VAR    BASINP    GEOM    SYMINP    ZMAT    AOBASIS   BASIS     P2S    ABASIS      S 
                                         1400     1410     1200     1210     1080     1600     1650     1300     1700   
                                           T        V       H0       H01     AOSYM     SMH    MOLCAS    ERIS     OPER   

 PROGRAMS   *        TOTAL       INT
 CPU TIMES  *        12.46     12.37
 REAL TIME  *        15.67 SEC
 DISK USED  *         3.13 GB      
 **********************************************************************************************************************************


 PROGRAM * RHF-SCF (CLOSED SHELL)       Authors: W. Meyer, H.-J. Werner


 NUMBER OF ELECTRONS:       7+    7-
 CONVERGENCE THRESHOLDS:    1.00E-10 (Density)    1.00E-13 (Energy)
 MAX. NUMBER OF ITERATIONS:      500
 INTERPOLATION TYPE:            DIIS
 INTERPOLATION STEPS:              2 (START)      1 (STEP)
 LEVEL SHIFTS:                  0.00 (CLOSED)  0.00 (OPEN) 



 Orbital guess generated from atomic densities. Full valence occupancy:    9   2

 Molecular orbital dump at record        2100.2

 Initial occupancy:   6   1

 ITERATION    DDIFF          GRAD             ENERGY        2-EL.EN.            DIPOLE MOMENTS         DIIS   ORB.
    1      0.000D+00      0.000D+00       -92.89013758    111.986646    0.00692    0.00000   -1.78243    0    start
    2      0.000D+00      0.537D-02       -92.89914300    111.108262   -0.00245    0.00000   -0.89958    1    diag
    3      0.527D-02      0.478D-02       -92.91433659    111.649971    0.00147    0.00000   -1.30779    2    diag
    4      0.260D-02      0.398D-03       -92.91456569    111.612541    0.00113    0.00000   -1.29655    3    diag
    5      0.464D-03      0.857D-04       -92.91457904    111.621844    0.00103    0.00000   -1.29507    4    diag
    6      0.112D-03      0.232D-04       -92.91457984    111.616992    0.00102    0.00000   -1.29515    5    diag
    7      0.242D-04      0.824D-05       -92.91457992    111.618187    0.00101    0.00000   -1.29520    6    diag
    8      0.810D-05      0.175D-05       -92.91457992    111.618132    0.00101    0.00000   -1.29517    7    diag
    9      0.172D-05      0.201D-06       -92.91457992    111.618141    0.00101    0.00000   -1.29516    8    diag
   10      0.250D-06      0.255D-07       -92.91457992    111.618142    0.00101    0.00000   -1.29516    9    orth
   11      0.284D-07      0.473D-08       -92.91457992    111.618142    0.00101    0.00000   -1.29516    9    diag
   12      0.605D-08      0.173D-08       -92.91457992    111.618142    0.00101    0.00000   -1.29516    9    diag
   13      0.298D-08      0.832D-09       -92.91457992    111.618142    0.00101    0.00000   -1.29516    9    diag
   14      0.217D-08      0.204D-09       -92.91457992    111.618142    0.00101    0.00000   -1.29516    9    diag
   15      0.457D-09      0.795D-10       -92.91457992    111.618142    0.00101    0.00000   -1.29516    9    diag
   16      0.166D-09      0.198D-10       -92.91457992    111.618142    0.00101    0.00000   -1.29516    9    diag
   17      0.400D-10      0.397D-11       -92.91457992    111.618142    0.00101    0.00000   -1.29516    9    diag
   18      0.141D-10      0.478D-12       -92.91457992    111.618142    0.00101    0.00000   -1.29516    9    diag
   19      0.487D-11      0.170D-12       -92.91457992    111.618142    0.00101    0.00000   -1.29516    9    fixocc
   20      0.383D-11      0.147D-12       -92.91457992    111.618142    0.00101    0.00000   -1.29516    9    orth
   21      0.321D-11      0.208D-12       -92.91457992    111.618142    0.00101    0.00000   -1.29516    9    diag
   22      0.218D-11      0.158D-12       -92.91457992    111.618142    0.00101    0.00000   -1.29516    9    diag
   23      0.766D-12      0.158D-12       -92.91457992    111.618142    0.00101    0.00000   -1.29516    9    diag
   24      0.889D-12      0.122D-12       -92.91457992    111.618142    0.00101    0.00000   -1.29516    0    orth

 Final occupancy:   6   1

 !RHF STATE 1.1 Energy                -92.914579918996
 Nuclear energy                        23.92590736
 One-electron energy                 -172.64955833
 Two-electron energy                   55.80907105
 Virial quotient                       -1.00205575
 !RHF STATE 1.1 Dipole moment           0.00101219     0.00000000    -1.29515910
 Dipole moment /Debye                   0.00257257     0.00000000    -3.29175047

 Orbital energies:

         1.1          2.1          3.1          4.1          5.1          6.1          7.1          8.1
    -15.598379   -11.291143    -1.236631    -0.813221    -0.582285    -0.497023     0.020532     0.062634

         1.2          2.2          3.2
     -0.497026     0.063586     0.119664

 HOMO      6.1    -0.497023 =     -13.5247eV
 LUMO      7.1     0.020532 =       0.5587eV
 LUMO-HOMO         0.517556 =      14.0834eV


 **********************************************************************************************************************************
 DATASETS  * FILE   NREC   LENGTH (MB)   RECORD NAMES
              1      19      943.99       500      610      700      900      950      970     1000      129      960     1100   
                                          VAR    BASINP    GEOM    SYMINP    ZMAT    AOBASIS   BASIS     P2S    ABASIS      S 
                                         1400     1410     1200     1210     1080     1600     1650     1300     1700   
                                           T        V       H0       H01     AOSYM     SMH    MOLCAS    ERIS     OPER   

              2       4        3.27       700     1000      520     2100   
                                         GEOM     BASIS   MCVARS     RHF  

 PROGRAMS   *        TOTAL        HF       INT
 CPU TIMES  *        25.57     13.11     12.37
 REAL TIME  *        32.96 SEC
 DISK USED  *         3.13 GB      
 **********************************************************************************************************************************


 PROGRAM * CCSD (Closed-shell coupled cluster)     Authors: C. Hampel, H.-J. Werner, 1991, M. Deegan, P.J. Knowles, 1992


 Convergence thresholds:  THRVAR = 1.00D-08  THRDEN = 1.00D-12

 CCSD(T)     terms to be evaluated (factor= 1.000)


 Number of core orbitals:           2 (   2   0 )
 Number of closed-shell orbitals:   5 (   4   1 )
 Number of external orbitals:     199 ( 124  75 )

 Molecular orbitals read from record     2100.2  Type=RHF/CANONICAL (state 1.1)

 Number of N-1 electron functions:               5
 Number of N-2 electron functions:              15
 Number of singly external CSFs:               571
 Number of doubly external CSFs:            253406
 Total number of CSFs:                      253978

 Length of J-op  integral file:               0.00 MB
 Length of K-op  integral file:               1.60 MB
 Length of 3-ext integral record:             0.00 MB

 Memory could be reduced to 30.93 Mwords without degradation in triples

 Integral transformation finished. Total CPU:   1.58 sec, npass=  1  Memory used:   8.33 MW

 Reference energy:                    -92.91457992

 MP2 singlet pair energy:              -0.23802661
 MP2 triplet pair energy:              -0.13190540
 MP2 correlation energy:               -0.36993201
 MP2 total energy:                    -93.28451193

 SCS-MP2 correlation energy:           -0.36770640   (PS=  1.200000  PT=  0.333333)
 SCS-MP2 total energy:                -93.28228632

 ITER.      SQ.NORM     CORR.ENERGY   TOTAL ENERGY   ENERGY CHANGE        DEN1      VAR(S)    VAR(P)  DIIS     TIME  TIME/IT
   1      1.11564863    -0.36875561   -93.28333553     0.00117640     0.01430947  0.26D-02  0.31D-02  1  1     2.83     1.43
   2      1.12487789    -0.36896056   -93.28354047    -0.00020495    -0.01011697  0.62D-04  0.40D-03  2  2     4.11     1.46
   3      1.12991610    -0.36918465   -93.28376457    -0.00022410    -0.00260420  0.14D-04  0.44D-04  3  3     5.43     1.47
   4      1.13200113    -0.36926188   -93.28384180    -0.00007723    -0.00073790  0.59D-06  0.50D-05  4  4     6.71     1.48
   5      1.13253463    -0.36926546   -93.28384538    -0.00000358    -0.00015239  0.80D-07  0.44D-06  5  5     8.01     1.48
   6      1.13264728    -0.36926293   -93.28384285     0.00000253    -0.00002981  0.95D-08  0.35D-07  6  6     9.32     1.48
   7      1.13265507    -0.36926451   -93.28384443    -0.00000158    -0.00000098  0.88D-09  0.29D-08  6  1    10.63     1.49
   8      1.13265674    -0.36926499   -93.28384491    -0.00000048    -0.00000043  0.11D-09  0.26D-09  6  2    11.90     1.49
   9      1.13265692    -0.36926505   -93.28384497    -0.00000007    -0.00000009  0.11D-10  0.16D-10  6  3    13.18     1.49
  10      1.13265678    -0.36926510   -93.28384502    -0.00000004     0.00000011  0.11D-11  0.16D-11  6  4    14.45     1.49
  11      1.13265672    -0.36926511   -93.28384503    -0.00000001     0.00000003  0.17D-12  0.14D-12  6  5    15.75     1.49
  12      1.13265666    -0.36926512   -93.28384504    -0.00000000     0.00000003  0.24D-13  0.25D-13  6  6    17.01     1.49
  13      1.13265662    -0.36926512   -93.28384504    -0.00000000     0.00000001  0.28D-14  0.58D-14  6  1    18.32     1.49
  14      1.13265661    -0.36926512   -93.28384504    -0.00000000     0.00000001  0.39D-15  0.60D-15  6  3    19.61     1.49
  15      1.13265660    -0.36926512   -93.28384504    -0.00000000     0.00000000  0.41D-16  0.42D-16  6  2    20.86     1.49
  16      1.13265660    -0.36926512   -93.28384504     0.00000000     0.00000000  0.12D-16  0.57D-17  6  4    22.11     1.49
  17      1.13265660    -0.36926512   -93.28384504    -0.00000000     0.00000000  0.29D-17  0.11D-17  6  5    23.33     1.49
  18      1.13265660    -0.36926512   -93.28384504     0.00000000     0.00000000  0.42D-18  0.20D-18  6  6    24.63     1.49
  19      1.13265660    -0.36926512   -93.28384504     0.00000000    -0.00000000  0.53D-19  0.37D-19  6  1    26.00     1.49
  20      1.13265660    -0.36926512   -93.28384504     0.00000000    -0.00000000  0.66D-20  0.68D-20  6  3    27.31     1.50

 Norm of t1 vector:      0.06436300      S-energy:    -0.00000000      T1 diagnostic:  0.01439200
                                                                       D1 diagnostic:  0.02890776

 Doubles amplitudes (print threshold =  0.500E-01):

         I         J         SYM. A    SYM. B    A         B      T(IJ, AB)

         4         4         1         1         7         7     -0.05051264
         5         5         2         2         3         3     -0.05055353


 Total CPU time for triples:     11.80 sec


 RESULTS
 =======

  Reference energy                    -92.914579918996
  CCSD singlet pair energy             -0.258768807628
  CCSD triplet pair energy             -0.110496310802
  CCSD correlation energy              -0.369265118430

  Triples (T) contribution             -0.019574824568
  Total correlation energy             -0.388839942999

  CCSD total energy                   -93.283845037426
  CCSD[T] energy                      -93.304252195435
  CCSD-T energy                       -93.303040595638
 !CCSD(T) total energy                -93.303419861995

 Timing summary (sec):

 STEP                 CPU(USER)    SYS     CPU(TOT)    WALL
 Transformation          1.60      0.29      1.89      2.07
 CCSD iterations        25.71      4.28     29.99     30.00
 Triples                11.80      0.31     12.11     12.11

 Program statistics:

 Available memory in ccsd:               994999800
 Min. memory needed in ccsd:               1003324
 Max. memory used in ccsd:                 1199476
 Max. memory used in cckext:               2145959 (20 integral passes)



 **********************************************************************************************************************************
 DATASETS  * FILE   NREC   LENGTH (MB)   RECORD NAMES
              1      20     1028.32       500      610      700      900      950      970     1000      129      960     1100   
                                          VAR    BASINP    GEOM    SYMINP    ZMAT    AOBASIS   BASIS     P2S    ABASIS      S 
                                         1400     1410     1200     1210     1080     1600     1650     1300     1700     1380   
                                           T        V       H0       H01     AOSYM     SMH    MOLCAS    ERIS     OPER     JKOP   

              2       4        3.27       700     1000      520     2100   
                                         GEOM     BASIS   MCVARS     RHF  

 PROGRAMS   *        TOTAL   CCSD(T)        HF       INT
 CPU TIMES  *        64.71     39.12     13.11     12.37
 REAL TIME  *        77.20 SEC
 DISK USED  *         3.13 GB      
 **********************************************************************************************************************************

 CCSD(T)/aug-cc-pVQZ energy=    -93.303419861995

        CCSD(T)         HF-SCF  
    -93.30341986    -92.91457992
 **********************************************************************************************************************************
 Molpro calculation terminated
 Variable memory released
