
 Primary working directories    : /tmp/r2666/232475.maple
 Secondary working directories  : /tmp/r2666/232475.maple
 Wavefunction directory         : /ddn/home4/r2666/wfu/
 Main file repository           : /tmp/r2666/232475.maple/

 SHA1      : d5ffa45e93fdbca01ffc919aa182cfdae0147319
 NAME      : 2015.1.35
 ARCHNAME  : linux/x86_64
 FC        : /opt/intel/composer_xe_2015.1.133/bin/intel64/ifort
 BLASLIB   : -Wl,-_start-group /opt/intel/mkl/lib/intel64/libmkl_intel_ilp64.a /opt/intel/mkl/lib/intel64/libmkl_intel_thread.a /opt/intel/mkl/lib/intel64/libmkl_core.a -Wl,-_end-group
 id        : olemiss

 Nodes     nprocs
 cn087        1

 Using customized tuning parameters: mindgm=1; mindgv=20; mindgc=4; mindgr=1; noblas=0; minvec=7
 default implementation of scratch files=df  

 ***,hcn CCSD(T)/TZ-F12 QFF
 memory, 995, m;
 gthresh,energy=1.d-12,zero=1.d-22,oneint=1.d-22,twoint=1.d-22;
 gthresh,optgrad=1.d-8,optstep=1.d-8;
 nocompress;
 geomtyp=xyz
 bohr
 geometry={
 3
         29        29
 N       -0.0092326816        0.0000000399        1.1245068543
 C        0.0192234811       -0.0000000010       -1.0541569835
 H       -0.0099907995       -0.0000000388       -3.0674198528
 }
 
 basis=avqz
   {hf,maxit=500;accu,20;}
 {ccsd(t),nocheck,maxit=250;orbital,IGNORE_ERROR;}

 Variables initialized (889), CPU time= 0.00 sec
 Commands  initialized (702), CPU time= 0.01 sec, 572 directives.
 Default parameters read. Elapsed time= 0.07 sec

 Checking input...
 Passed
1


                                         ***  PROGRAM SYSTEM MOLPRO  ***
                                       Copyright, TTI GmbH Stuttgart, 2015
                                    Version 2015.1 linked Jul  9 2018 13:16:40


 **********************************************************************************************************************************
 LABEL *   hcn CCSD(T)/TZ-F12 QFF                                                        
  64 bit serial version                                                                  DATE: 06-Feb-20          TIME: 09:53:07  
 **********************************************************************************************************************************

 SHA1:             d5ffa45e93fdbca01ffc919aa182cfdae0147319
 **********************************************************************************************************************************

 THRESHOLDS:

 ZERO    =  1.00D-22  ONEINT  =  1.00D-22  TWOINT  =  1.00D-22  PREFAC  =  1.00D-14  LOCALI  =  1.00D-09  EORDER  =  1.00D-04
 ENERGY  =  1.00D-12  ETEST   =  0.00D+00  EDENS   =  0.00D+00  THRDEDEF=  1.00D-06  GRADIENT=  1.00D-02  STEP    =  1.00D-03
 ORBITAL =  1.00D-05  CIVEC   =  1.00D-05  COEFF   =  1.00D-04  PRINTCI =  5.00D-02  PUNCHCI =  9.90D+01  OPTGRAD =  3.00D-04
 OPTENERG=  1.00D-06  OPTSTEP =  3.00D-04  THRGRAD =  1.00D-10  COMPRESS=  1.00D-11  VARMIN  =  1.00D-07  VARMAX  =  1.00D-03
 THRDOUB =  0.00D+00  THRDIV  =  1.00D-05  THRRED  =  1.00D-07  THRPSP  =  1.00D+00  THRDC   =  1.00D-10  THRCS   =  1.00D-10
 THRNRM  =  1.00D-08  THREQ   =  0.00D+00  THRDE   =  1.00D+00  THRREF  =  1.00D-05  SPARFAC =  1.00D+00  THRDLP  =  1.00D-07
 THRDIA  =  1.00D-10  THRDLS  =  1.00D-07  THRGPS  =  0.00D+00  THRKEX  =  0.00D+00  THRDIS  =  2.00D-01  THRVAR  =  1.00D-10
 THRLOC  =  1.00D-06  THRGAP  =  1.00D-06  THRLOCT = -1.00D+00  THRGAPT = -1.00D+00  THRORB  =  1.00D-06  THRMLTP =  0.00D+00
 THRCPQCI=  1.00D-10  KEXTA   =  0.00D+00  THRCOARS=  0.00D+00  SYMTOL  =  1.00D-06  GRADTOL =  1.00D-06  THROVL  =  1.00D-08
 THRORTH =  1.00D-08  GRID    =  1.00D-06  GRIDMAX =  1.00D-03  DTMAX   =  0.00D+00  THROCCDE=  1.00D-01  THROCCDE=  1.00D-01



 THRESHOLDS:

 ZERO    =  1.00D-22  ONEINT  =  1.00D-22  TWOINT  =  1.00D-22  PREFAC  =  1.00D-14  LOCALI  =  1.00D-09  EORDER  =  1.00D-04
 ENERGY  =  1.00D-12  ETEST   =  0.00D+00  EDENS   =  0.00D+00  THRDEDEF=  1.00D-06  GRADIENT=  1.00D-02  STEP    =  1.00D-03
 ORBITAL =  1.00D-05  CIVEC   =  1.00D-05  COEFF   =  1.00D-04  PRINTCI =  5.00D-02  PUNCHCI =  9.90D+01  OPTGRAD =  1.00D-08
 OPTENERG=  1.00D-06  OPTSTEP =  1.00D-08  THRGRAD =  1.00D-10  COMPRESS=  1.00D-11  VARMIN  =  1.00D-07  VARMAX  =  1.00D-03
 THRDOUB =  0.00D+00  THRDIV  =  1.00D-05  THRRED  =  1.00D-07  THRPSP  =  1.00D+00  THRDC   =  1.00D-10  THRCS   =  1.00D-10
 THRNRM  =  1.00D-08  THREQ   =  0.00D+00  THRDE   =  1.00D+00  THRREF  =  1.00D-05  SPARFAC =  1.00D+00  THRDLP  =  1.00D-07
 THRDIA  =  1.00D-10  THRDLS  =  1.00D-07  THRGPS  =  0.00D+00  THRKEX  =  0.00D+00  THRDIS  =  2.00D-01  THRVAR  =  1.00D-10
 THRLOC  =  1.00D-06  THRGAP  =  1.00D-06  THRLOCT = -1.00D+00  THRGAPT = -1.00D+00  THRORB  =  1.00D-06  THRMLTP =  0.00D+00
 THRCPQCI=  1.00D-10  KEXTA   =  0.00D+00  THRCOARS=  0.00D+00  SYMTOL  =  1.00D-06  GRADTOL =  1.00D-06  THROVL  =  1.00D-08
 THRORTH =  1.00D-08  GRID    =  1.00D-06  GRIDMAX =  1.00D-03  DTMAX   =  0.00D+00  THROCCDE=  1.00D-01  THROCCDE=  1.00D-01



 Input parameters for SORTINT:

 COMPRESS =    0.000000
 C_FINAL  =    1.000000
 DEBUG    =   -1.000000
 C_SORT1  =    0.000000
 C_SEWARD =    0.000000
 THRESH   =    0.000000
 IO       =  molpro                                                          
 SPRI     =    0.000000
 SETTING GEOMTYP        =    XYZ
 ZUNIT=BOHR
 

 Variable memory set to  995000000 words,  buffer space   230000 words

 SETTING BASIS          =    AVQZ


 Recomputing integrals since basis changed


 Using spherical harmonics

 Library entry N      S aug-cc-pVQZ          selected for orbital group  1
 Library entry N      P aug-cc-pVQZ          selected for orbital group  1
 Library entry N      D aug-cc-pVQZ          selected for orbital group  1
 Library entry N      F aug-cc-pVQZ          selected for orbital group  1
 Library entry N      G aug-cc-pVQZ          selected for orbital group  1
 Library entry C      S aug-cc-pVQZ          selected for orbital group  2
 Library entry C      P aug-cc-pVQZ          selected for orbital group  2
 Library entry C      D aug-cc-pVQZ          selected for orbital group  2
 Library entry C      F aug-cc-pVQZ          selected for orbital group  2
 Library entry C      G aug-cc-pVQZ          selected for orbital group  2
 Library entry H      S aug-cc-pVQZ          selected for orbital group  3
 Library entry H      P aug-cc-pVQZ          selected for orbital group  3
 Library entry H      D aug-cc-pVQZ          selected for orbital group  3
 Library entry H      F aug-cc-pVQZ          selected for orbital group  3


 PROGRAM * SEWARD (Integral evaluation for generally contracted gaussian basis sets)     Author: Roland Lindh, 1990

 Geometry written to block  1 of record 700


 Point group  Cs  



 ATOMIC COORDINATES

 NR  ATOM    CHARGE       X              Y              Z

   1  N       7.00   -0.009232682    0.000000000    1.124506854
   2  C       6.00    0.019223481    0.000000000   -1.054156983
   3  H       1.00   -0.009990799    0.000000000   -3.067419853

 Bond lengths in Bohr (Angstrom)

 1-2  2.178849667  2-3  2.013474821
     ( 1.152997590)     ( 1.065484990)

 Bond angles

  1-2-3  178.42033002

 NUCLEAR CHARGE:                   14
 NUMBER OF PRIMITIVE AOS:         293
 NUMBER OF SYMMETRY AOS:          234
 NUMBER OF CONTRACTIONS:          206   ( 130A'  +  76A"  )
 NUMBER OF CORE ORBITALS:           2   (   2A'  +   0A"  )
 NUMBER OF VALENCE ORBITALS:        9   (   7A'  +   2A"  )


 NUCLEAR REPULSION ENERGY   23.92602617


 Eigenvalues of metric

         1 0.173E-04 0.390E-04 0.721E-04 0.278E-03 0.393E-03 0.404E-03 0.435E-03 0.523E-03
         2 0.400E-03 0.940E-03 0.298E-02 0.353E-02 0.458E-02 0.476E-02 0.641E-02 0.869E-02


 Contracted 2-electron integrals neglected if value below      1.0D-22

      109915599. INTEGRALS WRITTEN OUT IN   26842 BLOCKS ON RECORD 1290 OF FILE 1


 NUMBER OF SORTED TWO-ELECTRON INTEGRALS:  115283741.     BUFFER LENGTH:  32768
 NUMBER OF SEGMENTS:   8  SEGMENT LENGTH:   15998004      RECORD LENGTH: 524288

 Memory used in sort:      16.56 MW

 SORT1 READ   109915599. AND WROTE   110835639. INTEGRALS IN    321 RECORDS. CPU TIME:     1.71 SEC, REAL TIME:     2.50 SEC
 SORT2 READ   110835639. AND WROTE   115283741. INTEGRALS IN      8 RECORDS. CPU TIME:     1.27 SEC, REAL TIME:     1.72 SEC

 FILE SIZES:   FILE 1:  1780.2 MBYTE,  FILE 4:  1346.4 MBYTE,   TOTAL:   3126.6 MBYTE

 OPERATOR DM      FOR CENTER  0  COORDINATES:    0.000000    0.000000    0.000000


 **********************************************************************************************************************************
 DATASETS  * FILE   NREC   LENGTH (MB)   RECORD NAMES
              1      19      944.03       500      610      700      900      950      970     1000      129      960     1100   
                                          VAR    BASINP    GEOM    SYMINP    ZMAT    AOBASIS   BASIS     P2S    ABASIS      S 
                                         1400     1410     1200     1210     1080     1600     1650     1300     1700   
                                           T        V       H0       H01     AOSYM     SMH    MOLCAS    ERIS     OPER   

 PROGRAMS   *        TOTAL       INT
 CPU TIMES  *        10.40     10.30
 REAL TIME  *        13.01 SEC
 DISK USED  *         3.13 GB      
 **********************************************************************************************************************************


 PROGRAM * RHF-SCF (CLOSED SHELL)       Authors: W. Meyer, H.-J. Werner


 NUMBER OF ELECTRONS:       7+    7-
 CONVERGENCE THRESHOLDS:    1.00E-10 (Density)    1.00E-13 (Energy)
 MAX. NUMBER OF ITERATIONS:      500
 INTERPOLATION TYPE:            DIIS
 INTERPOLATION STEPS:              2 (START)      1 (STEP)
 LEVEL SHIFTS:                  0.00 (CLOSED)  0.00 (OPEN) 



 Orbital guess generated from atomic densities. Full valence occupancy:    9   2

 Molecular orbital dump at record        2100.2

 Initial occupancy:   6   1

 ITERATION    DDIFF          GRAD             ENERGY        2-EL.EN.            DIPOLE MOMENTS         DIIS   ORB.
    1      0.000D+00      0.000D+00       -92.89011360    111.986883    0.01384    0.00000   -1.78223    0    start
    2      0.000D+00      0.537D-02       -92.89911906    111.108428   -0.00490    0.00000   -0.89942    1    diag
    3      0.527D-02      0.478D-02       -92.91431375    111.650155    0.00294    0.00000   -1.30761    2    diag
    4      0.260D-02      0.398D-03       -92.91454295    111.612723    0.00226    0.00000   -1.29636    3    diag
    5      0.464D-03      0.857D-04       -92.91455632    111.622028    0.00206    0.00000   -1.29488    4    diag
    6      0.112D-03      0.232D-04       -92.91455712    111.617176    0.00204    0.00000   -1.29496    5    diag
    7      0.242D-04      0.825D-05       -92.91455719    111.618371    0.00203    0.00000   -1.29501    6    diag
    8      0.811D-05      0.175D-05       -92.91455720    111.618316    0.00202    0.00000   -1.29498    7    diag
    9      0.173D-05      0.204D-06       -92.91455720    111.618325    0.00202    0.00000   -1.29497    8    diag
   10      0.254D-06      0.310D-07       -92.91455720    111.618326    0.00202    0.00000   -1.29497    9    orth
   11      0.375D-07      0.111D-07       -92.91455720    111.618326    0.00202    0.00000   -1.29497    9    diag
   12      0.186D-07      0.522D-08       -92.91455720    111.618326    0.00202    0.00000   -1.29497    9    diag
   13      0.139D-07      0.138D-08       -92.91455720    111.618326    0.00202    0.00000   -1.29497    9    diag
   14      0.330D-08      0.382D-09       -92.91455720    111.618326    0.00202    0.00000   -1.29497    9    diag
   15      0.659D-09      0.132D-09       -92.91455720    111.618326    0.00202    0.00000   -1.29497    9    diag
   16      0.219D-09      0.286D-10       -92.91455720    111.618326    0.00202    0.00000   -1.29497    9    diag
   17      0.431D-10      0.444D-11       -92.91455720    111.618326    0.00202    0.00000   -1.29497    9    diag
   18      0.104D-10      0.619D-12       -92.91455720    111.618326    0.00202    0.00000   -1.29497    9    diag
   19      0.125D-10      0.303D-12       -92.91455720    111.618326    0.00202    0.00000   -1.29497    0    orth

 Final occupancy:   6   1

 !RHF STATE 1.1 Energy                -92.914557197381
 Nuclear energy                        23.92602617
 One-electron energy                 -172.64974642
 Two-electron energy                   55.80916305
 Virial quotient                       -1.00205507
 !RHF STATE 1.1 Dipole moment           0.00202270     0.00000000    -1.29497167
 Dipole moment /Debye                   0.00514086     0.00000000    -3.29127410

 Orbital energies:

         1.1          2.1          3.1          4.1          5.1          6.1          7.1          8.1
    -15.598389   -11.291137    -1.236639    -0.813199    -0.582292    -0.497023     0.020535     0.062623

         1.2          2.2          3.2
     -0.497032     0.063586     0.119670

 HOMO      6.1    -0.497023 =     -13.5247eV
 LUMO      7.1     0.020535 =       0.5588eV
 LUMO-HOMO         0.517557 =      14.0835eV


 **********************************************************************************************************************************
 DATASETS  * FILE   NREC   LENGTH (MB)   RECORD NAMES
              1      19      944.03       500      610      700      900      950      970     1000      129      960     1100   
                                          VAR    BASINP    GEOM    SYMINP    ZMAT    AOBASIS   BASIS     P2S    ABASIS      S 
                                         1400     1410     1200     1210     1080     1600     1650     1300     1700   
                                           T        V       H0       H01     AOSYM     SMH    MOLCAS    ERIS     OPER   

              2       4        3.27       700     1000      520     2100   
                                         GEOM     BASIS   MCVARS     RHF  

 PROGRAMS   *        TOTAL        HF       INT
 CPU TIMES  *        19.63      9.23     10.30
 REAL TIME  *        24.51 SEC
 DISK USED  *         3.13 GB      
 **********************************************************************************************************************************


 PROGRAM * CCSD (Closed-shell coupled cluster)     Authors: C. Hampel, H.-J. Werner, 1991, M. Deegan, P.J. Knowles, 1992


 Convergence thresholds:  THRVAR = 1.00D-08  THRDEN = 1.00D-12

 CCSD(T)     terms to be evaluated (factor= 1.000)


 Number of core orbitals:           2 (   2   0 )
 Number of closed-shell orbitals:   5 (   4   1 )
 Number of external orbitals:     199 ( 124  75 )

 Molecular orbitals read from record     2100.2  Type=RHF/CANONICAL (state 1.1)

 Number of N-1 electron functions:               5
 Number of N-2 electron functions:              15
 Number of singly external CSFs:               571
 Number of doubly external CSFs:            253406
 Total number of CSFs:                      253978

 Length of J-op  integral file:               0.00 MB
 Length of K-op  integral file:               1.60 MB
 Length of 3-ext integral record:             0.00 MB

 Memory could be reduced to 30.93 Mwords without degradation in triples

 Integral transformation finished. Total CPU:   1.27 sec, npass=  1  Memory used:   8.33 MW

 Reference energy:                    -92.91455720

 MP2 singlet pair energy:              -0.23803039
 MP2 triplet pair energy:              -0.13190719
 MP2 correlation energy:               -0.36993758
 MP2 total energy:                    -93.28449478

 SCS-MP2 correlation energy:           -0.36771205   (PS=  1.200000  PT=  0.333333)
 SCS-MP2 total energy:                -93.28226925

 ITER.      SQ.NORM     CORR.ENERGY   TOTAL ENERGY   ENERGY CHANGE        DEN1      VAR(S)    VAR(P)  DIIS     TIME  TIME/IT
   1      1.11565309    -0.36876038   -93.28331758     0.00117720     0.01431117  0.26D-02  0.31D-02  1  1     2.24     1.10
   2      1.12488336    -0.36896535   -93.28352255    -0.00020497    -0.01011756  0.62D-04  0.40D-03  2  2     3.22     1.11
   3      1.12992248    -0.36918952   -93.28374672    -0.00022417    -0.00260449  0.14D-04  0.44D-04  3  3     4.23     1.13
   4      1.13200809    -0.36926679   -93.28382398    -0.00007726    -0.00073803  0.59D-06  0.50D-05  4  4     5.26     1.13
   5      1.13254178    -0.36927037   -93.28382756    -0.00000358    -0.00015243  0.80D-07  0.44D-06  5  5     6.25     1.13
   6      1.13265446    -0.36926784   -93.28382503     0.00000253    -0.00002980  0.95D-08  0.35D-07  6  6     7.20     1.14
   7      1.13266225    -0.36926942   -93.28382662    -0.00000158    -0.00000098  0.88D-09  0.29D-08  6  1     8.19     1.14
   8      1.13266392    -0.36926990   -93.28382709    -0.00000048    -0.00000043  0.11D-09  0.26D-09  6  2     9.17     1.14
   9      1.13266410    -0.36926996   -93.28382716    -0.00000007    -0.00000009  0.12D-10  0.17D-10  6  3    10.14     1.14
  10      1.13266397    -0.36927001   -93.28382721    -0.00000004     0.00000011  0.12D-11  0.16D-11  6  4    11.15     1.14
  11      1.13266390    -0.36927002   -93.28382722    -0.00000001     0.00000003  0.20D-12  0.15D-12  6  5    12.14     1.15
  12      1.13266384    -0.36927003   -93.28382722    -0.00000000     0.00000003  0.32D-13  0.27D-13  6  6    13.15     1.15
  13      1.13266381    -0.36927003   -93.28382723    -0.00000000     0.00000001  0.46D-14  0.64D-14  6  1    14.10     1.14
  14      1.13266379    -0.36927003   -93.28382723    -0.00000000     0.00000001  0.68D-15  0.68D-15  6  3    15.06     1.14
  15      1.13266378    -0.36927003   -93.28382723    -0.00000000     0.00000000  0.96D-16  0.53D-16  6  2    16.02     1.14
  16      1.13266378    -0.36927003   -93.28382723     0.00000000    -0.00000000  0.26D-16  0.99D-17  6  4    16.97     1.14
  17      1.13266378    -0.36927003   -93.28382723    -0.00000000     0.00000000  0.45D-17  0.20D-17  6  5    17.97     1.14
  18      1.13266378    -0.36927003   -93.28382723     0.00000000    -0.00000000  0.38D-18  0.35D-18  6  6    18.94     1.14
  19      1.13266378    -0.36927003   -93.28382723     0.00000000    -0.00000000  0.28D-19  0.45D-19  6  1    19.94     1.14
  20      1.13266378    -0.36927003   -93.28382723     0.00000000    -0.00000000  0.49D-20  0.71D-20  6  3    20.94     1.14
  21      1.13266378    -0.36927003   -93.28382723     0.00000000    -0.00000000  0.20D-20  0.22D-20  6  2    21.93     1.14
  22      1.13266378    -0.36927003   -93.28382723     0.00000000    -0.00000000  0.83D-21  0.86D-21  6  4    22.89     1.14

 Norm of t1 vector:      0.06436436      S-energy:    -0.00000000      T1 diagnostic:  0.01439231
                                                                       D1 diagnostic:  0.02890994

 Doubles amplitudes (print threshold =  0.500E-01):

         I         J         SYM. A    SYM. B    A         B      T(IJ, AB)

         4         4         1         1         7         7     -0.05038780
         5         5         2         2         3         3     -0.05054914


 Total CPU time for triples:      8.82 sec


 RESULTS
 =======

  Reference energy                    -92.914557197381
  CCSD singlet pair energy             -0.258773597509
  CCSD triplet pair energy             -0.110496430882
  CCSD correlation energy              -0.369270028391

  Triples (T) contribution             -0.019575697292
  Total correlation energy             -0.388845725683

  CCSD total energy                   -93.283827225772
  CCSD[T] energy                      -93.304235288987
  CCSD-T energy                       -93.303023652418
 !CCSD(T) total energy                -93.303402923063

 Timing summary (sec):

 STEP                 CPU(USER)    SYS     CPU(TOT)    WALL
 Transformation          1.28      0.26      1.54      1.74
 CCSD iterations        21.62      3.53     25.15     25.14
 Triples                 8.82      0.24      9.06      9.06

 Program statistics:

 Available memory in ccsd:               994999800
 Min. memory needed in ccsd:               1003324
 Max. memory used in ccsd:                 1199476
 Max. memory used in cckext:               2145959 (22 integral passes)



 **********************************************************************************************************************************
 DATASETS  * FILE   NREC   LENGTH (MB)   RECORD NAMES
              1      20     1028.36       500      610      700      900      950      970     1000      129      960     1100   
                                          VAR    BASINP    GEOM    SYMINP    ZMAT    AOBASIS   BASIS     P2S    ABASIS      S 
                                         1400     1410     1200     1210     1080     1600     1650     1300     1700     1380   
                                           T        V       H0       H01     AOSYM     SMH    MOLCAS    ERIS     OPER     JKOP   

              2       4        3.27       700     1000      520     2100   
                                         GEOM     BASIS   MCVARS     RHF  

 PROGRAMS   *        TOTAL   CCSD(T)        HF       INT
 CPU TIMES  *        51.37     31.74      9.23     10.30
 REAL TIME  *        60.48 SEC
 DISK USED  *         3.13 GB      
 **********************************************************************************************************************************

 CCSD(T)/aug-cc-pVQZ energy=    -93.303402923063

        CCSD(T)         HF-SCF  
    -93.30340292    -92.91455720
 **********************************************************************************************************************************
 Molpro calculation terminated
 Variable memory released
