
 Primary working directories    : /tmp/r2666/232455.maple
 Secondary working directories  : /tmp/r2666/232455.maple
 Wavefunction directory         : /ddn/home4/r2666/wfu/
 Main file repository           : /tmp/r2666/232455.maple/

 SHA1      : d5ffa45e93fdbca01ffc919aa182cfdae0147319
 NAME      : 2015.1.35
 ARCHNAME  : linux/x86_64
 FC        : /opt/intel/composer_xe_2015.1.133/bin/intel64/ifort
 BLASLIB   : -Wl,-_start-group /opt/intel/mkl/lib/intel64/libmkl_intel_ilp64.a /opt/intel/mkl/lib/intel64/libmkl_intel_thread.a /opt/intel/mkl/lib/intel64/libmkl_core.a -Wl,-_end-group
 id        : olemiss

 Nodes     nprocs
 cn078        1

 Using customized tuning parameters: mindgm=1; mindgv=20; mindgc=4; mindgr=1; noblas=0; minvec=7
 default implementation of scratch files=df  

 ***,hcn CCSD(T)/TZ-F12 QFF
 memory, 995, m;
 gthresh,energy=1.d-12,zero=1.d-22,oneint=1.d-22,twoint=1.d-22;
 gthresh,optgrad=1.d-8,optstep=1.d-8;
 nocompress;
 geomtyp=xyz
 bohr
 geometry={
 3
          9         9
 N        0.0000000000        0.0000000000        1.1152527611
 C        0.0000000000        0.0000000000       -1.0446996461
 H        0.0000000000        0.0000000000       -3.0676230970
 }
 
 basis=avqz
   {hf,maxit=500;accu,20;}
 {ccsd(t),nocheck,maxit=250;orbital,IGNORE_ERROR;}

 Variables initialized (889), CPU time= 0.01 sec
 Commands  initialized (702), CPU time= 0.01 sec, 572 directives.
 Default parameters read. Elapsed time= 0.04 sec

 Checking input...
 Passed
1


                                         ***  PROGRAM SYSTEM MOLPRO  ***
                                       Copyright, TTI GmbH Stuttgart, 2015
                                    Version 2015.1 linked Jul  9 2018 13:16:40


 **********************************************************************************************************************************
 LABEL *   hcn CCSD(T)/TZ-F12 QFF                                                        
  64 bit serial version                                                                  DATE: 06-Feb-20          TIME: 09:50:21  
 **********************************************************************************************************************************

 SHA1:             d5ffa45e93fdbca01ffc919aa182cfdae0147319
 **********************************************************************************************************************************

 THRESHOLDS:

 ZERO    =  1.00D-22  ONEINT  =  1.00D-22  TWOINT  =  1.00D-22  PREFAC  =  1.00D-14  LOCALI  =  1.00D-09  EORDER  =  1.00D-04
 ENERGY  =  1.00D-12  ETEST   =  0.00D+00  EDENS   =  0.00D+00  THRDEDEF=  1.00D-06  GRADIENT=  1.00D-02  STEP    =  1.00D-03
 ORBITAL =  1.00D-05  CIVEC   =  1.00D-05  COEFF   =  1.00D-04  PRINTCI =  5.00D-02  PUNCHCI =  9.90D+01  OPTGRAD =  3.00D-04
 OPTENERG=  1.00D-06  OPTSTEP =  3.00D-04  THRGRAD =  1.00D-10  COMPRESS=  1.00D-11  VARMIN  =  1.00D-07  VARMAX  =  1.00D-03
 THRDOUB =  0.00D+00  THRDIV  =  1.00D-05  THRRED  =  1.00D-07  THRPSP  =  1.00D+00  THRDC   =  1.00D-10  THRCS   =  1.00D-10
 THRNRM  =  1.00D-08  THREQ   =  0.00D+00  THRDE   =  1.00D+00  THRREF  =  1.00D-05  SPARFAC =  1.00D+00  THRDLP  =  1.00D-07
 THRDIA  =  1.00D-10  THRDLS  =  1.00D-07  THRGPS  =  0.00D+00  THRKEX  =  0.00D+00  THRDIS  =  2.00D-01  THRVAR  =  1.00D-10
 THRLOC  =  1.00D-06  THRGAP  =  1.00D-06  THRLOCT = -1.00D+00  THRGAPT = -1.00D+00  THRORB  =  1.00D-06  THRMLTP =  0.00D+00
 THRCPQCI=  1.00D-10  KEXTA   =  0.00D+00  THRCOARS=  0.00D+00  SYMTOL  =  1.00D-06  GRADTOL =  1.00D-06  THROVL  =  1.00D-08
 THRORTH =  1.00D-08  GRID    =  1.00D-06  GRIDMAX =  1.00D-03  DTMAX   =  0.00D+00  THROCCDE=  1.00D-01  THROCCDE=  1.00D-01



 THRESHOLDS:

 ZERO    =  1.00D-22  ONEINT  =  1.00D-22  TWOINT  =  1.00D-22  PREFAC  =  1.00D-14  LOCALI  =  1.00D-09  EORDER  =  1.00D-04
 ENERGY  =  1.00D-12  ETEST   =  0.00D+00  EDENS   =  0.00D+00  THRDEDEF=  1.00D-06  GRADIENT=  1.00D-02  STEP    =  1.00D-03
 ORBITAL =  1.00D-05  CIVEC   =  1.00D-05  COEFF   =  1.00D-04  PRINTCI =  5.00D-02  PUNCHCI =  9.90D+01  OPTGRAD =  1.00D-08
 OPTENERG=  1.00D-06  OPTSTEP =  1.00D-08  THRGRAD =  1.00D-10  COMPRESS=  1.00D-11  VARMIN  =  1.00D-07  VARMAX  =  1.00D-03
 THRDOUB =  0.00D+00  THRDIV  =  1.00D-05  THRRED  =  1.00D-07  THRPSP  =  1.00D+00  THRDC   =  1.00D-10  THRCS   =  1.00D-10
 THRNRM  =  1.00D-08  THREQ   =  0.00D+00  THRDE   =  1.00D+00  THRREF  =  1.00D-05  SPARFAC =  1.00D+00  THRDLP  =  1.00D-07
 THRDIA  =  1.00D-10  THRDLS  =  1.00D-07  THRGPS  =  0.00D+00  THRKEX  =  0.00D+00  THRDIS  =  2.00D-01  THRVAR  =  1.00D-10
 THRLOC  =  1.00D-06  THRGAP  =  1.00D-06  THRLOCT = -1.00D+00  THRGAPT = -1.00D+00  THRORB  =  1.00D-06  THRMLTP =  0.00D+00
 THRCPQCI=  1.00D-10  KEXTA   =  0.00D+00  THRCOARS=  0.00D+00  SYMTOL  =  1.00D-06  GRADTOL =  1.00D-06  THROVL  =  1.00D-08
 THRORTH =  1.00D-08  GRID    =  1.00D-06  GRIDMAX =  1.00D-03  DTMAX   =  0.00D+00  THROCCDE=  1.00D-01  THROCCDE=  1.00D-01



 Input parameters for SORTINT:

 COMPRESS =    0.000000
 C_FINAL  =    1.000000
 DEBUG    =   -1.000000
 C_SORT1  =    0.000000
 C_SEWARD =    0.000000
 THRESH   =    0.000000
 IO       =  molpro                                                          
 SPRI     =    0.000000
 SETTING GEOMTYP        =    XYZ
 ZUNIT=BOHR
 

 Variable memory set to  995000000 words,  buffer space   230000 words

 SETTING BASIS          =    AVQZ


 Recomputing integrals since basis changed


 Using spherical harmonics

 Library entry N      S aug-cc-pVQZ          selected for orbital group  1
 Library entry N      P aug-cc-pVQZ          selected for orbital group  1
 Library entry N      D aug-cc-pVQZ          selected for orbital group  1
 Library entry N      F aug-cc-pVQZ          selected for orbital group  1
 Library entry N      G aug-cc-pVQZ          selected for orbital group  1
 Library entry C      S aug-cc-pVQZ          selected for orbital group  2
 Library entry C      P aug-cc-pVQZ          selected for orbital group  2
 Library entry C      D aug-cc-pVQZ          selected for orbital group  2
 Library entry C      F aug-cc-pVQZ          selected for orbital group  2
 Library entry C      G aug-cc-pVQZ          selected for orbital group  2
 Library entry H      S aug-cc-pVQZ          selected for orbital group  3
 Library entry H      P aug-cc-pVQZ          selected for orbital group  3
 Library entry H      D aug-cc-pVQZ          selected for orbital group  3
 Library entry H      F aug-cc-pVQZ          selected for orbital group  3


 PROGRAM * SEWARD (Integral evaluation for generally contracted gaussian basis sets)     Author: Roland Lindh, 1990

 Geometry written to block  1 of record 700


 Point group  C2v 



 ATOMIC COORDINATES

 NR  ATOM    CHARGE       X              Y              Z

   1  N       7.00    0.000000000    0.000000000    1.115252761
   2  C       6.00    0.000000000    0.000000000   -1.044699646
   3  H       1.00    0.000000000    0.000000000   -3.067623097

 Bond lengths in Bohr (Angstrom)

 1-2  2.159952407  2-3  2.022923451
     ( 1.142997591)     ( 1.070484990)

 Bond angles

  1-2-3  180.00000000

 NUCLEAR CHARGE:                   14
 NUMBER OF PRIMITIVE AOS:         293
 NUMBER OF SYMMETRY AOS:          234
 NUMBER OF CONTRACTIONS:          206   (  81A1  +  49B1  +  49B2  +  27A2  )
 NUMBER OF CORE ORBITALS:           2   (   2A1  +   0B1  +   0B2  +   0A2  )
 NUMBER OF VALENCE ORBITALS:        9   (   5A1  +   2B1  +   2B2  +   0A2  )


 NUCLEAR REPULSION ENERGY   24.08436714

 EXTRA SYMMETRY OF AOS IN SYMMETRY 1:   1 1 1 1 1 1 1 1 1 1   1 1 2 1 2 1 2 1 2 1   2 1 2 1 2 1 3 2 1 3   2 1 1 1 1 1 1 1 1 1
                                        1 1 1 2 1 2 1 2 1 2   1 2 1 2 1 2 1 3 2 1   3 2 1 1 1 1 1 1 1 1   1 1 2 1 2 1 2 1 2 1
                                        2
 EXTRA SYMMETRY OF AOS IN SYMMETRY 2:   1 1 1 1 1 1 1 1 1 1   2 1 2 1 2 1 2 1 2 1   1 1 1 1 1 1 1 1 1 2   1 2 1 2 1 2 1 2 1 1
                                        1 1 1 1 1 1 2 1 2
 EXTRA SYMMETRY OF AOS IN SYMMETRY 3:   1 1 1 1 1 1 1 1 1 1   2 1 2 1 2 1 2 1 2 1   1 1 1 1 1 1 1 1 1 2   1 2 1 2 1 2 1 2 1 1
                                        1 1 1 1 1 1 2 1 2
 EXTRA SYMMETRY OF AOS IN SYMMETRY 4:   1 1 1 1 1 1 1 1 2 1   2 1 1 1 1 1 1 1 1 2   1 2 1 1 1 1 1

 Eigenvalues of metric

         1 0.174E-04 0.387E-04 0.732E-04 0.276E-03 0.393E-03 0.428E-03 0.518E-03 0.812E-03
         2 0.391E-03 0.946E-03 0.292E-02 0.354E-02 0.471E-02 0.638E-02 0.869E-02 0.107E-01
         3 0.391E-03 0.946E-03 0.292E-02 0.354E-02 0.471E-02 0.638E-02 0.869E-02 0.107E-01
         4 0.443E-02 0.128E-01 0.310E-01 0.567E-01 0.876E-01 0.140E+00 0.196E+00 0.227E+00


 Contracted 2-electron integrals neglected if value below      1.0D-22

       51230366. INTEGRALS WRITTEN OUT IN   12511 BLOCKS ON RECORD 1290 OF FILE 1


 NUMBER OF SORTED TWO-ELECTRON INTEGRALS:   58298162.     BUFFER LENGTH:  32768
 NUMBER OF SEGMENTS:   4  SEGMENT LENGTH:   15999501      RECORD LENGTH: 524288

 Memory used in sort:      16.56 MW

 SORT1 READ    51230366. AND WROTE    51985884. INTEGRALS IN    150 RECORDS. CPU TIME:     1.31 SEC, REAL TIME:     1.64 SEC
 SORT2 READ    51985884. AND WROTE    58298162. INTEGRALS IN      4 RECORDS. CPU TIME:     0.82 SEC, REAL TIME:     1.09 SEC

 FILE SIZES:   FILE 1:   840.8 MBYTE,  FILE 4:   629.2 MBYTE,   TOTAL:   1470.0 MBYTE

 OPERATOR DM      FOR CENTER  0  COORDINATES:    0.000000    0.000000    0.000000


 **********************************************************************************************************************************
 DATASETS  * FILE   NREC   LENGTH (MB)   RECORD NAMES
              1      19      461.88       500      610      700      900      950      970     1000      129      960     1100   
                                          VAR    BASINP    GEOM    SYMINP    ZMAT    AOBASIS   BASIS     P2S    ABASIS      S 
                                         1400     1410     1200     1210     1080     1600     1650     1300     1700   
                                           T        V       H0       H01     AOSYM     SMH    MOLCAS    ERIS     OPER   

 PROGRAMS   *        TOTAL       INT
 CPU TIMES  *         8.79      8.70
 REAL TIME  *        10.78 SEC
 DISK USED  *         1.47 GB      
 **********************************************************************************************************************************


 PROGRAM * RHF-SCF (CLOSED SHELL)       Authors: W. Meyer, H.-J. Werner


 NUMBER OF ELECTRONS:       7+    7-
 CONVERGENCE THRESHOLDS:    1.00E-10 (Density)    1.00E-13 (Energy)
 MAX. NUMBER OF ITERATIONS:      500
 INTERPOLATION TYPE:            DIIS
 INTERPOLATION STEPS:              2 (START)      1 (STEP)
 LEVEL SHIFTS:                  0.00 (CLOSED)  0.00 (OPEN) 



 Orbital guess generated from atomic densities. Full valence occupancy:    7   2   2   0

 Molecular orbital dump at record        2100.2

 Initial occupancy:   5   1   1   0

 ITERATION    DDIFF          GRAD             ENERGY        2-EL.EN.            DIPOLE MOMENTS         DIIS   ORB.
    1      0.000D+00      0.000D+00       -92.89114321    112.364165    0.00000    0.00000   -1.78130    0    start
    2      0.000D+00      0.711D-02       -92.90061005    111.414892    0.00000    0.00000   -0.90997    1    diag
    3      0.720D-02      0.623D-02       -92.91552910    111.967529    0.00000    0.00000   -1.30813    2    diag
    4      0.353D-02      0.514D-03       -92.91575171    111.936938    0.00000    0.00000   -1.29679    3    diag
    5      0.620D-03      0.108D-03       -92.91576460    111.942925    0.00000    0.00000   -1.29531    4    diag
    6      0.151D-03      0.284D-04       -92.91576527    111.939105    0.00000    0.00000   -1.29548    5    diag
    7      0.303D-04      0.964D-05       -92.91576533    111.940339    0.00000    0.00000   -1.29551    6    diag
    8      0.972D-05      0.213D-05       -92.91576533    111.940265    0.00000    0.00000   -1.29548    7    diag
    9      0.213D-05      0.247D-06       -92.91576533    111.940274    0.00000    0.00000   -1.29547    8    diag
   10      0.317D-06      0.312D-07       -92.91576533    111.940275    0.00000    0.00000   -1.29547    9    orth
   11      0.356D-07      0.460D-08       -92.91576533    111.940275    0.00000    0.00000   -1.29547    9    diag
   12      0.574D-08      0.430D-09       -92.91576533    111.940275    0.00000    0.00000   -1.29547    9    diag
   13      0.108D-08      0.596D-10       -92.91576533    111.940275    0.00000    0.00000   -1.29547    9    diag
   14      0.944D-10      0.783D-11       -92.91576533    111.940275    0.00000    0.00000   -1.29547    9    diag
   15      0.226D-10      0.317D-11       -92.91576533    111.940275    0.00000    0.00000   -1.29547    9    diag
   16      0.130D-10      0.480D-12       -92.91576533    111.940275    0.00000    0.00000   -1.29547    0    orth

 Final occupancy:   5   1   1   0

 !RHF STATE 1.1 Energy                -92.915765332596
 Nuclear energy                        24.08436714
 One-electron energy                 -172.97027003
 Two-electron energy                   55.97013756
 Virial quotient                       -1.00154224
 !RHF STATE 1.1 Dipole moment           0.00000000     0.00000000    -1.29547181
 Dipole moment /Debye                   0.00000000     0.00000000    -3.29254524

 Orbital energies:

         1.1          2.1          3.1          4.1          5.1          6.1          7.1
    -15.594633   -11.287823    -1.241248    -0.809762    -0.581558     0.020559     0.062672

         1.2          2.2          3.2
     -0.499987     0.063579     0.120308

         1.3          2.3          3.3
     -0.499987     0.063579     0.120308

         1.4          2.4
      0.225752     0.394526

 HOMO      1.2    -0.499987 =     -13.6053eV
 LUMO      6.1     0.020559 =       0.5594eV
 LUMO-HOMO         0.520546 =      14.1648eV


 **********************************************************************************************************************************
 DATASETS  * FILE   NREC   LENGTH (MB)   RECORD NAMES
              1      19      461.88       500      610      700      900      950      970     1000      129      960     1100   
                                          VAR    BASINP    GEOM    SYMINP    ZMAT    AOBASIS   BASIS     P2S    ABASIS      S 
                                         1400     1410     1200     1210     1080     1600     1650     1300     1700   
                                           T        V       H0       H01     AOSYM     SMH    MOLCAS    ERIS     OPER   

              2       4        3.06       700     1000      520     2100   
                                         GEOM     BASIS   MCVARS     RHF  

 PROGRAMS   *        TOTAL        HF       INT
 CPU TIMES  *        11.76      2.97      8.70
 REAL TIME  *        14.54 SEC
 DISK USED  *         1.47 GB      
 **********************************************************************************************************************************


 PROGRAM * CCSD (Closed-shell coupled cluster)     Authors: C. Hampel, H.-J. Werner, 1991, M. Deegan, P.J. Knowles, 1992


 Convergence thresholds:  THRVAR = 1.00D-08  THRDEN = 1.00D-12

 CCSD(T)     terms to be evaluated (factor= 1.000)


 Number of core orbitals:           2 (   2   0   0   0 )
 Number of closed-shell orbitals:   5 (   3   1   1   0 )
 Number of external orbitals:     199 (  76  48  48  27 )

 Molecular orbitals read from record     2100.2  Type=RHF/CANONICAL (state 1.1)

 Number of N-1 electron functions:               5
 Number of N-2 electron functions:              15
 Number of singly external CSFs:               324
 Number of doubly external CSFs:            129659
 Total number of CSFs:                      129984

 Length of J-op  integral file:               0.00 MB
 Length of K-op  integral file:               0.86 MB
 Length of 3-ext integral record:             0.00 MB

 Memory could be reduced to 15.89 Mwords without degradation in triples

 Integral transformation finished. Total CPU:   0.50 sec, npass=  1  Memory used:   1.90 MW

 Reference energy:                    -92.91576533

 MP2 singlet pair energy:              -0.23699747
 MP2 triplet pair energy:              -0.13106577
 MP2 correlation energy:               -0.36806324
 MP2 total energy:                    -93.28382857

 SCS-MP2 correlation energy:           -0.36594900   (PS=  1.200000  PT=  0.333333)
 SCS-MP2 total energy:                -93.28171433

 ITER.      SQ.NORM     CORR.ENERGY   TOTAL ENERGY   ENERGY CHANGE        DEN1      VAR(S)    VAR(P)  DIIS     TIME  TIME/IT
   1      1.11451309    -0.36742214   -93.28318747     0.00064110     0.01337873  0.25D-02  0.30D-02  1  1     0.97     0.52
   2      1.12351468    -0.36771060   -93.28347593    -0.00028846    -0.00988730  0.59D-04  0.39D-03  2  2     1.45     0.53
   3      1.12838945    -0.36792683   -93.28369216    -0.00021623    -0.00254656  0.13D-04  0.41D-04  3  3     1.93     0.53
   4      1.13037253    -0.36799902   -93.28376436    -0.00007220    -0.00071061  0.58D-06  0.46D-05  4  4     2.39     0.53
   5      1.13087222    -0.36800240   -93.28376773    -0.00000337    -0.00014393  0.82D-07  0.40D-06  5  5     2.83     0.53
   6      1.13097647    -0.36800005   -93.28376538     0.00000235    -0.00002778  0.84D-08  0.32D-07  6  6     3.32     0.53
   7      1.13098385    -0.36800143   -93.28376677    -0.00000138    -0.00000100  0.84D-09  0.26D-08  6  1     3.79     0.53
   8      1.13098541    -0.36800187   -93.28376720    -0.00000043    -0.00000038  0.11D-09  0.23D-09  6  2     4.27     0.53
   9      1.13098561    -0.36800193   -93.28376726    -0.00000006    -0.00000010  0.10D-10  0.15D-10  6  3     4.74     0.54
  10      1.13098549    -0.36800197   -93.28376730    -0.00000004     0.00000011  0.12D-11  0.14D-11  6  4     5.22     0.54
  11      1.13098543    -0.36800198   -93.28376731    -0.00000001     0.00000003  0.15D-12  0.14D-12  6  5     5.68     0.54
  12      1.13098538    -0.36800198   -93.28376732    -0.00000000     0.00000002  0.16D-13  0.26D-13  6  6     6.15     0.54
  13      1.13098535    -0.36800199   -93.28376732    -0.00000000     0.00000001  0.18D-14  0.55D-14  6  1     6.63     0.54
  14      1.13098533    -0.36800199   -93.28376732    -0.00000000     0.00000000  0.88D-16  0.62D-15  6  3     7.11     0.54
  15      1.13098533    -0.36800199   -93.28376732    -0.00000000     0.00000000  0.13D-16  0.36D-16  6  2     7.59     0.54
  16      1.13098532    -0.36800199   -93.28376732     0.00000000     0.00000000  0.15D-17  0.40D-17  6  4     8.08     0.54
  17      1.13098532    -0.36800199   -93.28376732    -0.00000000     0.00000000  0.37D-18  0.54D-18  6  5     8.53     0.54
  18      1.13098532    -0.36800199   -93.28376732    -0.00000000     0.00000000  0.44D-19  0.44D-19  6  6     9.01     0.54
  19      1.13098532    -0.36800199   -93.28376732    -0.00000000     0.00000000  0.11D-19  0.97D-20  6  5     9.48     0.54

 Norm of t1 vector:      0.06303740      S-energy:    -0.00000000      T1 diagnostic:  0.01409559
                                                                       D1 diagnostic:  0.02821861


 Total CPU time for triples:      3.32 sec


 RESULTS
 =======

  Reference energy                    -92.915765332596
  CCSD singlet pair energy             -0.257732662205
  CCSD triplet pair energy             -0.110269324200
  CCSD correlation energy              -0.368001986407

  Triples (T) contribution             -0.019265070556
  Total correlation energy             -0.387267056963

  CCSD total energy                   -93.283767319003
  CCSD[T] energy                      -93.303827405341
  CCSD-T energy                       -93.302668444197
 !CCSD(T) total energy                -93.303032389559

 Timing summary (sec):

 STEP                 CPU(USER)    SYS     CPU(TOT)    WALL
 Transformation          0.51      0.10      0.61      0.67
 CCSD iterations         8.97      1.26     10.23     10.24
 Triples                 3.32      0.13      3.45      3.45

 Program statistics:

 Available memory in ccsd:               994999800
 Min. memory needed in ccsd:                524097
 Max. memory used in ccsd:                  626326
 Max. memory used in cckext:                818237 (19 integral passes)



 **********************************************************************************************************************************
 DATASETS  * FILE   NREC   LENGTH (MB)   RECORD NAMES
              1      20      504.87       500      610      700      900      950      970     1000      129      960     1100   
                                          VAR    BASINP    GEOM    SYMINP    ZMAT    AOBASIS   BASIS     P2S    ABASIS      S 
                                         1400     1410     1200     1210     1080     1600     1650     1300     1700     1380   
                                           T        V       H0       H01     AOSYM     SMH    MOLCAS    ERIS     OPER     JKOP   

              2       4        3.06       700     1000      520     2100   
                                         GEOM     BASIS   MCVARS     RHF  

 PROGRAMS   *        TOTAL   CCSD(T)        HF       INT
 CPU TIMES  *        24.61     12.85      2.97      8.70
 REAL TIME  *        30.26 SEC
 DISK USED  *         1.47 GB      
 **********************************************************************************************************************************

 CCSD(T)/aug-cc-pVQZ energy=    -93.303032389559

        CCSD(T)         HF-SCF  
    -93.30303239    -92.91576533
 **********************************************************************************************************************************
 Molpro calculation terminated
 Variable memory released
