
 Primary working directories    : /tmp/r2666/232496.maple
 Secondary working directories  : /tmp/r2666/232496.maple
 Wavefunction directory         : /ddn/home4/r2666/wfu/
 Main file repository           : /tmp/r2666/232496.maple/

 SHA1      : d5ffa45e93fdbca01ffc919aa182cfdae0147319
 NAME      : 2015.1.35
 ARCHNAME  : linux/x86_64
 FC        : /opt/intel/composer_xe_2015.1.133/bin/intel64/ifort
 BLASLIB   : -Wl,-_start-group /opt/intel/mkl/lib/intel64/libmkl_intel_ilp64.a /opt/intel/mkl/lib/intel64/libmkl_intel_thread.a /opt/intel/mkl/lib/intel64/libmkl_core.a -Wl,-_end-group
 id        : olemiss

 Nodes     nprocs
 cn078        1

 Using customized tuning parameters: mindgm=1; mindgv=20; mindgc=4; mindgr=1; noblas=0; minvec=7
 default implementation of scratch files=df  

 ***,hcn CCSD(T)/TZ-F12 QFF
 memory, 995, m;
 gthresh,energy=1.d-12,zero=1.d-22,oneint=1.d-22,twoint=1.d-22;
 gthresh,optgrad=1.d-8,optstep=1.d-8;
 nocompress;
 geomtyp=xyz
 bohr
 geometry={
 3
         50        50
 N        0.0000000000        0.0000000000        1.1404491076
 C        0.0000000000        0.0000000000       -1.0572978193
 H        0.0000000000        0.0000000000       -3.0802212703
 }
 
 basis=avqz
   {hf,maxit=500;accu,20;}
 {ccsd(t),nocheck,maxit=250;orbital,IGNORE_ERROR;}

 Variables initialized (889), CPU time= 0.00 sec
 Commands  initialized (702), CPU time= 0.01 sec, 572 directives.
 Default parameters read. Elapsed time= 0.04 sec

 Checking input...
 Passed
1


                                         ***  PROGRAM SYSTEM MOLPRO  ***
                                       Copyright, TTI GmbH Stuttgart, 2015
                                    Version 2015.1 linked Jul  9 2018 13:16:40


 **********************************************************************************************************************************
 LABEL *   hcn CCSD(T)/TZ-F12 QFF                                                        
  64 bit serial version                                                                  DATE: 06-Feb-20          TIME: 09:53:54  
 **********************************************************************************************************************************

 SHA1:             d5ffa45e93fdbca01ffc919aa182cfdae0147319
 **********************************************************************************************************************************

 THRESHOLDS:

 ZERO    =  1.00D-22  ONEINT  =  1.00D-22  TWOINT  =  1.00D-22  PREFAC  =  1.00D-14  LOCALI  =  1.00D-09  EORDER  =  1.00D-04
 ENERGY  =  1.00D-12  ETEST   =  0.00D+00  EDENS   =  0.00D+00  THRDEDEF=  1.00D-06  GRADIENT=  1.00D-02  STEP    =  1.00D-03
 ORBITAL =  1.00D-05  CIVEC   =  1.00D-05  COEFF   =  1.00D-04  PRINTCI =  5.00D-02  PUNCHCI =  9.90D+01  OPTGRAD =  3.00D-04
 OPTENERG=  1.00D-06  OPTSTEP =  3.00D-04  THRGRAD =  1.00D-10  COMPRESS=  1.00D-11  VARMIN  =  1.00D-07  VARMAX  =  1.00D-03
 THRDOUB =  0.00D+00  THRDIV  =  1.00D-05  THRRED  =  1.00D-07  THRPSP  =  1.00D+00  THRDC   =  1.00D-10  THRCS   =  1.00D-10
 THRNRM  =  1.00D-08  THREQ   =  0.00D+00  THRDE   =  1.00D+00  THRREF  =  1.00D-05  SPARFAC =  1.00D+00  THRDLP  =  1.00D-07
 THRDIA  =  1.00D-10  THRDLS  =  1.00D-07  THRGPS  =  0.00D+00  THRKEX  =  0.00D+00  THRDIS  =  2.00D-01  THRVAR  =  1.00D-10
 THRLOC  =  1.00D-06  THRGAP  =  1.00D-06  THRLOCT = -1.00D+00  THRGAPT = -1.00D+00  THRORB  =  1.00D-06  THRMLTP =  0.00D+00
 THRCPQCI=  1.00D-10  KEXTA   =  0.00D+00  THRCOARS=  0.00D+00  SYMTOL  =  1.00D-06  GRADTOL =  1.00D-06  THROVL  =  1.00D-08
 THRORTH =  1.00D-08  GRID    =  1.00D-06  GRIDMAX =  1.00D-03  DTMAX   =  0.00D+00  THROCCDE=  1.00D-01  THROCCDE=  1.00D-01



 THRESHOLDS:

 ZERO    =  1.00D-22  ONEINT  =  1.00D-22  TWOINT  =  1.00D-22  PREFAC  =  1.00D-14  LOCALI  =  1.00D-09  EORDER  =  1.00D-04
 ENERGY  =  1.00D-12  ETEST   =  0.00D+00  EDENS   =  0.00D+00  THRDEDEF=  1.00D-06  GRADIENT=  1.00D-02  STEP    =  1.00D-03
 ORBITAL =  1.00D-05  CIVEC   =  1.00D-05  COEFF   =  1.00D-04  PRINTCI =  5.00D-02  PUNCHCI =  9.90D+01  OPTGRAD =  1.00D-08
 OPTENERG=  1.00D-06  OPTSTEP =  1.00D-08  THRGRAD =  1.00D-10  COMPRESS=  1.00D-11  VARMIN  =  1.00D-07  VARMAX  =  1.00D-03
 THRDOUB =  0.00D+00  THRDIV  =  1.00D-05  THRRED  =  1.00D-07  THRPSP  =  1.00D+00  THRDC   =  1.00D-10  THRCS   =  1.00D-10
 THRNRM  =  1.00D-08  THREQ   =  0.00D+00  THRDE   =  1.00D+00  THRREF  =  1.00D-05  SPARFAC =  1.00D+00  THRDLP  =  1.00D-07
 THRDIA  =  1.00D-10  THRDLS  =  1.00D-07  THRGPS  =  0.00D+00  THRKEX  =  0.00D+00  THRDIS  =  2.00D-01  THRVAR  =  1.00D-10
 THRLOC  =  1.00D-06  THRGAP  =  1.00D-06  THRLOCT = -1.00D+00  THRGAPT = -1.00D+00  THRORB  =  1.00D-06  THRMLTP =  0.00D+00
 THRCPQCI=  1.00D-10  KEXTA   =  0.00D+00  THRCOARS=  0.00D+00  SYMTOL  =  1.00D-06  GRADTOL =  1.00D-06  THROVL  =  1.00D-08
 THRORTH =  1.00D-08  GRID    =  1.00D-06  GRIDMAX =  1.00D-03  DTMAX   =  0.00D+00  THROCCDE=  1.00D-01  THROCCDE=  1.00D-01



 Input parameters for SORTINT:

 COMPRESS =    0.000000
 C_FINAL  =    1.000000
 DEBUG    =   -1.000000
 C_SORT1  =    0.000000
 C_SEWARD =    0.000000
 THRESH   =    0.000000
 IO       =  molpro                                                          
 SPRI     =    0.000000
 SETTING GEOMTYP        =    XYZ
 ZUNIT=BOHR
 

 Variable memory set to  995000000 words,  buffer space   230000 words

 SETTING BASIS          =    AVQZ


 Recomputing integrals since basis changed


 Using spherical harmonics

 Library entry N      S aug-cc-pVQZ          selected for orbital group  1
 Library entry N      P aug-cc-pVQZ          selected for orbital group  1
 Library entry N      D aug-cc-pVQZ          selected for orbital group  1
 Library entry N      F aug-cc-pVQZ          selected for orbital group  1
 Library entry N      G aug-cc-pVQZ          selected for orbital group  1
 Library entry C      S aug-cc-pVQZ          selected for orbital group  2
 Library entry C      P aug-cc-pVQZ          selected for orbital group  2
 Library entry C      D aug-cc-pVQZ          selected for orbital group  2
 Library entry C      F aug-cc-pVQZ          selected for orbital group  2
 Library entry C      G aug-cc-pVQZ          selected for orbital group  2
 Library entry H      S aug-cc-pVQZ          selected for orbital group  3
 Library entry H      P aug-cc-pVQZ          selected for orbital group  3
 Library entry H      D aug-cc-pVQZ          selected for orbital group  3
 Library entry H      F aug-cc-pVQZ          selected for orbital group  3


 PROGRAM * SEWARD (Integral evaluation for generally contracted gaussian basis sets)     Author: Roland Lindh, 1990

 Geometry written to block  1 of record 700


 Point group  C2v 



 ATOMIC COORDINATES

 NR  ATOM    CHARGE       X              Y              Z

   1  N       7.00    0.000000000    0.000000000    1.140449108
   2  C       6.00    0.000000000    0.000000000   -1.057297819
   3  H       1.00    0.000000000    0.000000000   -3.080221270

 Bond lengths in Bohr (Angstrom)

 1-2  2.197746927  2-3  2.022923451
     ( 1.162997589)     ( 1.070484990)

 Bond angles

  1-2-3  180.00000000

 NUCLEAR CHARGE:                   14
 NUMBER OF PRIMITIVE AOS:         293
 NUMBER OF SYMMETRY AOS:          234
 NUMBER OF CONTRACTIONS:          206   (  81A1  +  49B1  +  49B2  +  27A2  )
 NUMBER OF CORE ORBITALS:           2   (   2A1  +   0B1  +   0B2  +   0A2  )
 NUMBER OF VALENCE ORBITALS:        9   (   5A1  +   2B1  +   2B2  +   0A2  )


 NUCLEAR REPULSION ENERGY   23.73498937

 EXTRA SYMMETRY OF AOS IN SYMMETRY 1:   1 1 1 1 1 1 1 1 1 1   1 1 2 1 2 1 2 1 2 1   2 1 2 1 2 1 3 2 1 3   2 1 1 1 1 1 1 1 1 1
                                        1 1 1 2 1 2 1 2 1 2   1 2 1 2 1 2 1 3 2 1   3 2 1 1 1 1 1 1 1 1   1 1 2 1 2 1 2 1 2 1
                                        2
 EXTRA SYMMETRY OF AOS IN SYMMETRY 2:   1 1 1 1 1 1 1 1 1 1   2 1 2 1 2 1 2 1 2 1   1 1 1 1 1 1 1 1 1 2   1 2 1 2 1 2 1 2 1 1
                                        1 1 1 1 1 1 2 1 2
 EXTRA SYMMETRY OF AOS IN SYMMETRY 3:   1 1 1 1 1 1 1 1 1 1   2 1 2 1 2 1 2 1 2 1   1 1 1 1 1 1 1 1 1 2   1 2 1 2 1 2 1 2 1 1
                                        1 1 1 1 1 1 2 1 2
 EXTRA SYMMETRY OF AOS IN SYMMETRY 4:   1 1 1 1 1 1 1 1 2 1   2 1 1 1 1 1 1 1 1 2   1 2 1 1 1 1 1

 Eigenvalues of metric

         1 0.178E-04 0.397E-04 0.747E-04 0.282E-03 0.404E-03 0.444E-03 0.532E-03 0.819E-03
         2 0.409E-03 0.961E-03 0.310E-02 0.362E-02 0.489E-02 0.653E-02 0.875E-02 0.107E-01
         3 0.409E-03 0.961E-03 0.310E-02 0.362E-02 0.489E-02 0.653E-02 0.875E-02 0.107E-01
         4 0.472E-02 0.128E-01 0.328E-01 0.580E-01 0.903E-01 0.143E+00 0.199E+00 0.231E+00


 Contracted 2-electron integrals neglected if value below      1.0D-22

       51219917. INTEGRALS WRITTEN OUT IN   12508 BLOCKS ON RECORD 1290 OF FILE 1


 NUMBER OF SORTED TWO-ELECTRON INTEGRALS:   58298162.     BUFFER LENGTH:  32768
 NUMBER OF SEGMENTS:   4  SEGMENT LENGTH:   15999501      RECORD LENGTH: 524288

 Memory used in sort:      16.56 MW

 SORT1 READ    51219917. AND WROTE    51975161. INTEGRALS IN    150 RECORDS. CPU TIME:     1.26 SEC, REAL TIME:     1.65 SEC
 SORT2 READ    51975161. AND WROTE    58298162. INTEGRALS IN      4 RECORDS. CPU TIME:     0.81 SEC, REAL TIME:     1.05 SEC

 FILE SIZES:   FILE 1:   840.6 MBYTE,  FILE 4:   629.2 MBYTE,   TOTAL:   1469.8 MBYTE

 OPERATOR DM      FOR CENTER  0  COORDINATES:    0.000000    0.000000    0.000000


 **********************************************************************************************************************************
 DATASETS  * FILE   NREC   LENGTH (MB)   RECORD NAMES
              1      19      461.84       500      610      700      900      950      970     1000      129      960     1100   
                                          VAR    BASINP    GEOM    SYMINP    ZMAT    AOBASIS   BASIS     P2S    ABASIS      S 
                                         1400     1410     1200     1210     1080     1600     1650     1300     1700   
                                           T        V       H0       H01     AOSYM     SMH    MOLCAS    ERIS     OPER   

 PROGRAMS   *        TOTAL       INT
 CPU TIMES  *         8.69      8.60
 REAL TIME  *        10.23 SEC
 DISK USED  *         1.47 GB      
 **********************************************************************************************************************************


 PROGRAM * RHF-SCF (CLOSED SHELL)       Authors: W. Meyer, H.-J. Werner


 NUMBER OF ELECTRONS:       7+    7-
 CONVERGENCE THRESHOLDS:    1.00E-10 (Density)    1.00E-13 (Energy)
 MAX. NUMBER OF ITERATIONS:      500
 INTERPOLATION TYPE:            DIIS
 INTERPOLATION STEPS:              2 (START)      1 (STEP)
 LEVEL SHIFTS:                  0.00 (CLOSED)  0.00 (OPEN) 



 Orbital guess generated from atomic densities. Full valence occupancy:    7   2   2   0

 Molecular orbital dump at record        2100.2

 Initial occupancy:   5   1   1   0

 ITERATION    DDIFF          GRAD             ENERGY        2-EL.EN.            DIPOLE MOMENTS         DIIS   ORB.
    1      0.000D+00      0.000D+00       -92.88812132    111.567747    0.00000    0.00000   -1.79681    0    start
    2      0.000D+00      0.705D-02       -92.89669372    110.745014    0.00000    0.00000   -0.89056    1    diag
    3      0.722D-02      0.638D-02       -92.91254512    111.282064    0.00000    0.00000   -1.31315    2    diag
    4      0.359D-02      0.527D-03       -92.91277935    111.238341    0.00000    0.00000   -1.30190    3    diag
    5      0.638D-03      0.118D-03       -92.91279341    111.250796    0.00000    0.00000   -1.30047    4    diag
    6      0.154D-03      0.326D-04       -92.91279438    111.245179    0.00000    0.00000   -1.30041    5    diag
    7      0.369D-04      0.117D-04       -92.91279447    111.246328    0.00000    0.00000   -1.30049    6    diag
    8      0.120D-04      0.246D-05       -92.91279447    111.246283    0.00000    0.00000   -1.30046    7    diag
    9      0.256D-05      0.281D-06       -92.91279447    111.246293    0.00000    0.00000   -1.30045    8    diag
   10      0.363D-06      0.336D-07       -92.91279447    111.246293    0.00000    0.00000   -1.30045    9    orth
   11      0.390D-07      0.465D-08       -92.91279447    111.246293    0.00000    0.00000   -1.30045    9    diag
   12      0.602D-08      0.442D-09       -92.91279447    111.246293    0.00000    0.00000   -1.30045    9    diag
   13      0.112D-08      0.534D-10       -92.91279447    111.246293    0.00000    0.00000   -1.30045    9    diag
   14      0.875D-10      0.598D-11       -92.91279447    111.246293    0.00000    0.00000   -1.30045    9    diag
   15      0.209D-10      0.209D-11       -92.91279447    111.246293    0.00000    0.00000   -1.30045    9    diag
   16      0.107D-10      0.467D-12       -92.91279447    111.246293    0.00000    0.00000   -1.30045    0    orth

 Final occupancy:   5   1   1   0

 !RHF STATE 1.1 Energy                -92.912794474921
 Nuclear energy                        23.73498937
 One-electron energy                 -172.27093055
 Two-electron energy                   55.62314670
 Virial quotient                       -1.00271062
 !RHF STATE 1.1 Dipole moment           0.00000000     0.00000000    -1.30045307
 Dipole moment /Debye                   0.00000000     0.00000000    -3.30520552

 Orbital energies:

         1.1          2.1          3.1          4.1          5.1          6.1          7.1
    -15.601884   -11.295192    -1.231888    -0.812792    -0.582627     0.020467     0.062566

         1.2          2.2          3.2
     -0.493968     0.063585     0.119094

         1.3          2.3          3.3
     -0.493968     0.063585     0.119094

         1.4          2.4
      0.226011     0.394923

 HOMO      1.2    -0.493968 =     -13.4416eV
 LUMO      6.1     0.020467 =       0.5569eV
 LUMO-HOMO         0.514435 =      13.9985eV


 **********************************************************************************************************************************
 DATASETS  * FILE   NREC   LENGTH (MB)   RECORD NAMES
              1      19      461.84       500      610      700      900      950      970     1000      129      960     1100   
                                          VAR    BASINP    GEOM    SYMINP    ZMAT    AOBASIS   BASIS     P2S    ABASIS      S 
                                         1400     1410     1200     1210     1080     1600     1650     1300     1700   
                                           T        V       H0       H01     AOSYM     SMH    MOLCAS    ERIS     OPER   

              2       4        3.06       700     1000      520     2100   
                                         GEOM     BASIS   MCVARS     RHF  

 PROGRAMS   *        TOTAL        HF       INT
 CPU TIMES  *        11.57      2.89      8.60
 REAL TIME  *        13.99 SEC
 DISK USED  *         1.47 GB      
 **********************************************************************************************************************************


 PROGRAM * CCSD (Closed-shell coupled cluster)     Authors: C. Hampel, H.-J. Werner, 1991, M. Deegan, P.J. Knowles, 1992


 Convergence thresholds:  THRVAR = 1.00D-08  THRDEN = 1.00D-12

 CCSD(T)     terms to be evaluated (factor= 1.000)


 Number of core orbitals:           2 (   2   0   0   0 )
 Number of closed-shell orbitals:   5 (   3   1   1   0 )
 Number of external orbitals:     199 (  76  48  48  27 )

 Molecular orbitals read from record     2100.2  Type=RHF/CANONICAL (state 1.1)

 Number of N-1 electron functions:               5
 Number of N-2 electron functions:              15
 Number of singly external CSFs:               324
 Number of doubly external CSFs:            129659
 Total number of CSFs:                      129984

 Length of J-op  integral file:               0.00 MB
 Length of K-op  integral file:               0.86 MB
 Length of 3-ext integral record:             0.00 MB

 Memory could be reduced to 15.89 Mwords without degradation in triples

 Integral transformation finished. Total CPU:   0.47 sec, npass=  1  Memory used:   1.90 MW

 Reference energy:                    -92.91279447

 MP2 singlet pair energy:              -0.23914451
 MP2 triplet pair energy:              -0.13279095
 MP2 correlation energy:               -0.37193546
 MP2 total energy:                    -93.28472994

 SCS-MP2 correlation energy:           -0.36959889   (PS=  1.200000  PT=  0.333333)
 SCS-MP2 total energy:                -93.28239336

 ITER.      SQ.NORM     CORR.ENERGY   TOTAL ENERGY   ENERGY CHANGE        DEN1      VAR(S)    VAR(P)  DIIS     TIME  TIME/IT
   1      1.11697606    -0.37021132   -93.28300580     0.00172414     0.01529721  0.27D-02  0.33D-02  1  1     0.97     0.52
   2      1.12647516    -0.37033358   -93.28312805    -0.00012226    -0.01037570  0.66D-04  0.42D-03  2  2     1.43     0.53
   3      1.13171470    -0.37056909   -93.28336356    -0.00023551    -0.00267706  0.15D-04  0.47D-04  3  3     1.86     0.53
   4      1.13391537    -0.37065215   -93.28344663    -0.00008307    -0.00076923  0.62D-06  0.54D-05  4  4     2.32     0.54
   5      1.13448726    -0.37065643   -93.28345091    -0.00000428    -0.00016162  0.83D-07  0.49D-06  5  5     2.79     0.54
   6      1.13461178    -0.37065360   -93.28344807     0.00000283    -0.00003275  0.11D-07  0.39D-07  6  6     3.27     0.53
   7      1.13462037    -0.37065538   -93.28344985    -0.00000178    -0.00000103  0.95D-09  0.33D-08  6  1     3.70     0.53
   8      1.13462226    -0.37065590   -93.28345037    -0.00000052    -0.00000051  0.11D-09  0.29D-09  6  2     4.16     0.53
   9      1.13462244    -0.37065597   -93.28345044    -0.00000007    -0.00000010  0.13D-10  0.19D-10  6  3     4.60     0.53
  10      1.13462228    -0.37065602   -93.28345049    -0.00000005     0.00000012  0.12D-11  0.18D-11  6  4     5.07     0.53
  11      1.13462221    -0.37065603   -93.28345051    -0.00000002     0.00000003  0.21D-12  0.15D-12  6  5     5.53     0.53
  12      1.13462214    -0.37065604   -93.28345051    -0.00000001     0.00000003  0.31D-13  0.26D-13  6  6     5.97     0.53
  13      1.13462210    -0.37065604   -93.28345051    -0.00000000     0.00000001  0.32D-14  0.65D-14  6  1     6.43     0.53
  14      1.13462208    -0.37065604   -93.28345051    -0.00000000     0.00000001  0.48D-15  0.62D-15  6  3     6.90     0.53
  15      1.13462208    -0.37065604   -93.28345051    -0.00000000     0.00000000  0.16D-16  0.45D-16  6  2     7.38     0.53
  16      1.13462207    -0.37065604   -93.28345051     0.00000000     0.00000000  0.33D-17  0.48D-17  6  4     7.86     0.53
  17      1.13462207    -0.37065604   -93.28345051    -0.00000000     0.00000000  0.65D-18  0.69D-18  6  5     8.33     0.53
  18      1.13462207    -0.37065604   -93.28345051    -0.00000000     0.00000000  0.61D-19  0.64D-19  6  6     8.79     0.53
  19      1.13462207    -0.37065604   -93.28345051    -0.00000000    -0.00000000  0.11D-19  0.77D-20  6  1     9.24     0.53
  20      1.13462207    -0.37065604   -93.28345051     0.00000000    -0.00000000  0.31D-20  0.21D-20  6  3     9.68     0.53

 Norm of t1 vector:      0.06577667      S-energy:    -0.00000000      T1 diagnostic:  0.01470811
                                                                       D1 diagnostic:  0.02958913

 Doubles amplitudes (print threshold =  0.500E-01):

         I         J         SYM. A    SYM. B    A         B      T(IJ, AB)

         4         4         2         2         3         3     -0.05151875
         5         5         3         3         3         3     -0.05151875


 Total CPU time for triples:      2.95 sec


 RESULTS
 =======

  Reference energy                    -92.912794474921
  CCSD singlet pair energy             -0.259940219327
  CCSD triplet pair energy             -0.110715820003
  CCSD correlation energy              -0.370656039330

  Triples (T) contribution             -0.019916651968
  Total correlation energy             -0.390572691298

  CCSD total energy                   -93.283450514251
  CCSD[T] energy                      -93.304239993295
  CCSD-T energy                       -93.302971704100
 !CCSD(T) total energy                -93.303367166219

 Timing summary (sec):

 STEP                 CPU(USER)    SYS     CPU(TOT)    WALL
 Transformation          0.48      0.12      0.60      0.70
 CCSD iterations         9.22      1.44     10.66     10.65
 Triples                 2.95      0.12      3.07      3.07

 Program statistics:

 Available memory in ccsd:               994999800
 Min. memory needed in ccsd:                524097
 Max. memory used in ccsd:                  626326
 Max. memory used in cckext:                818237 (20 integral passes)



 **********************************************************************************************************************************
 DATASETS  * FILE   NREC   LENGTH (MB)   RECORD NAMES
              1      20      504.82       500      610      700      900      950      970     1000      129      960     1100   
                                          VAR    BASINP    GEOM    SYMINP    ZMAT    AOBASIS   BASIS     P2S    ABASIS      S 
                                         1400     1410     1200     1210     1080     1600     1650     1300     1700     1380   
                                           T        V       H0       H01     AOSYM     SMH    MOLCAS    ERIS     OPER     JKOP   

              2       4        3.06       700     1000      520     2100   
                                         GEOM     BASIS   MCVARS     RHF  

 PROGRAMS   *        TOTAL   CCSD(T)        HF       INT
 CPU TIMES  *        24.26     12.68      2.89      8.60
 REAL TIME  *        28.47 SEC
 DISK USED  *         1.47 GB      
 **********************************************************************************************************************************

 CCSD(T)/aug-cc-pVQZ energy=    -93.303367166219

        CCSD(T)         HF-SCF  
    -93.30336717    -92.91279447
 **********************************************************************************************************************************
 Molpro calculation terminated
 Variable memory released
