
 Primary working directories    : /tmp/r2666/232490.maple
 Secondary working directories  : /tmp/r2666/232490.maple
 Wavefunction directory         : /ddn/home4/r2666/wfu/
 Main file repository           : /tmp/r2666/232490.maple/

 SHA1      : d5ffa45e93fdbca01ffc919aa182cfdae0147319
 NAME      : 2015.1.35
 ARCHNAME  : linux/x86_64
 FC        : /opt/intel/composer_xe_2015.1.133/bin/intel64/ifort
 BLASLIB   : -Wl,-_start-group /opt/intel/mkl/lib/intel64/libmkl_intel_ilp64.a /opt/intel/mkl/lib/intel64/libmkl_intel_thread.a /opt/intel/mkl/lib/intel64/libmkl_core.a -Wl,-_end-group
 id        : olemiss

 Nodes     nprocs
 cn078        1

 Using customized tuning parameters: mindgm=1; mindgv=20; mindgc=4; mindgr=1; noblas=0; minvec=7
 default implementation of scratch files=df  

 ***,hcn CCSD(T)/TZ-F12 QFF
 memory, 995, m;
 gthresh,energy=1.d-12,zero=1.d-22,oneint=1.d-22,twoint=1.d-22;
 gthresh,optgrad=1.d-8,optstep=1.d-8;
 nocompress;
 geomtyp=xyz
 bohr
 geometry={
 3
         44        44
 N        0.0000000000        0.0000000000        1.1372995643
 C        0.0000000000        0.0000000000       -1.0509987327
 H        0.0000000000        0.0000000000       -3.0833708136
 }
 
 basis=avqz
   {hf,maxit=500;accu,20;}
 {ccsd(t),nocheck,maxit=250;orbital,IGNORE_ERROR;}

 Variables initialized (889), CPU time= 0.01 sec
 Commands  initialized (702), CPU time= 0.01 sec, 572 directives.
 Default parameters read. Elapsed time= 0.04 sec

 Checking input...
 Passed
1


                                         ***  PROGRAM SYSTEM MOLPRO  ***
                                       Copyright, TTI GmbH Stuttgart, 2015
                                    Version 2015.1 linked Jul  9 2018 13:16:40


 **********************************************************************************************************************************
 LABEL *   hcn CCSD(T)/TZ-F12 QFF                                                        
  64 bit serial version                                                                  DATE: 06-Feb-20          TIME: 09:53:42  
 **********************************************************************************************************************************

 SHA1:             d5ffa45e93fdbca01ffc919aa182cfdae0147319
 **********************************************************************************************************************************

 THRESHOLDS:

 ZERO    =  1.00D-22  ONEINT  =  1.00D-22  TWOINT  =  1.00D-22  PREFAC  =  1.00D-14  LOCALI  =  1.00D-09  EORDER  =  1.00D-04
 ENERGY  =  1.00D-12  ETEST   =  0.00D+00  EDENS   =  0.00D+00  THRDEDEF=  1.00D-06  GRADIENT=  1.00D-02  STEP    =  1.00D-03
 ORBITAL =  1.00D-05  CIVEC   =  1.00D-05  COEFF   =  1.00D-04  PRINTCI =  5.00D-02  PUNCHCI =  9.90D+01  OPTGRAD =  3.00D-04
 OPTENERG=  1.00D-06  OPTSTEP =  3.00D-04  THRGRAD =  1.00D-10  COMPRESS=  1.00D-11  VARMIN  =  1.00D-07  VARMAX  =  1.00D-03
 THRDOUB =  0.00D+00  THRDIV  =  1.00D-05  THRRED  =  1.00D-07  THRPSP  =  1.00D+00  THRDC   =  1.00D-10  THRCS   =  1.00D-10
 THRNRM  =  1.00D-08  THREQ   =  0.00D+00  THRDE   =  1.00D+00  THRREF  =  1.00D-05  SPARFAC =  1.00D+00  THRDLP  =  1.00D-07
 THRDIA  =  1.00D-10  THRDLS  =  1.00D-07  THRGPS  =  0.00D+00  THRKEX  =  0.00D+00  THRDIS  =  2.00D-01  THRVAR  =  1.00D-10
 THRLOC  =  1.00D-06  THRGAP  =  1.00D-06  THRLOCT = -1.00D+00  THRGAPT = -1.00D+00  THRORB  =  1.00D-06  THRMLTP =  0.00D+00
 THRCPQCI=  1.00D-10  KEXTA   =  0.00D+00  THRCOARS=  0.00D+00  SYMTOL  =  1.00D-06  GRADTOL =  1.00D-06  THROVL  =  1.00D-08
 THRORTH =  1.00D-08  GRID    =  1.00D-06  GRIDMAX =  1.00D-03  DTMAX   =  0.00D+00  THROCCDE=  1.00D-01  THROCCDE=  1.00D-01



 THRESHOLDS:

 ZERO    =  1.00D-22  ONEINT  =  1.00D-22  TWOINT  =  1.00D-22  PREFAC  =  1.00D-14  LOCALI  =  1.00D-09  EORDER  =  1.00D-04
 ENERGY  =  1.00D-12  ETEST   =  0.00D+00  EDENS   =  0.00D+00  THRDEDEF=  1.00D-06  GRADIENT=  1.00D-02  STEP    =  1.00D-03
 ORBITAL =  1.00D-05  CIVEC   =  1.00D-05  COEFF   =  1.00D-04  PRINTCI =  5.00D-02  PUNCHCI =  9.90D+01  OPTGRAD =  1.00D-08
 OPTENERG=  1.00D-06  OPTSTEP =  1.00D-08  THRGRAD =  1.00D-10  COMPRESS=  1.00D-11  VARMIN  =  1.00D-07  VARMAX  =  1.00D-03
 THRDOUB =  0.00D+00  THRDIV  =  1.00D-05  THRRED  =  1.00D-07  THRPSP  =  1.00D+00  THRDC   =  1.00D-10  THRCS   =  1.00D-10
 THRNRM  =  1.00D-08  THREQ   =  0.00D+00  THRDE   =  1.00D+00  THRREF  =  1.00D-05  SPARFAC =  1.00D+00  THRDLP  =  1.00D-07
 THRDIA  =  1.00D-10  THRDLS  =  1.00D-07  THRGPS  =  0.00D+00  THRKEX  =  0.00D+00  THRDIS  =  2.00D-01  THRVAR  =  1.00D-10
 THRLOC  =  1.00D-06  THRGAP  =  1.00D-06  THRLOCT = -1.00D+00  THRGAPT = -1.00D+00  THRORB  =  1.00D-06  THRMLTP =  0.00D+00
 THRCPQCI=  1.00D-10  KEXTA   =  0.00D+00  THRCOARS=  0.00D+00  SYMTOL  =  1.00D-06  GRADTOL =  1.00D-06  THROVL  =  1.00D-08
 THRORTH =  1.00D-08  GRID    =  1.00D-06  GRIDMAX =  1.00D-03  DTMAX   =  0.00D+00  THROCCDE=  1.00D-01  THROCCDE=  1.00D-01



 Input parameters for SORTINT:

 COMPRESS =    0.000000
 C_FINAL  =    1.000000
 DEBUG    =   -1.000000
 C_SORT1  =    0.000000
 C_SEWARD =    0.000000
 THRESH   =    0.000000
 IO       =  molpro                                                          
 SPRI     =    0.000000
 SETTING GEOMTYP        =    XYZ
 ZUNIT=BOHR
 

 Variable memory set to  995000000 words,  buffer space   230000 words

 SETTING BASIS          =    AVQZ


 Recomputing integrals since basis changed


 Using spherical harmonics

 Library entry N      S aug-cc-pVQZ          selected for orbital group  1
 Library entry N      P aug-cc-pVQZ          selected for orbital group  1
 Library entry N      D aug-cc-pVQZ          selected for orbital group  1
 Library entry N      F aug-cc-pVQZ          selected for orbital group  1
 Library entry N      G aug-cc-pVQZ          selected for orbital group  1
 Library entry C      S aug-cc-pVQZ          selected for orbital group  2
 Library entry C      P aug-cc-pVQZ          selected for orbital group  2
 Library entry C      D aug-cc-pVQZ          selected for orbital group  2
 Library entry C      F aug-cc-pVQZ          selected for orbital group  2
 Library entry C      G aug-cc-pVQZ          selected for orbital group  2
 Library entry H      S aug-cc-pVQZ          selected for orbital group  3
 Library entry H      P aug-cc-pVQZ          selected for orbital group  3
 Library entry H      D aug-cc-pVQZ          selected for orbital group  3
 Library entry H      F aug-cc-pVQZ          selected for orbital group  3


 PROGRAM * SEWARD (Integral evaluation for generally contracted gaussian basis sets)     Author: Roland Lindh, 1990

 Geometry written to block  1 of record 700


 Point group  C2v 



 ATOMIC COORDINATES

 NR  ATOM    CHARGE       X              Y              Z

   1  N       7.00    0.000000000    0.000000000    1.137299564
   2  C       6.00    0.000000000    0.000000000   -1.050998733
   3  H       1.00    0.000000000    0.000000000   -3.083370814

 Bond lengths in Bohr (Angstrom)

 1-2  2.188298297  2-3  2.032372081
     ( 1.157997589)     ( 1.075484989)

 Bond angles

  1-2-3  180.00000000

 NUCLEAR CHARGE:                   14
 NUMBER OF PRIMITIVE AOS:         293
 NUMBER OF SYMMETRY AOS:          234
 NUMBER OF CONTRACTIONS:          206   (  81A1  +  49B1  +  49B2  +  27A2  )
 NUMBER OF CORE ORBITALS:           2   (   2A1  +   0B1  +   0B2  +   0A2  )
 NUMBER OF VALENCE ORBITALS:        9   (   5A1  +   2B1  +   2B2  +   0A2  )


 NUCLEAR REPULSION ENERGY   23.80371542

 EXTRA SYMMETRY OF AOS IN SYMMETRY 1:   1 1 1 1 1 1 1 1 1 1   1 1 2 1 2 1 2 1 2 1   2 1 2 1 2 1 3 2 1 3   2 1 1 1 1 1 1 1 1 1
                                        1 1 1 2 1 2 1 2 1 2   1 2 1 2 1 2 1 3 2 1   3 2 1 1 1 1 1 1 1 1   1 1 2 1 2 1 2 1 2 1
                                        2
 EXTRA SYMMETRY OF AOS IN SYMMETRY 2:   1 1 1 1 1 1 1 1 1 1   2 1 2 1 2 1 2 1 2 1   1 1 1 1 1 1 1 1 1 2   1 2 1 2 1 2 1 2 1 1
                                        1 1 1 1 1 1 2 1 2
 EXTRA SYMMETRY OF AOS IN SYMMETRY 3:   1 1 1 1 1 1 1 1 1 1   2 1 2 1 2 1 2 1 2 1   1 1 1 1 1 1 1 1 1 2   1 2 1 2 1 2 1 2 1 1
                                        1 1 1 1 1 1 2 1 2
 EXTRA SYMMETRY OF AOS IN SYMMETRY 4:   1 1 1 1 1 1 1 1 2 1   2 1 1 1 1 1 1 1 1 2   1 2 1 1 1 1 1

 Eigenvalues of metric

         1 0.181E-04 0.397E-04 0.762E-04 0.282E-03 0.403E-03 0.440E-03 0.531E-03 0.826E-03
         2 0.405E-03 0.972E-03 0.308E-02 0.365E-02 0.489E-02 0.654E-02 0.877E-02 0.107E-01
         3 0.405E-03 0.972E-03 0.308E-02 0.365E-02 0.489E-02 0.654E-02 0.877E-02 0.107E-01
         4 0.465E-02 0.129E-01 0.324E-01 0.583E-01 0.900E-01 0.143E+00 0.198E+00 0.231E+00


 Contracted 2-electron integrals neglected if value below      1.0D-22

       51218282. INTEGRALS WRITTEN OUT IN   12508 BLOCKS ON RECORD 1290 OF FILE 1


 NUMBER OF SORTED TWO-ELECTRON INTEGRALS:   58298162.     BUFFER LENGTH:  32768
 NUMBER OF SEGMENTS:   4  SEGMENT LENGTH:   15999501      RECORD LENGTH: 524288

 Memory used in sort:      16.56 MW

 SORT1 READ    51218282. AND WROTE    51973242. INTEGRALS IN    150 RECORDS. CPU TIME:     1.28 SEC, REAL TIME:     1.62 SEC
 SORT2 READ    51973242. AND WROTE    58298162. INTEGRALS IN      4 RECORDS. CPU TIME:     0.80 SEC, REAL TIME:     1.04 SEC

 FILE SIZES:   FILE 1:   840.6 MBYTE,  FILE 4:   629.2 MBYTE,   TOTAL:   1469.8 MBYTE

 OPERATOR DM      FOR CENTER  0  COORDINATES:    0.000000    0.000000    0.000000


 **********************************************************************************************************************************
 DATASETS  * FILE   NREC   LENGTH (MB)   RECORD NAMES
              1      19      461.82       500      610      700      900      950      970     1000      129      960     1100   
                                          VAR    BASINP    GEOM    SYMINP    ZMAT    AOBASIS   BASIS     P2S    ABASIS      S 
                                         1400     1410     1200     1210     1080     1600     1650     1300     1700   
                                           T        V       H0       H01     AOSYM     SMH    MOLCAS    ERIS     OPER   

 PROGRAMS   *        TOTAL       INT
 CPU TIMES  *         8.69      8.59
 REAL TIME  *        11.14 SEC
 DISK USED  *         1.47 GB      
 **********************************************************************************************************************************


 PROGRAM * RHF-SCF (CLOSED SHELL)       Authors: W. Meyer, H.-J. Werner


 NUMBER OF ELECTRONS:       7+    7-
 CONVERGENCE THRESHOLDS:    1.00E-10 (Density)    1.00E-13 (Energy)
 MAX. NUMBER OF ITERATIONS:      500
 INTERPOLATION TYPE:            DIIS
 INTERPOLATION STEPS:              2 (START)      1 (STEP)
 LEVEL SHIFTS:                  0.00 (CLOSED)  0.00 (OPEN) 



 Orbital guess generated from atomic densities. Full valence occupancy:    7   2   2   0

 Molecular orbital dump at record        2100.2

 Initial occupancy:   5   1   1   0

 ITERATION    DDIFF          GRAD             ENERGY        2-EL.EN.            DIPOLE MOMENTS         DIIS   ORB.
    1      0.000D+00      0.000D+00       -92.88875786    111.740499    0.00000    0.00000   -1.79943    0    start
    2      0.000D+00      0.709D-02       -92.89756029    110.880871    0.00000    0.00000   -0.89643    1    diag
    3      0.724D-02      0.638D-02       -92.91335003    111.424004    0.00000    0.00000   -1.31460    2    diag
    4      0.359D-02      0.521D-03       -92.91358039    111.384051    0.00000    0.00000   -1.30342    3    diag
    5      0.630D-03      0.115D-03       -92.91359420    111.395017    0.00000    0.00000   -1.30194    4    diag
    6      0.153D-03      0.318D-04       -92.91359509    111.389732    0.00000    0.00000   -1.30195    5    diag
    7      0.352D-04      0.114D-04       -92.91359518    111.390922    0.00000    0.00000   -1.30201    6    diag
    8      0.117D-04      0.239D-05       -92.91359518    111.390871    0.00000    0.00000   -1.30198    7    diag
    9      0.245D-05      0.273D-06       -92.91359518    111.390881    0.00000    0.00000   -1.30198    8    diag
   10      0.351D-06      0.329D-07       -92.91359518    111.390881    0.00000    0.00000   -1.30198    9    orth
   11      0.380D-07      0.460D-08       -92.91359518    111.390881    0.00000    0.00000   -1.30198    9    diag
   12      0.591D-08      0.439D-09       -92.91359518    111.390881    0.00000    0.00000   -1.30198    9    diag
   13      0.110D-08      0.550D-10       -92.91359518    111.390881    0.00000    0.00000   -1.30198    9    diag
   14      0.881D-10      0.640D-11       -92.91359518    111.390881    0.00000    0.00000   -1.30198    9    diag
   15      0.251D-10      0.238D-11       -92.91359518    111.390881    0.00000    0.00000   -1.30198    9    diag
   16      0.129D-10      0.517D-12       -92.91359518    111.390881    0.00000    0.00000   -1.30198    9    diag
   17      0.839D-11      0.295D-12       -92.91359518    111.390881    0.00000    0.00000   -1.30198    0    orth

 Final occupancy:   5   1   1   0

 !RHF STATE 1.1 Energy                -92.913595183716
 Nuclear energy                        23.80371542
 One-electron energy                 -172.41275134
 Two-electron energy                   55.69544074
 Virial quotient                       -1.00250985
 !RHF STATE 1.1 Dipole moment           0.00000000     0.00000000    -1.30197760
 Dipole moment /Debye                   0.00000000     0.00000000    -3.30908022

 Orbital energies:

         1.1          2.1          3.1          4.1          5.1          6.1          7.1
    -15.599992   -11.293731    -1.234157    -0.810098    -0.582203     0.020470     0.062574

         1.2          2.2          3.2
     -0.495377     0.063591     0.119469

         1.3          2.3          3.3
     -0.495377     0.063591     0.119469

         1.4          2.4
      0.225989     0.394919

 HOMO      1.2    -0.495377 =     -13.4799eV
 LUMO      6.1     0.020470 =       0.5570eV
 LUMO-HOMO         0.515847 =      14.0369eV


 **********************************************************************************************************************************
 DATASETS  * FILE   NREC   LENGTH (MB)   RECORD NAMES
              1      19      461.82       500      610      700      900      950      970     1000      129      960     1100   
                                          VAR    BASINP    GEOM    SYMINP    ZMAT    AOBASIS   BASIS     P2S    ABASIS      S 
                                         1400     1410     1200     1210     1080     1600     1650     1300     1700   
                                           T        V       H0       H01     AOSYM     SMH    MOLCAS    ERIS     OPER   

              2       4        3.06       700     1000      520     2100   
                                         GEOM     BASIS   MCVARS     RHF  

 PROGRAMS   *        TOTAL        HF       INT
 CPU TIMES  *        11.91      3.23      8.59
 REAL TIME  *        15.08 SEC
 DISK USED  *         1.47 GB      
 **********************************************************************************************************************************


 PROGRAM * CCSD (Closed-shell coupled cluster)     Authors: C. Hampel, H.-J. Werner, 1991, M. Deegan, P.J. Knowles, 1992


 Convergence thresholds:  THRVAR = 1.00D-08  THRDEN = 1.00D-12

 CCSD(T)     terms to be evaluated (factor= 1.000)


 Number of core orbitals:           2 (   2   0   0   0 )
 Number of closed-shell orbitals:   5 (   3   1   1   0 )
 Number of external orbitals:     199 (  76  48  48  27 )

 Molecular orbitals read from record     2100.2  Type=RHF/CANONICAL (state 1.1)

 Number of N-1 electron functions:               5
 Number of N-2 electron functions:              15
 Number of singly external CSFs:               324
 Number of doubly external CSFs:            129659
 Total number of CSFs:                      129984

 Length of J-op  integral file:               0.00 MB
 Length of K-op  integral file:               0.86 MB
 Length of 3-ext integral record:             0.00 MB

 Memory could be reduced to 15.89 Mwords without degradation in triples

 Integral transformation finished. Total CPU:   0.46 sec, npass=  1  Memory used:   1.90 MW

 Reference energy:                    -92.91359518

 MP2 singlet pair energy:              -0.23863732
 MP2 triplet pair energy:              -0.13236623
 MP2 correlation energy:               -0.37100355
 MP2 total energy:                    -93.28459873

 SCS-MP2 correlation energy:           -0.36872599   (PS=  1.200000  PT=  0.333333)
 SCS-MP2 total energy:                -93.28232118

 ITER.      SQ.NORM     CORR.ENERGY   TOTAL ENERGY   ENERGY CHANGE        DEN1      VAR(S)    VAR(P)  DIIS     TIME  TIME/IT
   1      1.11644970    -0.36955738   -93.28315256     0.00144617     0.01481692  0.26D-02  0.32D-02  1  1     0.94     0.52
   2      1.12583795    -0.36972722   -93.28332240    -0.00016984    -0.01025990  0.64D-04  0.41D-03  2  2     1.41     0.53
   3      1.13100097    -0.36995967   -93.28355485    -0.00023245    -0.00265119  0.14D-04  0.46D-04  3  3     1.87     0.53
   4      1.13314974    -0.37004011   -93.28363529    -0.00008044    -0.00075577  0.61D-06  0.52D-05  4  4     2.35     0.54
   5      1.13370391    -0.37004435   -93.28363953    -0.00000424    -0.00015719  0.86D-07  0.47D-06  5  5     2.82     0.54
   6      1.13382425    -0.37004161   -93.28363679     0.00000274    -0.00003177  0.10D-07  0.38D-07  6  6     3.27     0.54
   7      1.13383268    -0.37004327   -93.28363845    -0.00000166    -0.00000106  0.92D-09  0.31D-08  6  1     3.76     0.54
   8      1.13383451    -0.37004376   -93.28363894    -0.00000049    -0.00000049  0.11D-09  0.28D-09  6  2     4.23     0.54
   9      1.13383470    -0.37004383   -93.28363901    -0.00000007    -0.00000010  0.12D-10  0.18D-10  6  3     4.72     0.54
  10      1.13383456    -0.37004388   -93.28363906    -0.00000005     0.00000012  0.11D-11  0.17D-11  6  4     5.17     0.54
  11      1.13383449    -0.37004389   -93.28363907    -0.00000001     0.00000003  0.17D-12  0.15D-12  6  5     5.64     0.54
  12      1.13383442    -0.37004390   -93.28363908    -0.00000001     0.00000003  0.22D-13  0.25D-13  6  6     6.09     0.54
  13      1.13383439    -0.37004390   -93.28363908    -0.00000000     0.00000001  0.20D-14  0.60D-14  6  1     6.53     0.54
  14      1.13383437    -0.37004390   -93.28363908    -0.00000000     0.00000001  0.29D-15  0.62D-15  6  3     6.98     0.54
  15      1.13383436    -0.37004390   -93.28363908    -0.00000000     0.00000000  0.11D-16  0.42D-16  6  2     7.43     0.54
  16      1.13383436    -0.37004390   -93.28363908     0.00000000     0.00000000  0.18D-17  0.45D-17  6  4     7.89     0.54
  17      1.13383436    -0.37004390   -93.28363908    -0.00000000     0.00000000  0.35D-18  0.61D-18  6  2     8.34     0.54
  18      1.13383436    -0.37004390   -93.28363908    -0.00000000     0.00000000  0.32D-19  0.36D-19  6  5     8.79     0.54
  19      1.13383436    -0.37004390   -93.28363908    -0.00000000     0.00000000  0.81D-20  0.44D-20  6  6     9.28     0.54
  20      1.13383436    -0.37004390   -93.28363908    -0.00000000     0.00000000  0.17D-20  0.83D-21  6  1     9.74     0.54

 Norm of t1 vector:      0.06512017      S-energy:    -0.00000000      T1 diagnostic:  0.01456131
                                                                       D1 diagnostic:  0.02923529

 Doubles amplitudes (print threshold =  0.500E-01):

         I         J         SYM. A    SYM. B    A         B      T(IJ, AB)

         4         4         2         2         3         3     -0.05102248
         5         5         3         3         3         3     -0.05102248


 Total CPU time for triples:      2.95 sec


 RESULTS
 =======

  Reference energy                    -92.913595183716
  CCSD singlet pair energy             -0.259443271396
  CCSD triplet pair energy             -0.110600626324
  CCSD correlation energy              -0.370043897720

  Triples (T) contribution             -0.019765129726
  Total correlation energy             -0.389809027447

  CCSD total energy                   -93.283639081436
  CCSD[T] energy                      -93.304257779328
  CCSD-T energy                       -93.303016580091
 !CCSD(T) total energy                -93.303404211163

 Timing summary (sec):

 STEP                 CPU(USER)    SYS     CPU(TOT)    WALL
 Transformation          0.46      0.13      0.59      0.59
 CCSD iterations         9.29      1.46     10.75     10.75
 Triples                 2.95      0.13      3.08      3.08

 Program statistics:

 Available memory in ccsd:               994999800
 Min. memory needed in ccsd:                524097
 Max. memory used in ccsd:                  626326
 Max. memory used in cckext:                818237 (20 integral passes)



 **********************************************************************************************************************************
 DATASETS  * FILE   NREC   LENGTH (MB)   RECORD NAMES
              1      20      504.80       500      610      700      900      950      970     1000      129      960     1100   
                                          VAR    BASINP    GEOM    SYMINP    ZMAT    AOBASIS   BASIS     P2S    ABASIS      S 
                                         1400     1410     1200     1210     1080     1600     1650     1300     1700     1380   
                                           T        V       H0       H01     AOSYM     SMH    MOLCAS    ERIS     OPER     JKOP   

              2       4        3.06       700     1000      520     2100   
                                         GEOM     BASIS   MCVARS     RHF  

 PROGRAMS   *        TOTAL   CCSD(T)        HF       INT
 CPU TIMES  *        24.65     12.74      3.23      8.59
 REAL TIME  *        30.87 SEC
 DISK USED  *         1.47 GB      
 **********************************************************************************************************************************

 CCSD(T)/aug-cc-pVQZ energy=    -93.303404211163

        CCSD(T)         HF-SCF  
    -93.30340421    -92.91359518
 **********************************************************************************************************************************
 Molpro calculation terminated
 Variable memory released
