
 Primary working directories    : /tmp/r2666/232489.maple
 Secondary working directories  : /tmp/r2666/232489.maple
 Wavefunction directory         : /ddn/home4/r2666/wfu/
 Main file repository           : /tmp/r2666/232489.maple/

 SHA1      : d5ffa45e93fdbca01ffc919aa182cfdae0147319
 NAME      : 2015.1.35
 ARCHNAME  : linux/x86_64
 FC        : /opt/intel/composer_xe_2015.1.133/bin/intel64/ifort
 BLASLIB   : -Wl,-_start-group /opt/intel/mkl/lib/intel64/libmkl_intel_ilp64.a /opt/intel/mkl/lib/intel64/libmkl_intel_thread.a /opt/intel/mkl/lib/intel64/libmkl_core.a -Wl,-_end-group
 id        : olemiss

 Nodes     nprocs
 cn094        1

 Using customized tuning parameters: mindgm=1; mindgv=20; mindgc=4; mindgr=1; noblas=0; minvec=7
 default implementation of scratch files=df  

 ***,hcn CCSD(T)/TZ-F12 QFF
 memory, 995, m;
 gthresh,energy=1.d-12,zero=1.d-22,oneint=1.d-22,twoint=1.d-22;
 gthresh,optgrad=1.d-8,optstep=1.d-8;
 nocompress;
 geomtyp=xyz
 bohr
 geometry={
 3
         43        43
 N       -0.0046370942        0.0000001456        1.1341011678
 C        0.0096550187       -0.0000000038       -1.0541504567
 H       -0.0050179246       -0.0000001418       -3.0770206931
 }
 
 basis=avqz
   {hf,maxit=500;accu,20;}
 {ccsd(t),nocheck,maxit=250;orbital,IGNORE_ERROR;}

 Variables initialized (889), CPU time= 0.01 sec
 Commands  initialized (702), CPU time= 0.01 sec, 572 directives.
 Default parameters read. Elapsed time= 0.04 sec

 Checking input...
 Passed
1


                                         ***  PROGRAM SYSTEM MOLPRO  ***
                                       Copyright, TTI GmbH Stuttgart, 2015
                                    Version 2015.1 linked Jul  9 2018 13:16:40


 **********************************************************************************************************************************
 LABEL *   hcn CCSD(T)/TZ-F12 QFF                                                        
  64 bit serial version                                                                  DATE: 06-Feb-20          TIME: 09:53:41  
 **********************************************************************************************************************************

 SHA1:             d5ffa45e93fdbca01ffc919aa182cfdae0147319
 **********************************************************************************************************************************

 THRESHOLDS:

 ZERO    =  1.00D-22  ONEINT  =  1.00D-22  TWOINT  =  1.00D-22  PREFAC  =  1.00D-14  LOCALI  =  1.00D-09  EORDER  =  1.00D-04
 ENERGY  =  1.00D-12  ETEST   =  0.00D+00  EDENS   =  0.00D+00  THRDEDEF=  1.00D-06  GRADIENT=  1.00D-02  STEP    =  1.00D-03
 ORBITAL =  1.00D-05  CIVEC   =  1.00D-05  COEFF   =  1.00D-04  PRINTCI =  5.00D-02  PUNCHCI =  9.90D+01  OPTGRAD =  3.00D-04
 OPTENERG=  1.00D-06  OPTSTEP =  3.00D-04  THRGRAD =  1.00D-10  COMPRESS=  1.00D-11  VARMIN  =  1.00D-07  VARMAX  =  1.00D-03
 THRDOUB =  0.00D+00  THRDIV  =  1.00D-05  THRRED  =  1.00D-07  THRPSP  =  1.00D+00  THRDC   =  1.00D-10  THRCS   =  1.00D-10
 THRNRM  =  1.00D-08  THREQ   =  0.00D+00  THRDE   =  1.00D+00  THRREF  =  1.00D-05  SPARFAC =  1.00D+00  THRDLP  =  1.00D-07
 THRDIA  =  1.00D-10  THRDLS  =  1.00D-07  THRGPS  =  0.00D+00  THRKEX  =  0.00D+00  THRDIS  =  2.00D-01  THRVAR  =  1.00D-10
 THRLOC  =  1.00D-06  THRGAP  =  1.00D-06  THRLOCT = -1.00D+00  THRGAPT = -1.00D+00  THRORB  =  1.00D-06  THRMLTP =  0.00D+00
 THRCPQCI=  1.00D-10  KEXTA   =  0.00D+00  THRCOARS=  0.00D+00  SYMTOL  =  1.00D-06  GRADTOL =  1.00D-06  THROVL  =  1.00D-08
 THRORTH =  1.00D-08  GRID    =  1.00D-06  GRIDMAX =  1.00D-03  DTMAX   =  0.00D+00  THROCCDE=  1.00D-01  THROCCDE=  1.00D-01



 THRESHOLDS:

 ZERO    =  1.00D-22  ONEINT  =  1.00D-22  TWOINT  =  1.00D-22  PREFAC  =  1.00D-14  LOCALI  =  1.00D-09  EORDER  =  1.00D-04
 ENERGY  =  1.00D-12  ETEST   =  0.00D+00  EDENS   =  0.00D+00  THRDEDEF=  1.00D-06  GRADIENT=  1.00D-02  STEP    =  1.00D-03
 ORBITAL =  1.00D-05  CIVEC   =  1.00D-05  COEFF   =  1.00D-04  PRINTCI =  5.00D-02  PUNCHCI =  9.90D+01  OPTGRAD =  1.00D-08
 OPTENERG=  1.00D-06  OPTSTEP =  1.00D-08  THRGRAD =  1.00D-10  COMPRESS=  1.00D-11  VARMIN  =  1.00D-07  VARMAX  =  1.00D-03
 THRDOUB =  0.00D+00  THRDIV  =  1.00D-05  THRRED  =  1.00D-07  THRPSP  =  1.00D+00  THRDC   =  1.00D-10  THRCS   =  1.00D-10
 THRNRM  =  1.00D-08  THREQ   =  0.00D+00  THRDE   =  1.00D+00  THRREF  =  1.00D-05  SPARFAC =  1.00D+00  THRDLP  =  1.00D-07
 THRDIA  =  1.00D-10  THRDLS  =  1.00D-07  THRGPS  =  0.00D+00  THRKEX  =  0.00D+00  THRDIS  =  2.00D-01  THRVAR  =  1.00D-10
 THRLOC  =  1.00D-06  THRGAP  =  1.00D-06  THRLOCT = -1.00D+00  THRGAPT = -1.00D+00  THRORB  =  1.00D-06  THRMLTP =  0.00D+00
 THRCPQCI=  1.00D-10  KEXTA   =  0.00D+00  THRCOARS=  0.00D+00  SYMTOL  =  1.00D-06  GRADTOL =  1.00D-06  THROVL  =  1.00D-08
 THRORTH =  1.00D-08  GRID    =  1.00D-06  GRIDMAX =  1.00D-03  DTMAX   =  0.00D+00  THROCCDE=  1.00D-01  THROCCDE=  1.00D-01



 Input parameters for SORTINT:

 COMPRESS =    0.000000
 C_FINAL  =    1.000000
 DEBUG    =   -1.000000
 C_SORT1  =    0.000000
 C_SEWARD =    0.000000
 THRESH   =    0.000000
 IO       =  molpro                                                          
 SPRI     =    0.000000
 SETTING GEOMTYP        =    XYZ
 ZUNIT=BOHR
 

 Variable memory set to  995000000 words,  buffer space   230000 words

 SETTING BASIS          =    AVQZ


 Recomputing integrals since basis changed


 Using spherical harmonics

 Library entry N      S aug-cc-pVQZ          selected for orbital group  1
 Library entry N      P aug-cc-pVQZ          selected for orbital group  1
 Library entry N      D aug-cc-pVQZ          selected for orbital group  1
 Library entry N      F aug-cc-pVQZ          selected for orbital group  1
 Library entry N      G aug-cc-pVQZ          selected for orbital group  1
 Library entry C      S aug-cc-pVQZ          selected for orbital group  2
 Library entry C      P aug-cc-pVQZ          selected for orbital group  2
 Library entry C      D aug-cc-pVQZ          selected for orbital group  2
 Library entry C      F aug-cc-pVQZ          selected for orbital group  2
 Library entry C      G aug-cc-pVQZ          selected for orbital group  2
 Library entry H      S aug-cc-pVQZ          selected for orbital group  3
 Library entry H      P aug-cc-pVQZ          selected for orbital group  3
 Library entry H      D aug-cc-pVQZ          selected for orbital group  3
 Library entry H      F aug-cc-pVQZ          selected for orbital group  3


 PROGRAM * SEWARD (Integral evaluation for generally contracted gaussian basis sets)     Author: Roland Lindh, 1990

 Geometry written to block  1 of record 700


 Point group  Cs  



 ATOMIC COORDINATES

 NR  ATOM    CHARGE       X              Y              Z

   1  N       7.00   -0.004637094    0.000000000    1.134101168
   2  C       6.00    0.009655019    0.000000000   -1.054150457
   3  H       1.00   -0.005017925    0.000000000   -3.077020693

 Bond lengths in Bohr (Angstrom)

 1-2  2.188298297  2-3  2.022923451
     ( 1.157997589)     ( 1.070484990)

 Bond angles

  1-2-3  179.21020061

 NUCLEAR CHARGE:                   14
 NUMBER OF PRIMITIVE AOS:         293
 NUMBER OF SYMMETRY AOS:          234
 NUMBER OF CONTRACTIONS:          206   ( 130A'  +  76A"  )
 NUMBER OF CORE ORBITALS:           2   (   2A'  +   0A"  )
 NUMBER OF VALENCE ORBITALS:        9   (   7A'  +   2A"  )


 NUCLEAR REPULSION ENERGY   23.82126514


 Eigenvalues of metric

         1 0.177E-04 0.395E-04 0.743E-04 0.281E-03 0.400E-03 0.406E-03 0.439E-03 0.529E-03
         2 0.405E-03 0.958E-03 0.306E-02 0.360E-02 0.465E-02 0.484E-02 0.649E-02 0.874E-02


 Contracted 2-electron integrals neglected if value below      1.0D-22

      109905593. INTEGRALS WRITTEN OUT IN   26839 BLOCKS ON RECORD 1290 OF FILE 1


 NUMBER OF SORTED TWO-ELECTRON INTEGRALS:  115283741.     BUFFER LENGTH:  32768
 NUMBER OF SEGMENTS:   8  SEGMENT LENGTH:   15998004      RECORD LENGTH: 524288

 Memory used in sort:      16.56 MW

 SORT1 READ   109905593. AND WROTE   110825607. INTEGRALS IN    321 RECORDS. CPU TIME:     1.94 SEC, REAL TIME:     2.72 SEC
 SORT2 READ   110825607. AND WROTE   115283741. INTEGRALS IN      8 RECORDS. CPU TIME:     1.39 SEC, REAL TIME:     1.92 SEC

 FILE SIZES:   FILE 1:  1780.0 MBYTE,  FILE 4:  1346.4 MBYTE,   TOTAL:   3126.4 MBYTE

 OPERATOR DM      FOR CENTER  0  COORDINATES:    0.000000    0.000000    0.000000


 **********************************************************************************************************************************
 DATASETS  * FILE   NREC   LENGTH (MB)   RECORD NAMES
              1      19      943.99       500      610      700      900      950      970     1000      129      960     1100   
                                          VAR    BASINP    GEOM    SYMINP    ZMAT    AOBASIS   BASIS     P2S    ABASIS      S 
                                         1400     1410     1200     1210     1080     1600     1650     1300     1700   
                                           T        V       H0       H01     AOSYM     SMH    MOLCAS    ERIS     OPER   

 PROGRAMS   *        TOTAL       INT
 CPU TIMES  *        11.47     11.37
 REAL TIME  *        14.25 SEC
 DISK USED  *         3.13 GB      
 **********************************************************************************************************************************


 PROGRAM * RHF-SCF (CLOSED SHELL)       Authors: W. Meyer, H.-J. Werner


 NUMBER OF ELECTRONS:       7+    7-
 CONVERGENCE THRESHOLDS:    1.00E-10 (Density)    1.00E-13 (Energy)
 MAX. NUMBER OF ITERATIONS:      500
 INTERPOLATION TYPE:            DIIS
 INTERPOLATION STEPS:              2 (START)      1 (STEP)
 LEVEL SHIFTS:                  0.00 (CLOSED)  0.00 (OPEN) 



 Orbital guess generated from atomic densities. Full valence occupancy:    9   2

 Molecular orbital dump at record        2100.2

 Initial occupancy:   6   1

 ITERATION    DDIFF          GRAD             ENERGY        2-EL.EN.            DIPOLE MOMENTS         DIIS   ORB.
    1      0.000D+00      0.000D+00       -92.88905179    111.764374    0.00694    0.00000   -1.79284    0    start
    2      0.000D+00      0.538D-02       -92.89784601    110.910989   -0.00257    0.00000   -0.89553    1    diag
    3      0.529D-02      0.484D-02       -92.91345455    111.451544    0.00143    0.00000   -1.31179    2    diag
    4      0.262D-02      0.399D-03       -92.91368577    111.411195    0.00109    0.00000   -1.30058    3    diag
    5      0.465D-03      0.878D-04       -92.91369950    111.422124    0.00099    0.00000   -1.29911    4    diag
    6      0.112D-03      0.241D-04       -92.91370039    111.416851    0.00098    0.00000   -1.29912    5    diag
    7      0.257D-04      0.864D-05       -92.91370047    111.418029    0.00097    0.00000   -1.29919    6    diag
    8      0.852D-05      0.181D-05       -92.91370048    111.417979    0.00097    0.00000   -1.29916    7    diag
    9      0.180D-05      0.208D-06       -92.91370048    111.417989    0.00097    0.00000   -1.29915    8    diag
   10      0.258D-06      0.260D-07       -92.91370048    111.417990    0.00097    0.00000   -1.29915    9    orth
   11      0.291D-07      0.485D-08       -92.91370048    111.417990    0.00097    0.00000   -1.29915    9    diag
   12      0.626D-08      0.183D-08       -92.91370048    111.417990    0.00097    0.00000   -1.29915    9    diag
   13      0.321D-08      0.866D-09       -92.91370048    111.417990    0.00097    0.00000   -1.29915    9    diag
   14      0.227D-08      0.221D-09       -92.91370048    111.417990    0.00097    0.00000   -1.29915    9    diag
   15      0.501D-09      0.865D-10       -92.91370048    111.417990    0.00097    0.00000   -1.29915    9    diag
   16      0.189D-09      0.154D-10       -92.91370048    111.417990    0.00097    0.00000   -1.29915    9    diag
   17      0.292D-10      0.357D-11       -92.91370048    111.417990    0.00097    0.00000   -1.29915    9    diag
   18      0.102D-10      0.584D-12       -92.91370048    111.417990    0.00097    0.00000   -1.29915    9    diag
   19      0.978D-11      0.292D-12       -92.91370048    111.417990    0.00097    0.00000   -1.29915    0    orth

 Final occupancy:   6   1

 !RHF STATE 1.1 Energy                -92.913700477209
 Nuclear energy                        23.82126514
 One-electron energy                 -172.44396046
 Two-electron energy                   55.70899484
 Virial quotient                       -1.00242783
 !RHF STATE 1.1 Dipole moment           0.00096873     0.00000000    -1.29915035
 Dipole moment /Debye                   0.00246210     0.00000000    -3.30189454

 Orbital energies:

         1.1          2.1          3.1          4.1          5.1          6.1          7.1          8.1
    -15.600091   -11.293357    -1.234226    -0.812028    -0.582378    -0.495451     0.020491     0.062590

         1.2          2.2          3.2
     -0.495454     0.063588     0.119413

 HOMO      6.1    -0.495451 =     -13.4819eV
 LUMO      7.1     0.020491 =       0.5576eV
 LUMO-HOMO         0.515942 =      14.0395eV


 **********************************************************************************************************************************
 DATASETS  * FILE   NREC   LENGTH (MB)   RECORD NAMES
              1      19      943.99       500      610      700      900      950      970     1000      129      960     1100   
                                          VAR    BASINP    GEOM    SYMINP    ZMAT    AOBASIS   BASIS     P2S    ABASIS      S 
                                         1400     1410     1200     1210     1080     1600     1650     1300     1700   
                                           T        V       H0       H01     AOSYM     SMH    MOLCAS    ERIS     OPER   

              2       4        3.27       700     1000      520     2100   
                                         GEOM     BASIS   MCVARS     RHF  

 PROGRAMS   *        TOTAL        HF       INT
 CPU TIMES  *        21.63     10.16     11.37
 REAL TIME  *        26.80 SEC
 DISK USED  *         3.13 GB      
 **********************************************************************************************************************************


 PROGRAM * CCSD (Closed-shell coupled cluster)     Authors: C. Hampel, H.-J. Werner, 1991, M. Deegan, P.J. Knowles, 1992


 Convergence thresholds:  THRVAR = 1.00D-08  THRDEN = 1.00D-12

 CCSD(T)     terms to be evaluated (factor= 1.000)


 Number of core orbitals:           2 (   2   0 )
 Number of closed-shell orbitals:   5 (   4   1 )
 Number of external orbitals:     199 ( 124  75 )

 Molecular orbitals read from record     2100.2  Type=RHF/CANONICAL (state 1.1)

 Number of N-1 electron functions:               5
 Number of N-2 electron functions:              15
 Number of singly external CSFs:               571
 Number of doubly external CSFs:            253406
 Total number of CSFs:                      253978

 Length of J-op  integral file:               0.00 MB
 Length of K-op  integral file:               1.60 MB
 Length of 3-ext integral record:             0.00 MB

 Memory could be reduced to 30.93 Mwords without degradation in triples

 Integral transformation finished. Total CPU:   1.45 sec, npass=  1  Memory used:   8.33 MW

 Reference energy:                    -92.91370048

 MP2 singlet pair energy:              -0.23860182
 MP2 triplet pair energy:              -0.13235272
 MP2 correlation energy:               -0.37095454
 MP2 total energy:                    -93.28465501

 SCS-MP2 correlation energy:           -0.36867498   (PS=  1.200000  PT=  0.333333)
 SCS-MP2 total energy:                -93.28237546

 ITER.      SQ.NORM     CORR.ENERGY   TOTAL ENERGY   ENERGY CHANGE        DEN1      VAR(S)    VAR(P)  DIIS     TIME  TIME/IT
   1      1.11635800    -0.36950681   -93.28320728     0.00144773     0.01480521  0.26D-02  0.32D-02  1  1     2.61     1.31
   2      1.12572955    -0.36967305   -93.28337352    -0.00016624    -0.01025011  0.64D-04  0.41D-03  2  2     3.82     1.35
   3      1.13087606    -0.36990372   -93.28360420    -0.00023068    -0.00264407  0.14D-04  0.45D-04  3  3     5.08     1.37
   4      1.13302050    -0.36998394   -93.28368442    -0.00008022    -0.00075423  0.61D-06  0.52D-05  4  4     6.28     1.37
   5      1.13357351    -0.36998797   -93.28368844    -0.00000402    -0.00015703  0.83D-07  0.47D-06  5  5     7.45     1.37
   6      1.13369258    -0.36998527   -93.28368574     0.00000270    -0.00003141  0.10D-07  0.37D-07  6  6     8.72     1.37
   7      1.13370083    -0.36998694   -93.28368742    -0.00000167    -0.00000102  0.91D-09  0.31D-08  6  1     9.98     1.38
   8      1.13370263    -0.36998744   -93.28368791    -0.00000050    -0.00000047  0.11D-09  0.27D-09  6  2    11.16     1.38
   9      1.13370281    -0.36998750   -93.28368798    -0.00000007    -0.00000010  0.12D-10  0.18D-10  6  3    12.38     1.38
  10      1.13370267    -0.36998755   -93.28368803    -0.00000005     0.00000012  0.12D-11  0.17D-11  6  4    13.60     1.38
  11      1.13370260    -0.36998757   -93.28368804    -0.00000001     0.00000003  0.19D-12  0.15D-12  6  5    14.81     1.38
  12      1.13370254    -0.36998757   -93.28368805    -0.00000001     0.00000003  0.27D-13  0.26D-13  6  6    15.92     1.38
  13      1.13370250    -0.36998757   -93.28368805    -0.00000000     0.00000001  0.30D-14  0.62D-14  6  1    17.03     1.37
  14      1.13370248    -0.36998757   -93.28368805    -0.00000000     0.00000001  0.47D-15  0.63D-15  6  3    18.12     1.36
  15      1.13370247    -0.36998757   -93.28368805    -0.00000000     0.00000000  0.42D-16  0.45D-16  6  2    19.26     1.36
  16      1.13370247    -0.36998757   -93.28368805     0.00000000     0.00000000  0.12D-16  0.60D-17  6  4    20.39     1.36
  17      1.13370247    -0.36998757   -93.28368805    -0.00000000     0.00000000  0.29D-17  0.11D-17  6  5    21.62     1.36
  18      1.13370247    -0.36998757   -93.28368805     0.00000000     0.00000000  0.43D-18  0.21D-18  6  6    22.82     1.36
  19      1.13370247    -0.36998757   -93.28368805     0.00000000    -0.00000000  0.56D-19  0.38D-19  6  1    24.01     1.36

 Norm of t1 vector:      0.06508483      S-energy:    -0.00000000      T1 diagnostic:  0.01455341
                                                                       D1 diagnostic:  0.02924375

 Doubles amplitudes (print threshold =  0.500E-01):

         I         J         SYM. A    SYM. B    A         B      T(IJ, AB)

         4         4         1         1         7         7     -0.05100159
         5         5         2         2         3         3     -0.05104429


 Total CPU time for triples:     10.20 sec


 RESULTS
 =======

  Reference energy                    -92.913700477209
  CCSD singlet pair energy             -0.259383380616
  CCSD triplet pair energy             -0.110604192081
  CCSD correlation energy              -0.369987572698

  Triples (T) contribution             -0.019751824371
  Total correlation energy             -0.389739397069

  CCSD total energy                   -93.283688049907
  CCSD[T] energy                      -93.304292643712
  CCSD-T energy                       -93.303052460209
 !CCSD(T) total energy                -93.303439874278

 Timing summary (sec):

 STEP                 CPU(USER)    SYS     CPU(TOT)    WALL
 Transformation          1.47      0.33      1.80      1.84
 CCSD iterations        22.54      3.23     25.77     25.77
 Triples                10.20      0.25     10.45     10.45

 Program statistics:

 Available memory in ccsd:               994999800
 Min. memory needed in ccsd:               1003324
 Max. memory used in ccsd:                 1199476
 Max. memory used in cckext:               2145959 (19 integral passes)



 **********************************************************************************************************************************
 DATASETS  * FILE   NREC   LENGTH (MB)   RECORD NAMES
              1      20     1028.32       500      610      700      900      950      970     1000      129      960     1100   
                                          VAR    BASINP    GEOM    SYMINP    ZMAT    AOBASIS   BASIS     P2S    ABASIS      S 
                                         1400     1410     1200     1210     1080     1600     1650     1300     1700     1380   
                                           T        V       H0       H01     AOSYM     SMH    MOLCAS    ERIS     OPER     JKOP   

              2       4        3.27       700     1000      520     2100   
                                         GEOM     BASIS   MCVARS     RHF  

 PROGRAMS   *        TOTAL   CCSD(T)        HF       INT
 CPU TIMES  *        55.86     34.23     10.16     11.37
 REAL TIME  *        64.89 SEC
 DISK USED  *         3.13 GB      
 **********************************************************************************************************************************

 CCSD(T)/aug-cc-pVQZ energy=    -93.303439874278

        CCSD(T)         HF-SCF  
    -93.30343987    -92.91370048
 **********************************************************************************************************************************
 Molpro calculation terminated
 Variable memory released
