
 Primary working directories    : /tmp/r2666/232477.maple
 Secondary working directories  : /tmp/r2666/232477.maple
 Wavefunction directory         : /ddn/home4/r2666/wfu/
 Main file repository           : /tmp/r2666/232477.maple/

 SHA1      : d5ffa45e93fdbca01ffc919aa182cfdae0147319
 NAME      : 2015.1.35
 ARCHNAME  : linux/x86_64
 FC        : /opt/intel/composer_xe_2015.1.133/bin/intel64/ifort
 BLASLIB   : -Wl,-_start-group /opt/intel/mkl/lib/intel64/libmkl_intel_ilp64.a /opt/intel/mkl/lib/intel64/libmkl_intel_thread.a /opt/intel/mkl/lib/intel64/libmkl_core.a -Wl,-_end-group
 id        : olemiss

 Nodes     nprocs
 cn077        1

 Using customized tuning parameters: mindgm=1; mindgv=20; mindgc=4; mindgr=1; noblas=0; minvec=7
 default implementation of scratch files=df  

 ***,hcn CCSD(T)/TZ-F12 QFF
 memory, 995, m;
 gthresh,energy=1.d-12,zero=1.d-22,oneint=1.d-22,twoint=1.d-22;
 gthresh,optgrad=1.d-8,optstep=1.d-8;
 nocompress;
 geomtyp=xyz
 bohr
 geometry={
 3
         31        31
 N       -0.0046276102        0.0000000806        1.1278021468
 C        0.0096352225       -0.0000000021       -1.0510008372
 H       -0.0050076123       -0.0000000785       -3.0738712917
 }
 
 basis=avqz
   {hf,maxit=500;accu,20;}
 {ccsd(t),nocheck,maxit=250;orbital,IGNORE_ERROR;}

 Variables initialized (889), CPU time= 0.00 sec
 Commands  initialized (702), CPU time= 0.01 sec, 572 directives.
 Default parameters read. Elapsed time= 0.05 sec

 Checking input...
 Passed
1


                                         ***  PROGRAM SYSTEM MOLPRO  ***
                                       Copyright, TTI GmbH Stuttgart, 2015
                                    Version 2015.1 linked Jul  9 2018 13:16:40


 **********************************************************************************************************************************
 LABEL *   hcn CCSD(T)/TZ-F12 QFF                                                        
  64 bit serial version                                                                  DATE: 06-Feb-20          TIME: 09:53:08  
 **********************************************************************************************************************************

 SHA1:             d5ffa45e93fdbca01ffc919aa182cfdae0147319
 **********************************************************************************************************************************

 THRESHOLDS:

 ZERO    =  1.00D-22  ONEINT  =  1.00D-22  TWOINT  =  1.00D-22  PREFAC  =  1.00D-14  LOCALI  =  1.00D-09  EORDER  =  1.00D-04
 ENERGY  =  1.00D-12  ETEST   =  0.00D+00  EDENS   =  0.00D+00  THRDEDEF=  1.00D-06  GRADIENT=  1.00D-02  STEP    =  1.00D-03
 ORBITAL =  1.00D-05  CIVEC   =  1.00D-05  COEFF   =  1.00D-04  PRINTCI =  5.00D-02  PUNCHCI =  9.90D+01  OPTGRAD =  3.00D-04
 OPTENERG=  1.00D-06  OPTSTEP =  3.00D-04  THRGRAD =  1.00D-10  COMPRESS=  1.00D-11  VARMIN  =  1.00D-07  VARMAX  =  1.00D-03
 THRDOUB =  0.00D+00  THRDIV  =  1.00D-05  THRRED  =  1.00D-07  THRPSP  =  1.00D+00  THRDC   =  1.00D-10  THRCS   =  1.00D-10
 THRNRM  =  1.00D-08  THREQ   =  0.00D+00  THRDE   =  1.00D+00  THRREF  =  1.00D-05  SPARFAC =  1.00D+00  THRDLP  =  1.00D-07
 THRDIA  =  1.00D-10  THRDLS  =  1.00D-07  THRGPS  =  0.00D+00  THRKEX  =  0.00D+00  THRDIS  =  2.00D-01  THRVAR  =  1.00D-10
 THRLOC  =  1.00D-06  THRGAP  =  1.00D-06  THRLOCT = -1.00D+00  THRGAPT = -1.00D+00  THRORB  =  1.00D-06  THRMLTP =  0.00D+00
 THRCPQCI=  1.00D-10  KEXTA   =  0.00D+00  THRCOARS=  0.00D+00  SYMTOL  =  1.00D-06  GRADTOL =  1.00D-06  THROVL  =  1.00D-08
 THRORTH =  1.00D-08  GRID    =  1.00D-06  GRIDMAX =  1.00D-03  DTMAX   =  0.00D+00  THROCCDE=  1.00D-01  THROCCDE=  1.00D-01



 THRESHOLDS:

 ZERO    =  1.00D-22  ONEINT  =  1.00D-22  TWOINT  =  1.00D-22  PREFAC  =  1.00D-14  LOCALI  =  1.00D-09  EORDER  =  1.00D-04
 ENERGY  =  1.00D-12  ETEST   =  0.00D+00  EDENS   =  0.00D+00  THRDEDEF=  1.00D-06  GRADIENT=  1.00D-02  STEP    =  1.00D-03
 ORBITAL =  1.00D-05  CIVEC   =  1.00D-05  COEFF   =  1.00D-04  PRINTCI =  5.00D-02  PUNCHCI =  9.90D+01  OPTGRAD =  1.00D-08
 OPTENERG=  1.00D-06  OPTSTEP =  1.00D-08  THRGRAD =  1.00D-10  COMPRESS=  1.00D-11  VARMIN  =  1.00D-07  VARMAX  =  1.00D-03
 THRDOUB =  0.00D+00  THRDIV  =  1.00D-05  THRRED  =  1.00D-07  THRPSP  =  1.00D+00  THRDC   =  1.00D-10  THRCS   =  1.00D-10
 THRNRM  =  1.00D-08  THREQ   =  0.00D+00  THRDE   =  1.00D+00  THRREF  =  1.00D-05  SPARFAC =  1.00D+00  THRDLP  =  1.00D-07
 THRDIA  =  1.00D-10  THRDLS  =  1.00D-07  THRGPS  =  0.00D+00  THRKEX  =  0.00D+00  THRDIS  =  2.00D-01  THRVAR  =  1.00D-10
 THRLOC  =  1.00D-06  THRGAP  =  1.00D-06  THRLOCT = -1.00D+00  THRGAPT = -1.00D+00  THRORB  =  1.00D-06  THRMLTP =  0.00D+00
 THRCPQCI=  1.00D-10  KEXTA   =  0.00D+00  THRCOARS=  0.00D+00  SYMTOL  =  1.00D-06  GRADTOL =  1.00D-06  THROVL  =  1.00D-08
 THRORTH =  1.00D-08  GRID    =  1.00D-06  GRIDMAX =  1.00D-03  DTMAX   =  0.00D+00  THROCCDE=  1.00D-01  THROCCDE=  1.00D-01



 Input parameters for SORTINT:

 COMPRESS =    0.000000
 C_FINAL  =    1.000000
 DEBUG    =   -1.000000
 C_SORT1  =    0.000000
 C_SEWARD =    0.000000
 THRESH   =    0.000000
 IO       =  molpro                                                          
 SPRI     =    0.000000
 SETTING GEOMTYP        =    XYZ
 ZUNIT=BOHR
 

 Variable memory set to  995000000 words,  buffer space   230000 words

 SETTING BASIS          =    AVQZ


 Recomputing integrals since basis changed


 Using spherical harmonics

 Library entry N      S aug-cc-pVQZ          selected for orbital group  1
 Library entry N      P aug-cc-pVQZ          selected for orbital group  1
 Library entry N      D aug-cc-pVQZ          selected for orbital group  1
 Library entry N      F aug-cc-pVQZ          selected for orbital group  1
 Library entry N      G aug-cc-pVQZ          selected for orbital group  1
 Library entry C      S aug-cc-pVQZ          selected for orbital group  2
 Library entry C      P aug-cc-pVQZ          selected for orbital group  2
 Library entry C      D aug-cc-pVQZ          selected for orbital group  2
 Library entry C      F aug-cc-pVQZ          selected for orbital group  2
 Library entry C      G aug-cc-pVQZ          selected for orbital group  2
 Library entry H      S aug-cc-pVQZ          selected for orbital group  3
 Library entry H      P aug-cc-pVQZ          selected for orbital group  3
 Library entry H      D aug-cc-pVQZ          selected for orbital group  3
 Library entry H      F aug-cc-pVQZ          selected for orbital group  3


 PROGRAM * SEWARD (Integral evaluation for generally contracted gaussian basis sets)     Author: Roland Lindh, 1990

 Geometry written to block  1 of record 700


 Point group  Cs  



 ATOMIC COORDINATES

 NR  ATOM    CHARGE       X              Y              Z

   1  N       7.00   -0.004627610    0.000000000    1.127802147
   2  C       6.00    0.009635223    0.000000000   -1.051000837
   3  H       1.00   -0.005007612    0.000000000   -3.073871292

 Bond lengths in Bohr (Angstrom)

 1-2  2.178849667  2-3  2.022923451
     ( 1.152997590)     ( 1.070484990)

 Bond angles

  1-2-3  179.21020059

 NUCLEAR CHARGE:                   14
 NUMBER OF PRIMITIVE AOS:         293
 NUMBER OF SYMMETRY AOS:          234
 NUMBER OF CONTRACTIONS:          206   ( 130A'  +  76A"  )
 NUMBER OF CORE ORBITALS:           2   (   2A'  +   0A"  )
 NUMBER OF VALENCE ORBITALS:        9   (   7A'  +   2A"  )


 NUCLEAR REPULSION ENERGY   23.90823397


 Eigenvalues of metric

         1 0.176E-04 0.392E-04 0.739E-04 0.279E-03 0.397E-03 0.402E-03 0.435E-03 0.525E-03
         2 0.400E-03 0.954E-03 0.301E-02 0.358E-02 0.457E-02 0.480E-02 0.646E-02 0.872E-02


 Contracted 2-electron integrals neglected if value below      1.0D-22

      109905669. INTEGRALS WRITTEN OUT IN   26839 BLOCKS ON RECORD 1290 OF FILE 1


 NUMBER OF SORTED TWO-ELECTRON INTEGRALS:  115283741.     BUFFER LENGTH:  32768
 NUMBER OF SEGMENTS:   8  SEGMENT LENGTH:   15998004      RECORD LENGTH: 524288

 Memory used in sort:      16.56 MW

 SORT1 READ   109905669. AND WROTE   110825685. INTEGRALS IN    321 RECORDS. CPU TIME:     1.71 SEC, REAL TIME:     2.46 SEC
 SORT2 READ   110825685. AND WROTE   115283741. INTEGRALS IN      8 RECORDS. CPU TIME:     1.16 SEC, REAL TIME:     1.73 SEC

 FILE SIZES:   FILE 1:  1780.0 MBYTE,  FILE 4:  1346.4 MBYTE,   TOTAL:   3126.4 MBYTE

 OPERATOR DM      FOR CENTER  0  COORDINATES:    0.000000    0.000000    0.000000


 **********************************************************************************************************************************
 DATASETS  * FILE   NREC   LENGTH (MB)   RECORD NAMES
              1      19      943.99       500      610      700      900      950      970     1000      129      960     1100   
                                          VAR    BASINP    GEOM    SYMINP    ZMAT    AOBASIS   BASIS     P2S    ABASIS      S 
                                         1400     1410     1200     1210     1080     1600     1650     1300     1700   
                                           T        V       H0       H01     AOSYM     SMH    MOLCAS    ERIS     OPER   

 PROGRAMS   *        TOTAL       INT
 CPU TIMES  *        10.17     10.09
 REAL TIME  *        13.07 SEC
 DISK USED  *         3.13 GB      
 **********************************************************************************************************************************


 PROGRAM * RHF-SCF (CLOSED SHELL)       Authors: W. Meyer, H.-J. Werner


 NUMBER OF ELECTRONS:       7+    7-
 CONVERGENCE THRESHOLDS:    1.00E-10 (Density)    1.00E-13 (Energy)
 MAX. NUMBER OF ITERATIONS:      500
 INTERPOLATION TYPE:            DIIS
 INTERPOLATION STEPS:              2 (START)      1 (STEP)
 LEVEL SHIFTS:                  0.00 (CLOSED)  0.00 (OPEN) 



 Orbital guess generated from atomic densities. Full valence occupancy:    9   2

 Molecular orbital dump at record        2100.2

 Initial occupancy:   6   1

 ITERATION    DDIFF          GRAD             ENERGY        2-EL.EN.            DIPOLE MOMENTS         DIIS   ORB.
    1      0.000D+00      0.000D+00       -92.88987074    111.962615    0.00694    0.00000   -1.78895    0    start
    2      0.000D+00      0.540D-02       -92.89888772    111.077937   -0.00249    0.00000   -0.90044    1    diag
    3      0.528D-02      0.481D-02       -92.91425986    111.622253    0.00146    0.00000   -1.31052    2    diag
    4      0.261D-02      0.396D-03       -92.91448813    111.585221    0.00113    0.00000   -1.29931    3    diag
    5      0.461D-03      0.858D-04       -92.91450156    111.594560    0.00103    0.00000   -1.29782    4    diag
    6      0.112D-03      0.233D-04       -92.91450237    111.589698    0.00101    0.00000   -1.29789    5    diag
    7      0.244D-04      0.829D-05       -92.91450245    111.590904    0.00101    0.00000   -1.29794    6    diag
    8      0.815D-05      0.175D-05       -92.91450245    111.590848    0.00101    0.00000   -1.29791    7    diag
    9      0.172D-05      0.201D-06       -92.91450245    111.590857    0.00101    0.00000   -1.29791    8    diag
   10      0.250D-06      0.254D-07       -92.91450245    111.590858    0.00101    0.00000   -1.29791    9    orth
   11      0.283D-07      0.470D-08       -92.91450245    111.590858    0.00101    0.00000   -1.29791    9    diag
   12      0.603D-08      0.172D-08       -92.91450245    111.590858    0.00101    0.00000   -1.29791    9    diag
   13      0.296D-08      0.828D-09       -92.91450245    111.590858    0.00101    0.00000   -1.29791    9    diag
   14      0.216D-08      0.202D-09       -92.91450245    111.590858    0.00101    0.00000   -1.29791    9    diag
   15      0.453D-09      0.785D-10       -92.91450245    111.590858    0.00101    0.00000   -1.29791    9    diag
   16      0.161D-09      0.180D-10       -92.91450245    111.590858    0.00101    0.00000   -1.29791    9    diag
   17      0.369D-10      0.384D-11       -92.91450245    111.590858    0.00101    0.00000   -1.29791    9    diag
   18      0.715D-11      0.507D-12       -92.91450245    111.590858    0.00101    0.00000   -1.29791    9    diag
   19      0.972D-11      0.214D-12       -92.91450245    111.590858    0.00101    0.00000   -1.29791    9    fixocc
   20      0.634D-11      0.209D-12       -92.91450245    111.590858    0.00101    0.00000   -1.29791    9    orth
   21      0.511D-11      0.150D-12       -92.91450245    111.590858    0.00101    0.00000   -1.29791    9    diag
   22      0.161D-11      0.156D-12       -92.91450245    111.590858    0.00101    0.00000   -1.29791    9    diag
   23      0.185D-11      0.108D-12       -92.91450245    111.590858    0.00101    0.00000   -1.29791    9    diag
   24      0.970D-12      0.139D-12       -92.91450245    111.590858    0.00101    0.00000   -1.29791    9    diag
   25      0.254D-12      0.128D-12       -92.91450245    111.590858    0.00101    0.00000   -1.29791    0    orth

 Final occupancy:   6   1

 !RHF STATE 1.1 Energy                -92.914502448409
 Nuclear energy                        23.90823397
 One-electron energy                 -172.61816550
 Two-electron energy                   55.79542908
 Virial quotient                       -1.00213899
 !RHF STATE 1.1 Dipole moment           0.00100774     0.00000000    -1.29790718
 Dipole moment /Debye                   0.00256126     0.00000000    -3.29873494

 Orbital energies:

         1.1          2.1          3.1          4.1          5.1          6.1          7.1          8.1
    -15.598283   -11.291518    -1.236565    -0.811271    -0.582116    -0.496949     0.020514     0.062616

         1.2          2.2          3.2
     -0.496951     0.063589     0.119721

 HOMO      6.1    -0.496949 =     -13.5227eV
 LUMO      7.1     0.020514 =       0.5582eV
 LUMO-HOMO         0.517463 =      14.0809eV


 **********************************************************************************************************************************
 DATASETS  * FILE   NREC   LENGTH (MB)   RECORD NAMES
              1      19      943.99       500      610      700      900      950      970     1000      129      960     1100   
                                          VAR    BASINP    GEOM    SYMINP    ZMAT    AOBASIS   BASIS     P2S    ABASIS      S 
                                         1400     1410     1200     1210     1080     1600     1650     1300     1700   
                                           T        V       H0       H01     AOSYM     SMH    MOLCAS    ERIS     OPER   

              2       4        3.27       700     1000      520     2100   
                                         GEOM     BASIS   MCVARS     RHF  

 PROGRAMS   *        TOTAL        HF       INT
 CPU TIMES  *        21.68     11.51     10.09
 REAL TIME  *        27.74 SEC
 DISK USED  *         3.13 GB      
 **********************************************************************************************************************************


 PROGRAM * CCSD (Closed-shell coupled cluster)     Authors: C. Hampel, H.-J. Werner, 1991, M. Deegan, P.J. Knowles, 1992


 Convergence thresholds:  THRVAR = 1.00D-08  THRDEN = 1.00D-12

 CCSD(T)     terms to be evaluated (factor= 1.000)


 Number of core orbitals:           2 (   2   0 )
 Number of closed-shell orbitals:   5 (   4   1 )
 Number of external orbitals:     199 ( 124  75 )

 Molecular orbitals read from record     2100.2  Type=RHF/CANONICAL (state 1.1)

 Number of N-1 electron functions:               5
 Number of N-2 electron functions:              15
 Number of singly external CSFs:               571
 Number of doubly external CSFs:            253406
 Total number of CSFs:                      253978

 Length of J-op  integral file:               0.00 MB
 Length of K-op  integral file:               1.60 MB
 Length of 3-ext integral record:             0.00 MB

 Memory could be reduced to 30.93 Mwords without degradation in triples

 Integral transformation finished. Total CPU:   1.20 sec, npass=  1  Memory used:   8.33 MW

 Reference energy:                    -92.91450245

 MP2 singlet pair energy:              -0.23806267
 MP2 triplet pair energy:              -0.13191893
 MP2 correlation energy:               -0.36998160
 MP2 total energy:                    -93.28448404

 SCS-MP2 correlation energy:           -0.36775809   (PS=  1.200000  PT=  0.333333)
 SCS-MP2 total energy:                -93.28226054

 ITER.      SQ.NORM     CORR.ENERGY   TOTAL ENERGY   ENERGY CHANGE        DEN1      VAR(S)    VAR(P)  DIIS     TIME  TIME/IT
   1      1.11574094    -0.36880659   -93.28330903     0.00117501     0.01432134  0.26D-02  0.31D-02  1  1     2.17     1.09
   2      1.12498697    -0.36901516   -93.28351760    -0.00020857    -0.01012681  0.62D-04  0.40D-03  2  2     3.10     1.11
   3      1.13004158    -0.36924100   -93.28374345    -0.00022584    -0.00261129  0.14D-04  0.44D-04  3  3     4.07     1.12
   4      1.13213096    -0.36931845   -93.28382090    -0.00007746    -0.00073944  0.60D-06  0.50D-05  4  4     5.04     1.12
   5      1.13266563    -0.36932224   -93.28382469    -0.00000379    -0.00015255  0.83D-07  0.44D-06  5  5     5.99     1.12
   6      1.13277951    -0.36931967   -93.28382212     0.00000257    -0.00003014  0.95D-08  0.35D-07  6  6     6.94     1.13
   7      1.13278745    -0.36932124   -93.28382369    -0.00000157    -0.00000101  0.89D-09  0.29D-08  6  1     7.92     1.13
   8      1.13278916    -0.36932171   -93.28382416    -0.00000048    -0.00000044  0.11D-09  0.26D-09  6  2     8.88     1.13
   9      1.13278935    -0.36932178   -93.28382423    -0.00000007    -0.00000010  0.11D-10  0.17D-10  6  3     9.84     1.13
  10      1.13278921    -0.36932182   -93.28382427    -0.00000004     0.00000011  0.11D-11  0.16D-11  6  4    10.83     1.13
  11      1.13278915    -0.36932184   -93.28382429    -0.00000001     0.00000003  0.17D-12  0.15D-12  6  5    11.79     1.13
  12      1.13278909    -0.36932184   -93.28382429    -0.00000000     0.00000003  0.22D-13  0.25D-13  6  6    12.77     1.13
  13      1.13278905    -0.36932184   -93.28382429    -0.00000000     0.00000001  0.26D-14  0.58D-14  6  1    13.73     1.13
  14      1.13278904    -0.36932184   -93.28382429    -0.00000000     0.00000001  0.37D-15  0.62D-15  6  3    14.67     1.13
  15      1.13278903    -0.36932184   -93.28382429    -0.00000000     0.00000000  0.44D-16  0.43D-16  6  2    15.67     1.13
  16      1.13278903    -0.36932184   -93.28382429     0.00000000     0.00000000  0.13D-16  0.59D-17  6  4    16.63     1.13
  17      1.13278903    -0.36932184   -93.28382429    -0.00000000     0.00000000  0.31D-17  0.11D-17  6  5    17.64     1.13
  18      1.13278903    -0.36932184   -93.28382429     0.00000000     0.00000000  0.43D-18  0.22D-18  6  6    18.58     1.13
  19      1.13278903    -0.36932184   -93.28382429     0.00000000    -0.00000000  0.46D-19  0.37D-19  6  1    19.58     1.13
  20      1.13278903    -0.36932184   -93.28382429     0.00000000    -0.00000000  0.12D-19  0.11D-19  6  3    20.62     1.13

 Norm of t1 vector:      0.06439753      S-energy:    -0.00000000      T1 diagnostic:  0.01439973
                                                                       D1 diagnostic:  0.02889992

 Doubles amplitudes (print threshold =  0.500E-01):

         I         J         SYM. A    SYM. B    A         B      T(IJ, AB)

         4         4         1         1         7         7     -0.05048434
         5         5         2         2         3         3     -0.05052795


 Total CPU time for triples:      8.39 sec


 RESULTS
 =======

  Reference energy                    -92.914502448409
  CCSD singlet pair energy             -0.258829305397
  CCSD triplet pair energy             -0.110492539233
  CCSD correlation energy              -0.369321844631

  Triples (T) contribution             -0.019588189598
  Total correlation energy             -0.388910034230

  CCSD total energy                   -93.283824293040
  CCSD[T] energy                      -93.304245598746
  CCSD-T energy                       -93.303033004479
 !CCSD(T) total energy                -93.303412482638

 Timing summary (sec):

 STEP                 CPU(USER)    SYS     CPU(TOT)    WALL
 Transformation          1.21      0.23      1.44      1.44
 CCSD iterations        19.42      3.28     22.70     22.69
 Triples                 8.39      0.22      8.61      8.62

 Program statistics:

 Available memory in ccsd:               994999800
 Min. memory needed in ccsd:               1003324
 Max. memory used in ccsd:                 1199476
 Max. memory used in cckext:               2145959 (20 integral passes)



 **********************************************************************************************************************************
 DATASETS  * FILE   NREC   LENGTH (MB)   RECORD NAMES
              1      20     1028.32       500      610      700      900      950      970     1000      129      960     1100   
                                          VAR    BASINP    GEOM    SYMINP    ZMAT    AOBASIS   BASIS     P2S    ABASIS      S 
                                         1400     1410     1200     1210     1080     1600     1650     1300     1700     1380   
                                           T        V       H0       H01     AOSYM     SMH    MOLCAS    ERIS     OPER     JKOP   

              2       4        3.27       700     1000      520     2100   
                                         GEOM     BASIS   MCVARS     RHF  

 PROGRAMS   *        TOTAL   CCSD(T)        HF       INT
 CPU TIMES  *        50.74     29.06     11.51     10.09
 REAL TIME  *        60.60 SEC
 DISK USED  *         3.13 GB      
 **********************************************************************************************************************************

 CCSD(T)/aug-cc-pVQZ energy=    -93.303412482638

        CCSD(T)         HF-SCF  
    -93.30341248    -92.91450245
 **********************************************************************************************************************************
 Molpro calculation terminated
 Variable memory released
