
 Primary working directories    : /tmp/r2666/232481.maple
 Secondary working directories  : /tmp/r2666/232481.maple
 Wavefunction directory         : /ddn/home4/r2666/wfu/
 Main file repository           : /tmp/r2666/232481.maple/

 SHA1      : d5ffa45e93fdbca01ffc919aa182cfdae0147319
 NAME      : 2015.1.35
 ARCHNAME  : linux/x86_64
 FC        : /opt/intel/composer_xe_2015.1.133/bin/intel64/ifort
 BLASLIB   : -Wl,-_start-group /opt/intel/mkl/lib/intel64/libmkl_intel_ilp64.a /opt/intel/mkl/lib/intel64/libmkl_intel_thread.a /opt/intel/mkl/lib/intel64/libmkl_core.a -Wl,-_end-group
 id        : olemiss

 Nodes     nprocs
 cn078        1

 Using customized tuning parameters: mindgm=1; mindgv=20; mindgc=4; mindgr=1; noblas=0; minvec=7
 default implementation of scratch files=df  

 ***,hcn CCSD(T)/TZ-F12 QFF
 memory, 995, m;
 gthresh,energy=1.d-12,zero=1.d-22,oneint=1.d-22,twoint=1.d-22;
 gthresh,optgrad=1.d-8,optstep=1.d-8;
 nocompress;
 geomtyp=xyz
 bohr
 geometry={
 3
         35        35
 N        0.0000000000        0.0000000000        1.1372995643
 C        0.0000000000        0.0000000000       -1.0415501027
 H        0.0000000000        0.0000000000       -3.0928194435
 }
 
 basis=avqz
   {hf,maxit=500;accu,20;}
 {ccsd(t),nocheck,maxit=250;orbital,IGNORE_ERROR;}

 Variables initialized (889), CPU time= 0.01 sec
 Commands  initialized (702), CPU time= 0.01 sec, 572 directives.
 Default parameters read. Elapsed time= 0.05 sec

 Checking input...
 Passed
1


                                         ***  PROGRAM SYSTEM MOLPRO  ***
                                       Copyright, TTI GmbH Stuttgart, 2015
                                    Version 2015.1 linked Jul  9 2018 13:16:40


 **********************************************************************************************************************************
 LABEL *   hcn CCSD(T)/TZ-F12 QFF                                                        
  64 bit serial version                                                                  DATE: 06-Feb-20          TIME: 09:53:20  
 **********************************************************************************************************************************

 SHA1:             d5ffa45e93fdbca01ffc919aa182cfdae0147319
 **********************************************************************************************************************************

 THRESHOLDS:

 ZERO    =  1.00D-22  ONEINT  =  1.00D-22  TWOINT  =  1.00D-22  PREFAC  =  1.00D-14  LOCALI  =  1.00D-09  EORDER  =  1.00D-04
 ENERGY  =  1.00D-12  ETEST   =  0.00D+00  EDENS   =  0.00D+00  THRDEDEF=  1.00D-06  GRADIENT=  1.00D-02  STEP    =  1.00D-03
 ORBITAL =  1.00D-05  CIVEC   =  1.00D-05  COEFF   =  1.00D-04  PRINTCI =  5.00D-02  PUNCHCI =  9.90D+01  OPTGRAD =  3.00D-04
 OPTENERG=  1.00D-06  OPTSTEP =  3.00D-04  THRGRAD =  1.00D-10  COMPRESS=  1.00D-11  VARMIN  =  1.00D-07  VARMAX  =  1.00D-03
 THRDOUB =  0.00D+00  THRDIV  =  1.00D-05  THRRED  =  1.00D-07  THRPSP  =  1.00D+00  THRDC   =  1.00D-10  THRCS   =  1.00D-10
 THRNRM  =  1.00D-08  THREQ   =  0.00D+00  THRDE   =  1.00D+00  THRREF  =  1.00D-05  SPARFAC =  1.00D+00  THRDLP  =  1.00D-07
 THRDIA  =  1.00D-10  THRDLS  =  1.00D-07  THRGPS  =  0.00D+00  THRKEX  =  0.00D+00  THRDIS  =  2.00D-01  THRVAR  =  1.00D-10
 THRLOC  =  1.00D-06  THRGAP  =  1.00D-06  THRLOCT = -1.00D+00  THRGAPT = -1.00D+00  THRORB  =  1.00D-06  THRMLTP =  0.00D+00
 THRCPQCI=  1.00D-10  KEXTA   =  0.00D+00  THRCOARS=  0.00D+00  SYMTOL  =  1.00D-06  GRADTOL =  1.00D-06  THROVL  =  1.00D-08
 THRORTH =  1.00D-08  GRID    =  1.00D-06  GRIDMAX =  1.00D-03  DTMAX   =  0.00D+00  THROCCDE=  1.00D-01  THROCCDE=  1.00D-01



 THRESHOLDS:

 ZERO    =  1.00D-22  ONEINT  =  1.00D-22  TWOINT  =  1.00D-22  PREFAC  =  1.00D-14  LOCALI  =  1.00D-09  EORDER  =  1.00D-04
 ENERGY  =  1.00D-12  ETEST   =  0.00D+00  EDENS   =  0.00D+00  THRDEDEF=  1.00D-06  GRADIENT=  1.00D-02  STEP    =  1.00D-03
 ORBITAL =  1.00D-05  CIVEC   =  1.00D-05  COEFF   =  1.00D-04  PRINTCI =  5.00D-02  PUNCHCI =  9.90D+01  OPTGRAD =  1.00D-08
 OPTENERG=  1.00D-06  OPTSTEP =  1.00D-08  THRGRAD =  1.00D-10  COMPRESS=  1.00D-11  VARMIN  =  1.00D-07  VARMAX  =  1.00D-03
 THRDOUB =  0.00D+00  THRDIV  =  1.00D-05  THRRED  =  1.00D-07  THRPSP  =  1.00D+00  THRDC   =  1.00D-10  THRCS   =  1.00D-10
 THRNRM  =  1.00D-08  THREQ   =  0.00D+00  THRDE   =  1.00D+00  THRREF  =  1.00D-05  SPARFAC =  1.00D+00  THRDLP  =  1.00D-07
 THRDIA  =  1.00D-10  THRDLS  =  1.00D-07  THRGPS  =  0.00D+00  THRKEX  =  0.00D+00  THRDIS  =  2.00D-01  THRVAR  =  1.00D-10
 THRLOC  =  1.00D-06  THRGAP  =  1.00D-06  THRLOCT = -1.00D+00  THRGAPT = -1.00D+00  THRORB  =  1.00D-06  THRMLTP =  0.00D+00
 THRCPQCI=  1.00D-10  KEXTA   =  0.00D+00  THRCOARS=  0.00D+00  SYMTOL  =  1.00D-06  GRADTOL =  1.00D-06  THROVL  =  1.00D-08
 THRORTH =  1.00D-08  GRID    =  1.00D-06  GRIDMAX =  1.00D-03  DTMAX   =  0.00D+00  THROCCDE=  1.00D-01  THROCCDE=  1.00D-01



 Input parameters for SORTINT:

 COMPRESS =    0.000000
 C_FINAL  =    1.000000
 DEBUG    =   -1.000000
 C_SORT1  =    0.000000
 C_SEWARD =    0.000000
 THRESH   =    0.000000
 IO       =  molpro                                                          
 SPRI     =    0.000000
 SETTING GEOMTYP        =    XYZ
 ZUNIT=BOHR
 

 Variable memory set to  995000000 words,  buffer space   230000 words

 SETTING BASIS          =    AVQZ


 Recomputing integrals since basis changed


 Using spherical harmonics

 Library entry N      S aug-cc-pVQZ          selected for orbital group  1
 Library entry N      P aug-cc-pVQZ          selected for orbital group  1
 Library entry N      D aug-cc-pVQZ          selected for orbital group  1
 Library entry N      F aug-cc-pVQZ          selected for orbital group  1
 Library entry N      G aug-cc-pVQZ          selected for orbital group  1
 Library entry C      S aug-cc-pVQZ          selected for orbital group  2
 Library entry C      P aug-cc-pVQZ          selected for orbital group  2
 Library entry C      D aug-cc-pVQZ          selected for orbital group  2
 Library entry C      F aug-cc-pVQZ          selected for orbital group  2
 Library entry C      G aug-cc-pVQZ          selected for orbital group  2
 Library entry H      S aug-cc-pVQZ          selected for orbital group  3
 Library entry H      P aug-cc-pVQZ          selected for orbital group  3
 Library entry H      D aug-cc-pVQZ          selected for orbital group  3
 Library entry H      F aug-cc-pVQZ          selected for orbital group  3


 PROGRAM * SEWARD (Integral evaluation for generally contracted gaussian basis sets)     Author: Roland Lindh, 1990

 Geometry written to block  1 of record 700


 Point group  C2v 



 ATOMIC COORDINATES

 NR  ATOM    CHARGE       X              Y              Z

   1  N       7.00    0.000000000    0.000000000    1.137299564
   2  C       6.00    0.000000000    0.000000000   -1.041550103
   3  H       1.00    0.000000000    0.000000000   -3.092819443

 Bond lengths in Bohr (Angstrom)

 1-2  2.178849667  2-3  2.051269341
     ( 1.152997590)     ( 1.085484989)

 Bond angles

  1-2-3  180.00000000

 NUCLEAR CHARGE:                   14
 NUMBER OF PRIMITIVE AOS:         293
 NUMBER OF SYMMETRY AOS:          234
 NUMBER OF CONTRACTIONS:          206   (  81A1  +  49B1  +  49B2  +  27A2  )
 NUMBER OF CORE ORBITALS:           2   (   2A1  +   0B1  +   0B2  +   0A2  )
 NUMBER OF VALENCE ORBITALS:        9   (   5A1  +   2B1  +   2B2  +   0A2  )


 NUCLEAR REPULSION ENERGY   23.85604455

 EXTRA SYMMETRY OF AOS IN SYMMETRY 1:   1 1 1 1 1 1 1 1 1 1   1 1 2 1 2 1 2 1 2 1   2 1 2 1 2 1 3 2 1 3   2 1 1 1 1 1 1 1 1 1
                                        1 1 1 2 1 2 1 2 1 2   1 2 1 2 1 2 1 3 2 1   3 2 1 1 1 1 1 1 1 1   1 1 2 1 2 1 2 1 2 1
                                        2
 EXTRA SYMMETRY OF AOS IN SYMMETRY 2:   1 1 1 1 1 1 1 1 1 1   2 1 2 1 2 1 2 1 2 1   1 1 1 1 1 1 1 1 1 2   1 2 1 2 1 2 1 2 1 1
                                        1 1 1 1 1 1 2 1 2
 EXTRA SYMMETRY OF AOS IN SYMMETRY 3:   1 1 1 1 1 1 1 1 1 1   2 1 2 1 2 1 2 1 2 1   1 1 1 1 1 1 1 1 1 2   1 2 1 2 1 2 1 2 1 1
                                        1 1 1 1 1 1 2 1 2
 EXTRA SYMMETRY OF AOS IN SYMMETRY 4:   1 1 1 1 1 1 1 1 2 1   2 1 1 1 1 1 1 1 1 2   1 2 1 1 1 1 1

 Eigenvalues of metric

         1 0.187E-04 0.397E-04 0.798E-04 0.282E-03 0.403E-03 0.436E-03 0.532E-03 0.840E-03
         2 0.401E-03 0.996E-03 0.309E-02 0.374E-02 0.494E-02 0.661E-02 0.882E-02 0.108E-01
         3 0.401E-03 0.996E-03 0.309E-02 0.374E-02 0.494E-02 0.661E-02 0.882E-02 0.108E-01
         4 0.458E-02 0.133E-01 0.321E-01 0.593E-01 0.899E-01 0.143E+00 0.198E+00 0.231E+00


 Contracted 2-electron integrals neglected if value below      1.0D-22

       51220746. INTEGRALS WRITTEN OUT IN   12509 BLOCKS ON RECORD 1290 OF FILE 1


 NUMBER OF SORTED TWO-ELECTRON INTEGRALS:   58298162.     BUFFER LENGTH:  32768
 NUMBER OF SEGMENTS:   4  SEGMENT LENGTH:   15999501      RECORD LENGTH: 524288

 Memory used in sort:      16.56 MW

 SORT1 READ    51220746. AND WROTE    51976074. INTEGRALS IN    150 RECORDS. CPU TIME:     1.32 SEC, REAL TIME:     1.62 SEC
 SORT2 READ    51976074. AND WROTE    58298162. INTEGRALS IN      4 RECORDS. CPU TIME:     0.79 SEC, REAL TIME:     1.07 SEC

 FILE SIZES:   FILE 1:   840.7 MBYTE,  FILE 4:   629.2 MBYTE,   TOTAL:   1469.8 MBYTE

 OPERATOR DM      FOR CENTER  0  COORDINATES:    0.000000    0.000000    0.000000


 **********************************************************************************************************************************
 DATASETS  * FILE   NREC   LENGTH (MB)   RECORD NAMES
              1      19      461.84       500      610      700      900      950      970     1000      129      960     1100   
                                          VAR    BASINP    GEOM    SYMINP    ZMAT    AOBASIS   BASIS     P2S    ABASIS      S 
                                         1400     1410     1200     1210     1080     1600     1650     1300     1700   
                                           T        V       H0       H01     AOSYM     SMH    MOLCAS    ERIS     OPER   

 PROGRAMS   *        TOTAL       INT
 CPU TIMES  *         8.72      8.62
 REAL TIME  *        10.63 SEC
 DISK USED  *         1.47 GB      
 **********************************************************************************************************************************


 PROGRAM * RHF-SCF (CLOSED SHELL)       Authors: W. Meyer, H.-J. Werner


 NUMBER OF ELECTRONS:       7+    7-
 CONVERGENCE THRESHOLDS:    1.00E-10 (Density)    1.00E-13 (Energy)
 MAX. NUMBER OF ITERATIONS:      500
 INTERPOLATION TYPE:            DIIS
 INTERPOLATION STEPS:              2 (START)      1 (STEP)
 LEVEL SHIFTS:                  0.00 (CLOSED)  0.00 (OPEN) 



 Orbital guess generated from atomic densities. Full valence occupancy:    7   2   2   0

 Molecular orbital dump at record        2100.2

 Initial occupancy:   5   1   1   0

 ITERATION    DDIFF          GRAD             ENERGY        2-EL.EN.            DIPOLE MOMENTS         DIIS   ORB.
    1      0.000D+00      0.000D+00       -92.88887551    111.891607    0.00000    0.00000   -1.80834    0    start
    2      0.000D+00      0.717D-02       -92.89792632    110.988313    0.00000    0.00000   -0.90334    1    diag
    3      0.727D-02      0.641D-02       -92.91382320    111.540181    0.00000    0.00000   -1.31887    2    diag
    4      0.361D-02      0.514D-03       -92.91404918    111.504340    0.00000    0.00000   -1.30771    3    diag
    5      0.618D-03      0.113D-03       -92.91406283    111.513763    0.00000    0.00000   -1.30617    4    diag
    6      0.152D-03      0.311D-04       -92.91406366    111.508873    0.00000    0.00000   -1.30623    5    diag
    7      0.338D-04      0.110D-04       -92.91406374    111.510113    0.00000    0.00000   -1.30629    6    diag
    8      0.113D-04      0.233D-05       -92.91406375    111.510055    0.00000    0.00000   -1.30626    7    diag
    9      0.235D-05      0.265D-06       -92.91406375    111.510064    0.00000    0.00000   -1.30626    8    diag
   10      0.338D-06      0.320D-07       -92.91406375    111.510065    0.00000    0.00000   -1.30626    9    orth
   11      0.369D-07      0.452D-08       -92.91406375    111.510065    0.00000    0.00000   -1.30626    9    diag
   12      0.579D-08      0.436D-09       -92.91406375    111.510065    0.00000    0.00000   -1.30626    9    diag
   13      0.109D-08      0.562D-10       -92.91406375    111.510065    0.00000    0.00000   -1.30626    9    diag
   14      0.870D-10      0.672D-11       -92.91406375    111.510065    0.00000    0.00000   -1.30626    9    diag
   15      0.236D-10      0.250D-11       -92.91406375    111.510065    0.00000    0.00000   -1.30626    9    diag
   16      0.940D-11      0.552D-12       -92.91406375    111.510065    0.00000    0.00000   -1.30626    9    diag
   17      0.170D-10      0.160D-12       -92.91406375    111.510065    0.00000    0.00000   -1.30626    9    diag
   18      0.697D-11      0.240D-12       -92.91406375    111.510065    0.00000    0.00000   -1.30626    9    diag
   19      0.404D-11      0.156D-12       -92.91406375    111.510065    0.00000    0.00000   -1.30626    9    fixocc
   20      0.183D-11      0.201D-12       -92.91406375    111.510065    0.00000    0.00000   -1.30626    0    orth

 Final occupancy:   5   1   1   0

 !RHF STATE 1.1 Energy                -92.914063746546
 Nuclear energy                        23.85604455
 One-electron energy                 -172.52514072
 Two-electron energy                   55.75503243
 Virial quotient                       -1.00238009
 !RHF STATE 1.1 Dipole moment           0.00000000     0.00000000    -1.30625654
 Dipole moment /Debye                   0.00000000     0.00000000    -3.31995549

 Orbital energies:

         1.1          2.1          3.1          4.1          5.1          6.1          7.1
    -15.597995   -11.292630    -1.236366    -0.805493    -0.581600     0.020453     0.062561

         1.2          2.2          3.2
     -0.496727     0.063596     0.119890

         1.3          2.3          3.3
     -0.496727     0.063596     0.119890

         1.4          2.4
      0.226006     0.395016

 HOMO      1.2    -0.496727 =     -13.5166eV
 LUMO      6.1     0.020453 =       0.5566eV
 LUMO-HOMO         0.517180 =      14.0732eV


 **********************************************************************************************************************************
 DATASETS  * FILE   NREC   LENGTH (MB)   RECORD NAMES
              1      19      461.84       500      610      700      900      950      970     1000      129      960     1100   
                                          VAR    BASINP    GEOM    SYMINP    ZMAT    AOBASIS   BASIS     P2S    ABASIS      S 
                                         1400     1410     1200     1210     1080     1600     1650     1300     1700   
                                           T        V       H0       H01     AOSYM     SMH    MOLCAS    ERIS     OPER   

              2       4        3.06       700     1000      520     2100   
                                         GEOM     BASIS   MCVARS     RHF  

 PROGRAMS   *        TOTAL        HF       INT
 CPU TIMES  *        12.32      3.60      8.62
 REAL TIME  *        15.19 SEC
 DISK USED  *         1.47 GB      
 **********************************************************************************************************************************


 PROGRAM * CCSD (Closed-shell coupled cluster)     Authors: C. Hampel, H.-J. Werner, 1991, M. Deegan, P.J. Knowles, 1992


 Convergence thresholds:  THRVAR = 1.00D-08  THRDEN = 1.00D-12

 CCSD(T)     terms to be evaluated (factor= 1.000)


 Number of core orbitals:           2 (   2   0   0   0 )
 Number of closed-shell orbitals:   5 (   3   1   1   0 )
 Number of external orbitals:     199 (  76  48  48  27 )

 Molecular orbitals read from record     2100.2  Type=RHF/CANONICAL (state 1.1)

 Number of N-1 electron functions:               5
 Number of N-2 electron functions:              15
 Number of singly external CSFs:               324
 Number of doubly external CSFs:            129659
 Total number of CSFs:                      129984

 Length of J-op  integral file:               0.00 MB
 Length of K-op  integral file:               0.86 MB
 Length of 3-ext integral record:             0.00 MB

 Memory could be reduced to 15.89 Mwords without degradation in triples

 Integral transformation finished. Total CPU:   0.45 sec, npass=  1  Memory used:   1.90 MW

 Reference energy:                    -92.91406375

 MP2 singlet pair energy:              -0.23817365
 MP2 triplet pair energy:              -0.13196077
 MP2 correlation energy:               -0.37013442
 MP2 total energy:                    -93.28419817

 SCS-MP2 correlation energy:           -0.36791731   (PS=  1.200000  PT=  0.333333)
 SCS-MP2 total energy:                -93.28198105

 ITER.      SQ.NORM     CORR.ENERGY   TOTAL ENERGY   ENERGY CHANGE        DEN1      VAR(S)    VAR(P)  DIIS     TIME  TIME/IT
   1      1.11602154    -0.36896417   -93.28302791     0.00117025     0.01435733  0.26D-02  0.31D-02  1  1     0.91     0.53
   2      1.12531919    -0.36918389   -93.28324763    -0.00021972    -0.01015693  0.62D-04  0.41D-03  2  2     1.36     0.54
   3      1.13042470    -0.36941520   -93.28347894    -0.00023131    -0.00263313  0.14D-04  0.44D-04  3  3     1.82     0.54
   4      1.13252793    -0.36949336   -93.28355711    -0.00007816    -0.00074431  0.61D-06  0.50D-05  4  4     2.28     0.54
   5      1.13306628    -0.36949780   -93.28356155    -0.00000444    -0.00015307  0.92D-07  0.46D-06  5  5     2.76     0.54
   6      1.13318394    -0.36949511   -93.28355885     0.00000269    -0.00003118  0.98D-08  0.36D-07  6  6     3.22     0.54
   7      1.13319240    -0.36949664   -93.28356039    -0.00000153    -0.00000114  0.91D-09  0.30D-08  6  1     3.68     0.54
   8      1.13319422    -0.36949711   -93.28356085    -0.00000047    -0.00000048  0.12D-09  0.26D-09  6  2     4.16     0.54
   9      1.13319445    -0.36949717   -93.28356092    -0.00000006    -0.00000010  0.11D-10  0.18D-10  6  3     4.62     0.54
  10      1.13319431    -0.36949721   -93.28356096    -0.00000004     0.00000012  0.12D-11  0.17D-11  6  4     5.07     0.54
  11      1.13319425    -0.36949723   -93.28356098    -0.00000001     0.00000003  0.15D-12  0.16D-12  6  5     5.54     0.54
  12      1.13319419    -0.36949723   -93.28356098    -0.00000000     0.00000003  0.16D-13  0.29D-13  6  6     6.00     0.54
  13      1.13319415    -0.36949724   -93.28356098    -0.00000000     0.00000001  0.18D-14  0.62D-14  6  1     6.47     0.54
  14      1.13319414    -0.36949724   -93.28356098    -0.00000000     0.00000001  0.12D-15  0.71D-15  6  3     6.92     0.54
  15      1.13319413    -0.36949724   -93.28356098    -0.00000000     0.00000000  0.16D-16  0.43D-16  6  2     7.41     0.54
  16      1.13319413    -0.36949724   -93.28356098     0.00000000     0.00000000  0.17D-17  0.48D-17  6  4     7.88     0.54
  17      1.13319413    -0.36949724   -93.28356098    -0.00000000     0.00000000  0.44D-18  0.66D-18  6  5     8.34     0.54
  18      1.13319413    -0.36949724   -93.28356098    -0.00000000     0.00000000  0.56D-19  0.53D-19  6  6     8.81     0.54
  19      1.13319413    -0.36949724   -93.28356098    -0.00000000     0.00000000  0.86D-20  0.84D-20  6  1     9.28     0.54

 Norm of t1 vector:      0.06450799      S-energy:    -0.00000000      T1 diagnostic:  0.01442443
                                                                       D1 diagnostic:  0.02887617

 Doubles amplitudes (print threshold =  0.500E-01):

         I         J         SYM. A    SYM. B    A         B      T(IJ, AB)

         4         4         2         2         3         3     -0.05045015
         5         5         3         3         3         3     -0.05045015


 Total CPU time for triples:      3.13 sec


 RESULTS
 =======

  Reference energy                    -92.914063746546
  CCSD singlet pair energy             -0.259015422486
  CCSD triplet pair energy             -0.110481813049
  CCSD correlation energy              -0.369497235537

  Triples (T) contribution             -0.019628786597
  Total correlation energy             -0.389126022135

  CCSD total energy                   -93.283560982084
  CCSD[T] energy                      -93.304025301597
  CCSD-T energy                       -93.302809632221
 !CCSD(T) total energy                -93.303189768681

 Timing summary (sec):

 STEP                 CPU(USER)    SYS     CPU(TOT)    WALL
 Transformation          0.46      0.13      0.59      0.59
 CCSD iterations         8.82      1.48     10.30     10.31
 Triples                 3.13      0.10      3.23      3.22

 Program statistics:

 Available memory in ccsd:               994999800
 Min. memory needed in ccsd:                524097
 Max. memory used in ccsd:                  626326
 Max. memory used in cckext:                818237 (19 integral passes)



 **********************************************************************************************************************************
 DATASETS  * FILE   NREC   LENGTH (MB)   RECORD NAMES
              1      20      504.82       500      610      700      900      950      970     1000      129      960     1100   
                                          VAR    BASINP    GEOM    SYMINP    ZMAT    AOBASIS   BASIS     P2S    ABASIS      S 
                                         1400     1410     1200     1210     1080     1600     1650     1300     1700     1380   
                                           T        V       H0       H01     AOSYM     SMH    MOLCAS    ERIS     OPER     JKOP   

              2       4        3.06       700     1000      520     2100   
                                         GEOM     BASIS   MCVARS     RHF  

 PROGRAMS   *        TOTAL   CCSD(T)        HF       INT
 CPU TIMES  *        24.75     12.43      3.60      8.62
 REAL TIME  *        29.36 SEC
 DISK USED  *         1.47 GB      
 **********************************************************************************************************************************

 CCSD(T)/aug-cc-pVQZ energy=    -93.303189768681

        CCSD(T)         HF-SCF  
    -93.30318977    -92.91406375
 **********************************************************************************************************************************
 Molpro calculation terminated
 Variable memory released
