
 Primary working directories    : /tmp/r2666/232495.maple
 Secondary working directories  : /tmp/r2666/232495.maple
 Wavefunction directory         : /ddn/home4/r2666/wfu/
 Main file repository           : /tmp/r2666/232495.maple/

 SHA1      : d5ffa45e93fdbca01ffc919aa182cfdae0147319
 NAME      : 2015.1.35
 ARCHNAME  : linux/x86_64
 FC        : /opt/intel/composer_xe_2015.1.133/bin/intel64/ifort
 BLASLIB   : -Wl,-_start-group /opt/intel/mkl/lib/intel64/libmkl_intel_ilp64.a /opt/intel/mkl/lib/intel64/libmkl_intel_thread.a /opt/intel/mkl/lib/intel64/libmkl_core.a -Wl,-_end-group
 id        : olemiss

 Nodes     nprocs
 cn078        1

 Using customized tuning parameters: mindgm=1; mindgv=20; mindgc=4; mindgr=1; noblas=0; minvec=7
 default implementation of scratch files=df  

 ***,hcn CCSD(T)/TZ-F12 QFF
 memory, 995, m;
 gthresh,energy=1.d-12,zero=1.d-22,oneint=1.d-22,twoint=1.d-22;
 gthresh,optgrad=1.d-8,optstep=1.d-8;
 nocompress;
 geomtyp=xyz
 bohr
 geometry={
 3
         49        49
 N       -0.0046350011        0.0000001318        1.1372508040
 C        0.0096508443       -0.0000000034       -1.0604496918
 H       -0.0050158432       -0.0000001284       -3.0738710941
 }
 
 basis=avqz
   {hf,maxit=500;accu,20;}
 {ccsd(t),nocheck,maxit=250;orbital,IGNORE_ERROR;}

 Variables initialized (889), CPU time= 0.01 sec
 Commands  initialized (702), CPU time= 0.00 sec, 572 directives.
 Default parameters read. Elapsed time= 0.04 sec

 Checking input...
 Passed
1


                                         ***  PROGRAM SYSTEM MOLPRO  ***
                                       Copyright, TTI GmbH Stuttgart, 2015
                                    Version 2015.1 linked Jul  9 2018 13:16:40


 **********************************************************************************************************************************
 LABEL *   hcn CCSD(T)/TZ-F12 QFF                                                        
  64 bit serial version                                                                  DATE: 06-Feb-20          TIME: 09:53:53  
 **********************************************************************************************************************************

 SHA1:             d5ffa45e93fdbca01ffc919aa182cfdae0147319
 **********************************************************************************************************************************

 THRESHOLDS:

 ZERO    =  1.00D-22  ONEINT  =  1.00D-22  TWOINT  =  1.00D-22  PREFAC  =  1.00D-14  LOCALI  =  1.00D-09  EORDER  =  1.00D-04
 ENERGY  =  1.00D-12  ETEST   =  0.00D+00  EDENS   =  0.00D+00  THRDEDEF=  1.00D-06  GRADIENT=  1.00D-02  STEP    =  1.00D-03
 ORBITAL =  1.00D-05  CIVEC   =  1.00D-05  COEFF   =  1.00D-04  PRINTCI =  5.00D-02  PUNCHCI =  9.90D+01  OPTGRAD =  3.00D-04
 OPTENERG=  1.00D-06  OPTSTEP =  3.00D-04  THRGRAD =  1.00D-10  COMPRESS=  1.00D-11  VARMIN  =  1.00D-07  VARMAX  =  1.00D-03
 THRDOUB =  0.00D+00  THRDIV  =  1.00D-05  THRRED  =  1.00D-07  THRPSP  =  1.00D+00  THRDC   =  1.00D-10  THRCS   =  1.00D-10
 THRNRM  =  1.00D-08  THREQ   =  0.00D+00  THRDE   =  1.00D+00  THRREF  =  1.00D-05  SPARFAC =  1.00D+00  THRDLP  =  1.00D-07
 THRDIA  =  1.00D-10  THRDLS  =  1.00D-07  THRGPS  =  0.00D+00  THRKEX  =  0.00D+00  THRDIS  =  2.00D-01  THRVAR  =  1.00D-10
 THRLOC  =  1.00D-06  THRGAP  =  1.00D-06  THRLOCT = -1.00D+00  THRGAPT = -1.00D+00  THRORB  =  1.00D-06  THRMLTP =  0.00D+00
 THRCPQCI=  1.00D-10  KEXTA   =  0.00D+00  THRCOARS=  0.00D+00  SYMTOL  =  1.00D-06  GRADTOL =  1.00D-06  THROVL  =  1.00D-08
 THRORTH =  1.00D-08  GRID    =  1.00D-06  GRIDMAX =  1.00D-03  DTMAX   =  0.00D+00  THROCCDE=  1.00D-01  THROCCDE=  1.00D-01



 THRESHOLDS:

 ZERO    =  1.00D-22  ONEINT  =  1.00D-22  TWOINT  =  1.00D-22  PREFAC  =  1.00D-14  LOCALI  =  1.00D-09  EORDER  =  1.00D-04
 ENERGY  =  1.00D-12  ETEST   =  0.00D+00  EDENS   =  0.00D+00  THRDEDEF=  1.00D-06  GRADIENT=  1.00D-02  STEP    =  1.00D-03
 ORBITAL =  1.00D-05  CIVEC   =  1.00D-05  COEFF   =  1.00D-04  PRINTCI =  5.00D-02  PUNCHCI =  9.90D+01  OPTGRAD =  1.00D-08
 OPTENERG=  1.00D-06  OPTSTEP =  1.00D-08  THRGRAD =  1.00D-10  COMPRESS=  1.00D-11  VARMIN  =  1.00D-07  VARMAX  =  1.00D-03
 THRDOUB =  0.00D+00  THRDIV  =  1.00D-05  THRRED  =  1.00D-07  THRPSP  =  1.00D+00  THRDC   =  1.00D-10  THRCS   =  1.00D-10
 THRNRM  =  1.00D-08  THREQ   =  0.00D+00  THRDE   =  1.00D+00  THRREF  =  1.00D-05  SPARFAC =  1.00D+00  THRDLP  =  1.00D-07
 THRDIA  =  1.00D-10  THRDLS  =  1.00D-07  THRGPS  =  0.00D+00  THRKEX  =  0.00D+00  THRDIS  =  2.00D-01  THRVAR  =  1.00D-10
 THRLOC  =  1.00D-06  THRGAP  =  1.00D-06  THRLOCT = -1.00D+00  THRGAPT = -1.00D+00  THRORB  =  1.00D-06  THRMLTP =  0.00D+00
 THRCPQCI=  1.00D-10  KEXTA   =  0.00D+00  THRCOARS=  0.00D+00  SYMTOL  =  1.00D-06  GRADTOL =  1.00D-06  THROVL  =  1.00D-08
 THRORTH =  1.00D-08  GRID    =  1.00D-06  GRIDMAX =  1.00D-03  DTMAX   =  0.00D+00  THROCCDE=  1.00D-01  THROCCDE=  1.00D-01



 Input parameters for SORTINT:

 COMPRESS =    0.000000
 C_FINAL  =    1.000000
 DEBUG    =   -1.000000
 C_SORT1  =    0.000000
 C_SEWARD =    0.000000
 THRESH   =    0.000000
 IO       =  molpro                                                          
 SPRI     =    0.000000
 SETTING GEOMTYP        =    XYZ
 ZUNIT=BOHR
 

 Variable memory set to  995000000 words,  buffer space   230000 words

 SETTING BASIS          =    AVQZ


 Recomputing integrals since basis changed


 Using spherical harmonics

 Library entry N      S aug-cc-pVQZ          selected for orbital group  1
 Library entry N      P aug-cc-pVQZ          selected for orbital group  1
 Library entry N      D aug-cc-pVQZ          selected for orbital group  1
 Library entry N      F aug-cc-pVQZ          selected for orbital group  1
 Library entry N      G aug-cc-pVQZ          selected for orbital group  1
 Library entry C      S aug-cc-pVQZ          selected for orbital group  2
 Library entry C      P aug-cc-pVQZ          selected for orbital group  2
 Library entry C      D aug-cc-pVQZ          selected for orbital group  2
 Library entry C      F aug-cc-pVQZ          selected for orbital group  2
 Library entry C      G aug-cc-pVQZ          selected for orbital group  2
 Library entry H      S aug-cc-pVQZ          selected for orbital group  3
 Library entry H      P aug-cc-pVQZ          selected for orbital group  3
 Library entry H      D aug-cc-pVQZ          selected for orbital group  3
 Library entry H      F aug-cc-pVQZ          selected for orbital group  3


 PROGRAM * SEWARD (Integral evaluation for generally contracted gaussian basis sets)     Author: Roland Lindh, 1990

 Geometry written to block  1 of record 700


 Point group  Cs  



 ATOMIC COORDINATES

 NR  ATOM    CHARGE       X              Y              Z

   1  N       7.00   -0.004635001    0.000000000    1.137250804
   2  C       6.00    0.009650844    0.000000000   -1.060449692
   3  H       1.00   -0.005015843    0.000000000   -3.073871094

 Bond lengths in Bohr (Angstrom)

 1-2  2.197746927  2-3  2.013474821
     ( 1.162997589)     ( 1.065484990)

 Bond angles

  1-2-3  179.21020060

 NUCLEAR CHARGE:                   14
 NUMBER OF PRIMITIVE AOS:         293
 NUMBER OF SYMMETRY AOS:          234
 NUMBER OF CONTRACTIONS:          206   ( 130A'  +  76A"  )
 NUMBER OF CORE ORBITALS:           2   (   2A'  +   0A"  )
 NUMBER OF VALENCE ORBITALS:        9   (   7A'  +   2A"  )


 NUCLEAR REPULSION ENERGY   23.75266850


 Eigenvalues of metric

         1 0.175E-04 0.395E-04 0.728E-04 0.281E-03 0.402E-03 0.410E-03 0.443E-03 0.530E-03
         2 0.409E-03 0.948E-03 0.307E-02 0.357E-02 0.472E-02 0.484E-02 0.648E-02 0.873E-02


 Contracted 2-electron integrals neglected if value below      1.0D-22

      109905373. INTEGRALS WRITTEN OUT IN   26839 BLOCKS ON RECORD 1290 OF FILE 1


 NUMBER OF SORTED TWO-ELECTRON INTEGRALS:  115283741.     BUFFER LENGTH:  32768
 NUMBER OF SEGMENTS:   8  SEGMENT LENGTH:   15998004      RECORD LENGTH: 524288

 Memory used in sort:      16.56 MW

 SORT1 READ   109905373. AND WROTE   110825389. INTEGRALS IN    321 RECORDS. CPU TIME:     1.87 SEC, REAL TIME:     2.63 SEC
 SORT2 READ   110825389. AND WROTE   115283741. INTEGRALS IN      8 RECORDS. CPU TIME:     1.35 SEC, REAL TIME:     1.83 SEC

 FILE SIZES:   FILE 1:  1780.0 MBYTE,  FILE 4:  1346.4 MBYTE,   TOTAL:   3126.4 MBYTE

 OPERATOR DM      FOR CENTER  0  COORDINATES:    0.000000    0.000000    0.000000


 **********************************************************************************************************************************
 DATASETS  * FILE   NREC   LENGTH (MB)   RECORD NAMES
              1      19      943.99       500      610      700      900      950      970     1000      129      960     1100   
                                          VAR    BASINP    GEOM    SYMINP    ZMAT    AOBASIS   BASIS     P2S    ABASIS      S 
                                         1400     1410     1200     1210     1080     1600     1650     1300     1700   
                                           T        V       H0       H01     AOSYM     SMH    MOLCAS    ERIS     OPER   

 PROGRAMS   *        TOTAL       INT
 CPU TIMES  *        11.11     11.03
 REAL TIME  *        13.69 SEC
 DISK USED  *         3.13 GB      
 **********************************************************************************************************************************


 PROGRAM * RHF-SCF (CLOSED SHELL)       Authors: W. Meyer, H.-J. Werner


 NUMBER OF ELECTRONS:       7+    7-
 CONVERGENCE THRESHOLDS:    1.00E-10 (Density)    1.00E-13 (Energy)
 MAX. NUMBER OF ITERATIONS:      500
 INTERPOLATION TYPE:            DIIS
 INTERPOLATION STEPS:              2 (START)      1 (STEP)
 LEVEL SHIFTS:                  0.00 (CLOSED)  0.00 (OPEN) 



 Orbital guess generated from atomic densities. Full valence occupancy:    9   2

 Molecular orbital dump at record        2100.2

 Initial occupancy:   6   1

 ITERATION    DDIFF          GRAD             ENERGY        2-EL.EN.            DIPOLE MOMENTS         DIIS   ORB.
    1      0.000D+00      0.000D+00       -92.88838143    111.591774    0.00692    0.00000   -1.79014    0    start
    2      0.000D+00      0.535D-02       -92.89694886    110.775343   -0.00261    0.00000   -0.88976    1    diag
    3      0.528D-02      0.484D-02       -92.91261231    111.309750    0.00140    0.00000   -1.31036    2    diag
    4      0.262D-02      0.403D-03       -92.91284748    111.265630    0.00106    0.00000   -1.29906    3    diag
    5      0.471D-03      0.898D-04       -92.91286146    111.278039    0.00096    0.00000   -1.29764    4    diag
    6      0.113D-03      0.247D-04       -92.91286242    111.272436    0.00094    0.00000   -1.29759    5    diag
    7      0.269D-04      0.889D-05       -92.91286251    111.273574    0.00094    0.00000   -1.29766    6    diag
    8      0.878D-05      0.187D-05       -92.91286251    111.273530    0.00093    0.00000   -1.29763    7    diag
    9      0.187D-05      0.214D-06       -92.91286251    111.273539    0.00093    0.00000   -1.29762    8    diag
   10      0.267D-06      0.267D-07       -92.91286251    111.273540    0.00093    0.00000   -1.29762    9    orth
   11      0.300D-07      0.505D-08       -92.91286251    111.273540    0.00093    0.00000   -1.29762    9    diag
   12      0.655D-08      0.196D-08       -92.91286251    111.273540    0.00093    0.00000   -1.29762    9    diag
   13      0.349D-08      0.909D-09       -92.91286251    111.273540    0.00093    0.00000   -1.29762    9    diag
   14      0.238D-08      0.243D-09       -92.91286251    111.273540    0.00093    0.00000   -1.29762    9    diag
   15      0.553D-09      0.958D-10       -92.91286251    111.273540    0.00093    0.00000   -1.29762    9    diag
   16      0.217D-09      0.143D-10       -92.91286251    111.273540    0.00093    0.00000   -1.29762    9    diag
   17      0.280D-10      0.340D-11       -92.91286251    111.273540    0.00093    0.00000   -1.29762    9    diag
   18      0.154D-10      0.639D-12       -92.91286251    111.273540    0.00093    0.00000   -1.29762    9    diag
   19      0.139D-10      0.170D-12       -92.91286251    111.273540    0.00093    0.00000   -1.29762    9    fixocc
   20      0.411D-11      0.138D-12       -92.91286251    111.273540    0.00093    0.00000   -1.29762    9    orth
   21      0.184D-11      0.121D-12       -92.91286251    111.273540    0.00093    0.00000   -1.29762    9    diag
   22      0.182D-11      0.172D-12       -92.91286251    111.273540    0.00093    0.00000   -1.29762    9    diag
   23      0.100D-11      0.160D-12       -92.91286251    111.273540    0.00093    0.00000   -1.29762    9    diag
   24      0.260D-12      0.949D-13       -92.91286251    111.273540    0.00093    0.00000   -1.29762    9    diag
   25      0.730D-12      0.124D-12       -92.91286251    111.273540    0.00093    0.00000   -1.29762    0    orth

 Final occupancy:   6   1

 !RHF STATE 1.1 Energy                -92.912862512852
 Nuclear energy                        23.75266850
 One-electron energy                 -172.30230106
 Two-electron energy                   55.63677006
 Virial quotient                       -1.00262707
 !RHF STATE 1.1 Dipole moment           0.00093425     0.00000000    -1.29762353
 Dipole moment /Debye                   0.00237447     0.00000000    -3.29801401

 Orbital energies:

         1.1          2.1          3.1          4.1          5.1          6.1          7.1          8.1
    -15.601984   -11.294816    -1.231959    -0.814730    -0.582803    -0.494043     0.020486     0.062581

         1.2          2.2          3.2
     -0.494045     0.063582     0.119038

 HOMO      6.1    -0.494043 =     -13.4436eV
 LUMO      7.1     0.020486 =       0.5575eV
 LUMO-HOMO         0.514530 =      14.0011eV


 **********************************************************************************************************************************
 DATASETS  * FILE   NREC   LENGTH (MB)   RECORD NAMES
              1      19      943.99       500      610      700      900      950      970     1000      129      960     1100   
                                          VAR    BASINP    GEOM    SYMINP    ZMAT    AOBASIS   BASIS     P2S    ABASIS      S 
                                         1400     1410     1200     1210     1080     1600     1650     1300     1700   
                                           T        V       H0       H01     AOSYM     SMH    MOLCAS    ERIS     OPER   

              2       4        3.27       700     1000      520     2100   
                                         GEOM     BASIS   MCVARS     RHF  

 PROGRAMS   *        TOTAL        HF       INT
 CPU TIMES  *        23.47     12.36     11.03
 REAL TIME  *        29.13 SEC
 DISK USED  *         3.13 GB      
 **********************************************************************************************************************************


 PROGRAM * CCSD (Closed-shell coupled cluster)     Authors: C. Hampel, H.-J. Werner, 1991, M. Deegan, P.J. Knowles, 1992


 Convergence thresholds:  THRVAR = 1.00D-08  THRDEN = 1.00D-12

 CCSD(T)     terms to be evaluated (factor= 1.000)


 Number of core orbitals:           2 (   2   0 )
 Number of closed-shell orbitals:   5 (   4   1 )
 Number of external orbitals:     199 ( 124  75 )

 Molecular orbitals read from record     2100.2  Type=RHF/CANONICAL (state 1.1)

 Number of N-1 electron functions:               5
 Number of N-2 electron functions:              15
 Number of singly external CSFs:               571
 Number of doubly external CSFs:            253406
 Total number of CSFs:                      253978

 Length of J-op  integral file:               0.00 MB
 Length of K-op  integral file:               1.60 MB
 Length of 3-ext integral record:             0.00 MB

 Memory could be reduced to 30.93 Mwords without degradation in triples

 Integral transformation finished. Total CPU:   1.37 sec, npass=  1  Memory used:   8.33 MW

 Reference energy:                    -92.91286251

 MP2 singlet pair energy:              -0.23910968
 MP2 triplet pair energy:              -0.13277749
 MP2 correlation energy:               -0.37188717
 MP2 total energy:                    -93.28474968

 SCS-MP2 correlation energy:           -0.36954872   (PS=  1.200000  PT=  0.333333)
 SCS-MP2 total energy:                -93.28241123

 ITER.      SQ.NORM     CORR.ENERGY   TOTAL ENERGY   ENERGY CHANGE        DEN1      VAR(S)    VAR(P)  DIIS     TIME  TIME/IT
   1      1.11688519    -0.37016167   -93.28302418     0.00172551     0.01528541  0.27D-02  0.33D-02  1  1     2.37     1.15
   2      1.12636788    -0.37028044   -93.28314295    -0.00011877    -0.01036602  0.66D-04  0.42D-03  2  2     3.43     1.18
   3      1.13159116    -0.37051420   -93.28337671    -0.00023376    -0.00267004  0.15D-04  0.47D-04  3  3     4.51     1.20
   4      1.13378766    -0.37059706   -93.28345957    -0.00008286    -0.00076773  0.61D-06  0.54D-05  4  4     5.62     1.22
   5      1.13435842    -0.37060111   -93.28346363    -0.00000405    -0.00016147  0.81D-07  0.49D-06  5  5     6.71     1.23
   6      1.13448165    -0.37059833   -93.28346084     0.00000279    -0.00003239  0.11D-07  0.39D-07  6  6     7.81     1.24
   7      1.13449007    -0.37060012   -93.28346263    -0.00000179    -0.00000099  0.94D-09  0.33D-08  6  1     8.81     1.24
   8      1.13449192    -0.37060064   -93.28346315    -0.00000052    -0.00000049  0.11D-09  0.29D-09  6  2     9.93     1.24
   9      1.13449209    -0.37060071   -93.28346323    -0.00000007    -0.00000010  0.13D-10  0.18D-10  6  3    11.02     1.24
  10      1.13449194    -0.37060076   -93.28346327    -0.00000005     0.00000012  0.13D-11  0.18D-11  6  4    12.06     1.24
  11      1.13449186    -0.37060078   -93.28346329    -0.00000002     0.00000003  0.23D-12  0.15D-12  6  5    13.10     1.24
  12      1.13449180    -0.37060078   -93.28346329    -0.00000001     0.00000003  0.36D-13  0.27D-13  6  6    14.16     1.24
  13      1.13449176    -0.37060078   -93.28346330    -0.00000000     0.00000001  0.41D-14  0.68D-14  6  1    15.23     1.23
  14      1.13449174    -0.37060078   -93.28346330    -0.00000000     0.00000001  0.60D-15  0.65D-15  6  3    16.34     1.24
  15      1.13449173    -0.37060078   -93.28346330    -0.00000000     0.00000000  0.38D-16  0.48D-16  6  2    17.39     1.23
  16      1.13449173    -0.37060078   -93.28346330     0.00000000     0.00000000  0.10D-16  0.61D-17  6  4    18.48     1.24
  17      1.13449173    -0.37060078   -93.28346330    -0.00000000     0.00000000  0.25D-17  0.11D-17  6  5    19.61     1.24
  18      1.13449173    -0.37060078   -93.28346330     0.00000000     0.00000000  0.42D-18  0.18D-18  6  6    20.73     1.24
  19      1.13449173    -0.37060078   -93.28346330     0.00000000    -0.00000000  0.68D-19  0.35D-19  6  1    21.79     1.24

 Norm of t1 vector:      0.06574251      S-energy:    -0.00000000      T1 diagnostic:  0.01470047
                                                                       D1 diagnostic:  0.02959765

 Doubles amplitudes (print threshold =  0.500E-01):

         I         J         SYM. A    SYM. B    A         B      T(IJ, AB)

         4         4         1         1         7         7     -0.05149777
         5         5         2         2         3         3     -0.05153729


 Total CPU time for triples:      9.51 sec


 RESULTS
 =======

  Reference energy                    -92.912862512852
  CCSD singlet pair energy             -0.259881430867
  CCSD triplet pair energy             -0.110719353269
  CCSD correlation energy              -0.370600784138

  Triples (T) contribution             -0.019903382430
  Total correlation energy             -0.390504166569

  CCSD total energy                   -93.283463296990
  CCSD[T] energy                      -93.304238708209
  CCSD-T energy                       -93.302971432501
 !CCSD(T) total energy                -93.303366679420

 Timing summary (sec):

 STEP                 CPU(USER)    SYS     CPU(TOT)    WALL
 Transformation          1.38      0.26      1.64      1.87
 CCSD iterations        20.43      3.12     23.55     23.54
 Triples                 9.51      0.25      9.76      9.77

 Program statistics:

 Available memory in ccsd:               994999800
 Min. memory needed in ccsd:               1003324
 Max. memory used in ccsd:                 1199476
 Max. memory used in cckext:               2145959 (19 integral passes)



 **********************************************************************************************************************************
 DATASETS  * FILE   NREC   LENGTH (MB)   RECORD NAMES
              1      20     1028.32       500      610      700      900      950      970     1000      129      960     1100   
                                          VAR    BASINP    GEOM    SYMINP    ZMAT    AOBASIS   BASIS     P2S    ABASIS      S 
                                         1400     1410     1200     1210     1080     1600     1650     1300     1700     1380   
                                           T        V       H0       H01     AOSYM     SMH    MOLCAS    ERIS     OPER     JKOP   

              2       4        3.27       700     1000      520     2100   
                                         GEOM     BASIS   MCVARS     RHF  

 PROGRAMS   *        TOTAL   CCSD(T)        HF       INT
 CPU TIMES  *        54.81     31.34     12.36     11.03
 REAL TIME  *        64.34 SEC
 DISK USED  *         3.13 GB      
 **********************************************************************************************************************************

 CCSD(T)/aug-cc-pVQZ energy=    -93.303366679420

        CCSD(T)         HF-SCF  
    -93.30336668    -92.91286251
 **********************************************************************************************************************************
 Molpro calculation terminated
 Variable memory released
