
 Primary working directories    : /tmp/r2666/232492.maple
 Secondary working directories  : /tmp/r2666/232492.maple
 Wavefunction directory         : /ddn/home4/r2666/wfu/
 Main file repository           : /tmp/r2666/232492.maple/

 SHA1      : d5ffa45e93fdbca01ffc919aa182cfdae0147319
 NAME      : 2015.1.35
 ARCHNAME  : linux/x86_64
 FC        : /opt/intel/composer_xe_2015.1.133/bin/intel64/ifort
 BLASLIB   : -Wl,-_start-group /opt/intel/mkl/lib/intel64/libmkl_intel_ilp64.a /opt/intel/mkl/lib/intel64/libmkl_intel_thread.a /opt/intel/mkl/lib/intel64/libmkl_core.a -Wl,-_end-group
 id        : olemiss

 Nodes     nprocs
 cn090        1

 Using customized tuning parameters: mindgm=1; mindgv=20; mindgc=4; mindgr=1; noblas=0; minvec=7
 default implementation of scratch files=df  

 ***,hcn CCSD(T)/TZ-F12 QFF
 memory, 995, m;
 gthresh,energy=1.d-12,zero=1.d-22,oneint=1.d-22,twoint=1.d-22;
 gthresh,optgrad=1.d-8,optstep=1.d-8;
 nocompress;
 geomtyp=xyz
 bohr
 geometry={
 3
         46        46
 N        0.0000000000        0.0000000000        1.1310004776
 C        0.0000000000        0.0000000000       -1.0667464493
 H        0.0000000000        0.0000000000       -3.0613240104
 }
 
 basis=avqz
   {hf,maxit=500;accu,20;}
 {ccsd(t),nocheck,maxit=250;orbital,IGNORE_ERROR;}

 Variables initialized (889), CPU time= 0.01 sec
 Commands  initialized (702), CPU time= 0.01 sec, 572 directives.
 Default parameters read. Elapsed time= 0.04 sec

 Checking input...
 Passed
1


                                         ***  PROGRAM SYSTEM MOLPRO  ***
                                       Copyright, TTI GmbH Stuttgart, 2015
                                    Version 2015.1 linked Jul  9 2018 13:16:40


 **********************************************************************************************************************************
 LABEL *   hcn CCSD(T)/TZ-F12 QFF                                                        
  64 bit serial version                                                                  DATE: 06-Feb-20          TIME: 09:53:44  
 **********************************************************************************************************************************

 SHA1:             d5ffa45e93fdbca01ffc919aa182cfdae0147319
 **********************************************************************************************************************************

 THRESHOLDS:

 ZERO    =  1.00D-22  ONEINT  =  1.00D-22  TWOINT  =  1.00D-22  PREFAC  =  1.00D-14  LOCALI  =  1.00D-09  EORDER  =  1.00D-04
 ENERGY  =  1.00D-12  ETEST   =  0.00D+00  EDENS   =  0.00D+00  THRDEDEF=  1.00D-06  GRADIENT=  1.00D-02  STEP    =  1.00D-03
 ORBITAL =  1.00D-05  CIVEC   =  1.00D-05  COEFF   =  1.00D-04  PRINTCI =  5.00D-02  PUNCHCI =  9.90D+01  OPTGRAD =  3.00D-04
 OPTENERG=  1.00D-06  OPTSTEP =  3.00D-04  THRGRAD =  1.00D-10  COMPRESS=  1.00D-11  VARMIN  =  1.00D-07  VARMAX  =  1.00D-03
 THRDOUB =  0.00D+00  THRDIV  =  1.00D-05  THRRED  =  1.00D-07  THRPSP  =  1.00D+00  THRDC   =  1.00D-10  THRCS   =  1.00D-10
 THRNRM  =  1.00D-08  THREQ   =  0.00D+00  THRDE   =  1.00D+00  THRREF  =  1.00D-05  SPARFAC =  1.00D+00  THRDLP  =  1.00D-07
 THRDIA  =  1.00D-10  THRDLS  =  1.00D-07  THRGPS  =  0.00D+00  THRKEX  =  0.00D+00  THRDIS  =  2.00D-01  THRVAR  =  1.00D-10
 THRLOC  =  1.00D-06  THRGAP  =  1.00D-06  THRLOCT = -1.00D+00  THRGAPT = -1.00D+00  THRORB  =  1.00D-06  THRMLTP =  0.00D+00
 THRCPQCI=  1.00D-10  KEXTA   =  0.00D+00  THRCOARS=  0.00D+00  SYMTOL  =  1.00D-06  GRADTOL =  1.00D-06  THROVL  =  1.00D-08
 THRORTH =  1.00D-08  GRID    =  1.00D-06  GRIDMAX =  1.00D-03  DTMAX   =  0.00D+00  THROCCDE=  1.00D-01  THROCCDE=  1.00D-01



 THRESHOLDS:

 ZERO    =  1.00D-22  ONEINT  =  1.00D-22  TWOINT  =  1.00D-22  PREFAC  =  1.00D-14  LOCALI  =  1.00D-09  EORDER  =  1.00D-04
 ENERGY  =  1.00D-12  ETEST   =  0.00D+00  EDENS   =  0.00D+00  THRDEDEF=  1.00D-06  GRADIENT=  1.00D-02  STEP    =  1.00D-03
 ORBITAL =  1.00D-05  CIVEC   =  1.00D-05  COEFF   =  1.00D-04  PRINTCI =  5.00D-02  PUNCHCI =  9.90D+01  OPTGRAD =  1.00D-08
 OPTENERG=  1.00D-06  OPTSTEP =  1.00D-08  THRGRAD =  1.00D-10  COMPRESS=  1.00D-11  VARMIN  =  1.00D-07  VARMAX  =  1.00D-03
 THRDOUB =  0.00D+00  THRDIV  =  1.00D-05  THRRED  =  1.00D-07  THRPSP  =  1.00D+00  THRDC   =  1.00D-10  THRCS   =  1.00D-10
 THRNRM  =  1.00D-08  THREQ   =  0.00D+00  THRDE   =  1.00D+00  THRREF  =  1.00D-05  SPARFAC =  1.00D+00  THRDLP  =  1.00D-07
 THRDIA  =  1.00D-10  THRDLS  =  1.00D-07  THRGPS  =  0.00D+00  THRKEX  =  0.00D+00  THRDIS  =  2.00D-01  THRVAR  =  1.00D-10
 THRLOC  =  1.00D-06  THRGAP  =  1.00D-06  THRLOCT = -1.00D+00  THRGAPT = -1.00D+00  THRORB  =  1.00D-06  THRMLTP =  0.00D+00
 THRCPQCI=  1.00D-10  KEXTA   =  0.00D+00  THRCOARS=  0.00D+00  SYMTOL  =  1.00D-06  GRADTOL =  1.00D-06  THROVL  =  1.00D-08
 THRORTH =  1.00D-08  GRID    =  1.00D-06  GRIDMAX =  1.00D-03  DTMAX   =  0.00D+00  THROCCDE=  1.00D-01  THROCCDE=  1.00D-01



 Input parameters for SORTINT:

 COMPRESS =    0.000000
 C_FINAL  =    1.000000
 DEBUG    =   -1.000000
 C_SORT1  =    0.000000
 C_SEWARD =    0.000000
 THRESH   =    0.000000
 IO       =  molpro                                                          
 SPRI     =    0.000000
 SETTING GEOMTYP        =    XYZ
 ZUNIT=BOHR
 

 Variable memory set to  995000000 words,  buffer space   230000 words

 SETTING BASIS          =    AVQZ


 Recomputing integrals since basis changed


 Using spherical harmonics

 Library entry N      S aug-cc-pVQZ          selected for orbital group  1
 Library entry N      P aug-cc-pVQZ          selected for orbital group  1
 Library entry N      D aug-cc-pVQZ          selected for orbital group  1
 Library entry N      F aug-cc-pVQZ          selected for orbital group  1
 Library entry N      G aug-cc-pVQZ          selected for orbital group  1
 Library entry C      S aug-cc-pVQZ          selected for orbital group  2
 Library entry C      P aug-cc-pVQZ          selected for orbital group  2
 Library entry C      D aug-cc-pVQZ          selected for orbital group  2
 Library entry C      F aug-cc-pVQZ          selected for orbital group  2
 Library entry C      G aug-cc-pVQZ          selected for orbital group  2
 Library entry H      S aug-cc-pVQZ          selected for orbital group  3
 Library entry H      P aug-cc-pVQZ          selected for orbital group  3
 Library entry H      D aug-cc-pVQZ          selected for orbital group  3
 Library entry H      F aug-cc-pVQZ          selected for orbital group  3


 PROGRAM * SEWARD (Integral evaluation for generally contracted gaussian basis sets)     Author: Roland Lindh, 1990

 Geometry written to block  1 of record 700


 Point group  C2v 



 ATOMIC COORDINATES

 NR  ATOM    CHARGE       X              Y              Z

   1  N       7.00    0.000000000    0.000000000    1.131000478
   2  C       6.00    0.000000000    0.000000000   -1.066746449
   3  H       1.00    0.000000000    0.000000000   -3.061324010

 Bond lengths in Bohr (Angstrom)

 1-2  2.197746927  2-3  1.994577561
     ( 1.162997589)     ( 1.055484991)

 Bond angles

  1-2-3  179.99999879

 NUCLEAR CHARGE:                   14
 NUMBER OF PRIMITIVE AOS:         293
 NUMBER OF SYMMETRY AOS:          234
 NUMBER OF CONTRACTIONS:          206   (  81A1  +  49B1  +  49B2  +  27A2  )
 NUMBER OF CORE ORBITALS:           2   (   2A1  +   0B1  +   0B2  +   0A2  )
 NUMBER OF VALENCE ORBITALS:        9   (   5A1  +   2B1  +   2B2  +   0A2  )


 NUCLEAR REPULSION ENERGY   23.78835445

 EXTRA SYMMETRY OF AOS IN SYMMETRY 1:   1 1 1 1 1 1 1 1 1 1   1 1 2 1 2 1 2 1 2 1   2 1 2 1 2 1 3 2 1 3   2 1 1 1 1 1 1 1 1 1
                                        1 1 1 2 1 2 1 2 1 2   1 2 1 2 1 2 1 3 2 1   3 2 1 1 1 1 1 1 1 1   1 1 2 1 2 1 2 1 2 1
                                        2
 EXTRA SYMMETRY OF AOS IN SYMMETRY 2:   1 1 1 1 1 1 1 1 1 1   2 1 2 1 2 1 2 1 2 1   1 1 1 1 1 1 1 1 1 2   1 2 1 2 1 2 1 2 1 1
                                        1 1 1 1 1 1 2 1 2
 EXTRA SYMMETRY OF AOS IN SYMMETRY 3:   1 1 1 1 1 1 1 1 1 1   2 1 2 1 2 1 2 1 2 1   1 1 1 1 1 1 1 1 1 2   1 2 1 2 1 2 1 2 1 1
                                        1 1 1 1 1 1 2 1 2
 EXTRA SYMMETRY OF AOS IN SYMMETRY 4:   1 1 1 1 1 1 1 1 2 1   2 1 1 1 1 1 1 1 1 2   1 2 1 1 1 1 1

 Eigenvalues of metric

         1 0.168E-04 0.391E-04 0.692E-04 0.279E-03 0.400E-03 0.443E-03 0.524E-03 0.796E-03
         2 0.408E-03 0.920E-03 0.301E-02 0.346E-02 0.475E-02 0.640E-02 0.868E-02 0.106E-01
         3 0.408E-03 0.920E-03 0.301E-02 0.346E-02 0.475E-02 0.640E-02 0.868E-02 0.106E-01
         4 0.471E-02 0.123E-01 0.325E-01 0.559E-01 0.894E-01 0.141E+00 0.197E+00 0.230E+00


 Contracted 2-electron integrals neglected if value below      1.0D-22

       51228763. INTEGRALS WRITTEN OUT IN   12511 BLOCKS ON RECORD 1290 OF FILE 1


 NUMBER OF SORTED TWO-ELECTRON INTEGRALS:   58298162.     BUFFER LENGTH:  32768
 NUMBER OF SEGMENTS:   4  SEGMENT LENGTH:   15999501      RECORD LENGTH: 524288

 Memory used in sort:      16.56 MW

 SORT1 READ    51228763. AND WROTE    51984392. INTEGRALS IN    150 RECORDS. CPU TIME:     1.24 SEC, REAL TIME:     1.60 SEC
 SORT2 READ    51984392. AND WROTE    58298162. INTEGRALS IN      4 RECORDS. CPU TIME:     0.78 SEC, REAL TIME:     1.03 SEC

 FILE SIZES:   FILE 1:   840.8 MBYTE,  FILE 4:   629.2 MBYTE,   TOTAL:   1470.0 MBYTE

 OPERATOR DM      FOR CENTER  0  COORDINATES:    0.000000    0.000000    0.000000


 **********************************************************************************************************************************
 DATASETS  * FILE   NREC   LENGTH (MB)   RECORD NAMES
              1      19      461.88       500      610      700      900      950      970     1000      129      960     1100   
                                          VAR    BASINP    GEOM    SYMINP    ZMAT    AOBASIS   BASIS     P2S    ABASIS      S 
                                         1400     1410     1200     1210     1080     1600     1650     1300     1700   
                                           T        V       H0       H01     AOSYM     SMH    MOLCAS    ERIS     OPER   

 PROGRAMS   *        TOTAL       INT
 CPU TIMES  *         8.50      8.41
 REAL TIME  *        10.00 SEC
 DISK USED  *         1.47 GB      
 **********************************************************************************************************************************


 PROGRAM * RHF-SCF (CLOSED SHELL)       Authors: W. Meyer, H.-J. Werner


 NUMBER OF ELECTRONS:       7+    7-
 CONVERGENCE THRESHOLDS:    1.00E-10 (Density)    1.00E-13 (Energy)
 MAX. NUMBER OF ITERATIONS:      500
 INTERPOLATION TYPE:            DIIS
 INTERPOLATION STEPS:              2 (START)      1 (STEP)
 LEVEL SHIFTS:                  0.00 (CLOSED)  0.00 (OPEN) 



 Orbital guess generated from atomic densities. Full valence occupancy:    7   2   2   0

 Molecular orbital dump at record        2100.2

 Initial occupancy:   5   1   1   0

 ITERATION    DDIFF          GRAD             ENERGY        2-EL.EN.            DIPOLE MOMENTS         DIIS   ORB.
    1      0.000D+00      0.000D+00       -92.88881764    111.640180    0.00000    0.00000   -1.77687    0    start
    2      0.000D+00      0.695D-02       -92.89737485    110.836552    0.00000    0.00000   -0.88845    1    diag
    3      0.715D-02      0.627D-02       -92.91265598    111.365520    0.00000    0.00000   -1.30499    2    diag
    4      0.354D-02      0.533D-03       -92.91289301    111.320602    0.00000    0.00000   -1.29359    3    diag
    5      0.650D-03      0.118D-03       -92.91290683    111.332906    0.00000    0.00000   -1.29220    4    diag
    6      0.154D-03      0.320D-04       -92.91290777    111.327334    0.00000    0.00000   -1.29215    5    diag
    7      0.363D-04      0.115D-04       -92.91290786    111.328450    0.00000    0.00000   -1.29221    6    diag
    8      0.118D-04      0.243D-05       -92.91290786    111.328407    0.00000    0.00000   -1.29218    7    diag
    9      0.255D-05      0.279D-06       -92.91290786    111.328417    0.00000    0.00000   -1.29217    8    diag
   10      0.364D-06      0.341D-07       -92.91290786    111.328417    0.00000    0.00000   -1.29217    9    orth
   11      0.393D-07      0.476D-08       -92.91290786    111.328417    0.00000    0.00000   -1.29217    9    diag
   12      0.611D-08      0.442D-09       -92.91290786    111.328417    0.00000    0.00000   -1.29217    9    diag
   13      0.115D-08      0.548D-10       -92.91290786    111.328417    0.00000    0.00000   -1.29217    9    diag
   14      0.953D-10      0.639D-11       -92.91290786    111.328417    0.00000    0.00000   -1.29217    9    diag
   15      0.202D-10      0.243D-11       -92.91290786    111.328417    0.00000    0.00000   -1.29217    9    diag
   16      0.138D-10      0.417D-12       -92.91290786    111.328417    0.00000    0.00000   -1.29217    9    diag
   17      0.105D-10      0.188D-12       -92.91290786    111.328417    0.00000    0.00000   -1.29217    0    orth

 Final occupancy:   5   1   1   0

 !RHF STATE 1.1 Energy                -92.912907861760
 Nuclear energy                        23.78835445
 One-electron energy                 -172.36547103
 Two-electron energy                   55.66420873
 Virial quotient                       -1.00245608
 !RHF STATE 1.1 Dipole moment           0.00000000     0.00000000    -1.29217415
 Dipole moment /Debye                   0.00000000     0.00000000    -3.28416398

 Orbital energies:

         1.1          2.1          3.1          4.1          5.1          6.1          7.1
    -15.602175   -11.294065    -1.232092    -0.818661    -0.583145     0.020522     0.062618

         1.2          2.2          3.2
     -0.494194     0.063576     0.118919

         1.3          2.3          3.3
     -0.494194     0.063576     0.118919

         1.4          2.4
      0.225885     0.394633

 HOMO      1.2    -0.494194 =     -13.4477eV
 LUMO      6.1     0.020522 =       0.5584eV
 LUMO-HOMO         0.514716 =      14.0061eV


 **********************************************************************************************************************************
 DATASETS  * FILE   NREC   LENGTH (MB)   RECORD NAMES
              1      19      461.88       500      610      700      900      950      970     1000      129      960     1100   
                                          VAR    BASINP    GEOM    SYMINP    ZMAT    AOBASIS   BASIS     P2S    ABASIS      S 
                                         1400     1410     1200     1210     1080     1600     1650     1300     1700   
                                           T        V       H0       H01     AOSYM     SMH    MOLCAS    ERIS     OPER   

              2       4        3.06       700     1000      520     2100   
                                         GEOM     BASIS   MCVARS     RHF  

 PROGRAMS   *        TOTAL        HF       INT
 CPU TIMES  *        11.48      2.98      8.41
 REAL TIME  *        13.73 SEC
 DISK USED  *         1.47 GB      
 **********************************************************************************************************************************


 PROGRAM * CCSD (Closed-shell coupled cluster)     Authors: C. Hampel, H.-J. Werner, 1991, M. Deegan, P.J. Knowles, 1992


 Convergence thresholds:  THRVAR = 1.00D-08  THRDEN = 1.00D-12

 CCSD(T)     terms to be evaluated (factor= 1.000)


 Number of core orbitals:           2 (   2   0   0   0 )
 Number of closed-shell orbitals:   5 (   3   1   1   0 )
 Number of external orbitals:     199 (  76  48  48  27 )

 Molecular orbitals read from record     2100.2  Type=RHF/CANONICAL (state 1.1)

 Number of N-1 electron functions:               5
 Number of N-2 electron functions:              15
 Number of singly external CSFs:               324
 Number of doubly external CSFs:            129659
 Total number of CSFs:                      129984

 Length of J-op  integral file:               0.00 MB
 Length of K-op  integral file:               0.86 MB
 Length of 3-ext integral record:             0.00 MB

 Memory could be reduced to 15.89 Mwords without degradation in triples

 Integral transformation finished. Total CPU:   0.43 sec, npass=  1  Memory used:   1.90 MW

 Reference energy:                    -92.91290786

 MP2 singlet pair energy:              -0.23903830
 MP2 triplet pair energy:              -0.13274979
 MP2 correlation energy:               -0.37178808
 MP2 total energy:                    -93.28469595

 SCS-MP2 correlation energy:           -0.36944582   (PS=  1.200000  PT=  0.333333)
 SCS-MP2 total energy:                -93.28235369

 ITER.      SQ.NORM     CORR.ENERGY   TOTAL ENERGY   ENERGY CHANGE        DEN1      VAR(S)    VAR(P)  DIIS     TIME  TIME/IT
   1      1.11670151    -0.37006078   -93.28296864     0.00172731     0.01526058  0.27D-02  0.33D-02  1  1     0.86     0.50
   2      1.12615115    -0.37017270   -93.28308056    -0.00011192    -0.01034644  0.66D-04  0.42D-03  2  2     1.31     0.51
   3      1.13134197    -0.37040302   -93.28331088    -0.00023032    -0.00265605  0.14D-04  0.47D-04  3  3     1.81     0.53
   4      1.13353001    -0.37048543   -93.28339330    -0.00008242    -0.00076474  0.60D-06  0.53D-05  4  4     2.25     0.52
   5      1.13409841    -0.37048905   -93.28339692    -0.00000362    -0.00016115  0.76D-07  0.48D-06  5  5     2.71     0.52
   6      1.13421909    -0.37048636   -93.28339422     0.00000270    -0.00003169  0.11D-07  0.38D-07  6  6     3.17     0.52
   7      1.13422719    -0.37048817   -93.28339603    -0.00000182    -0.00000091  0.93D-09  0.33D-08  6  1     3.62     0.52
   8      1.13422897    -0.37048870   -93.28339656    -0.00000053    -0.00000047  0.11D-09  0.29D-09  6  2     4.09     0.52
   9      1.13422913    -0.37048878   -93.28339664    -0.00000008    -0.00000009  0.14D-10  0.18D-10  6  3     4.56     0.53
  10      1.13422898    -0.37048882   -93.28339668    -0.00000005     0.00000012  0.13D-11  0.18D-11  6  4     5.01     0.52
  11      1.13422890    -0.37048884   -93.28339670    -0.00000001     0.00000003  0.25D-12  0.15D-12  6  5     5.47     0.52
  12      1.13422884    -0.37048884   -93.28339670    -0.00000001     0.00000003  0.41D-13  0.27D-13  6  6     5.97     0.53
  13      1.13422880    -0.37048884   -93.28339671    -0.00000000     0.00000001  0.43D-14  0.70D-14  6  1     6.41     0.53
  14      1.13422878    -0.37048885   -93.28339671    -0.00000000     0.00000001  0.55D-15  0.63D-15  6  3     6.86     0.53
  15      1.13422877    -0.37048885   -93.28339671    -0.00000000     0.00000000  0.18D-16  0.45D-16  6  2     7.30     0.52
  16      1.13422877    -0.37048885   -93.28339671     0.00000000     0.00000000  0.35D-17  0.48D-17  6  4     7.72     0.52
  17      1.13422877    -0.37048885   -93.28339671    -0.00000000     0.00000000  0.54D-18  0.64D-18  6  2     8.16     0.52
  18      1.13422877    -0.37048885   -93.28339671    -0.00000000     0.00000000  0.47D-19  0.42D-19  6  5     8.63     0.52
  19      1.13422877    -0.37048885   -93.28339671    -0.00000000    -0.00000000  0.11D-19  0.52D-20  6  6     9.10     0.52

 Norm of t1 vector:      0.06567643      S-energy:     0.00000000      T1 diagnostic:  0.01468570
                                                                       D1 diagnostic:  0.02961256

 Doubles amplitudes (print threshold =  0.500E-01):

         I         J         SYM. A    SYM. B    A         B      T(IJ, AB)

         4         4         2         2         3         3     -0.05157799
         5         5         3         3         3         3     -0.05157799


 Total CPU time for triples:      2.70 sec


 RESULTS
 =======

  Reference energy                    -92.912907861760
  CCSD singlet pair energy             -0.259762155301
  CCSD triplet pair energy             -0.110726690133
  CCSD correlation energy              -0.370488845434

  Triples (T) contribution             -0.019876368874
  Total correlation energy             -0.390365214308

  CCSD total energy                   -93.283396707194
  CCSD[T] energy                      -93.304143517786
  CCSD-T energy                       -93.302878250552
 !CCSD(T) total energy                -93.303273076068

 Timing summary (sec):

 STEP                 CPU(USER)    SYS     CPU(TOT)    WALL
 Transformation          0.44      0.12      0.56      0.56
 CCSD iterations         8.66      1.31      9.97      9.98
 Triples                 2.70      0.11      2.81      2.81

 Program statistics:

 Available memory in ccsd:               994999800
 Min. memory needed in ccsd:                524097
 Max. memory used in ccsd:                  626326
 Max. memory used in cckext:                818237 (19 integral passes)



 **********************************************************************************************************************************
 DATASETS  * FILE   NREC   LENGTH (MB)   RECORD NAMES
              1      20      504.87       500      610      700      900      950      970     1000      129      960     1100   
                                          VAR    BASINP    GEOM    SYMINP    ZMAT    AOBASIS   BASIS     P2S    ABASIS      S 
                                         1400     1410     1200     1210     1080     1600     1650     1300     1700     1380   
                                           T        V       H0       H01     AOSYM     SMH    MOLCAS    ERIS     OPER     JKOP   

              2       4        3.06       700     1000      520     2100   
                                         GEOM     BASIS   MCVARS     RHF  

 PROGRAMS   *        TOTAL   CCSD(T)        HF       INT
 CPU TIMES  *        23.30     11.82      2.98      8.41
 REAL TIME  *        27.13 SEC
 DISK USED  *         1.47 GB      
 **********************************************************************************************************************************

 CCSD(T)/aug-cc-pVQZ energy=    -93.303273076068

        CCSD(T)         HF-SCF  
    -93.30327308    -92.91290786
 **********************************************************************************************************************************
 Molpro calculation terminated
 Variable memory released
