
 Primary working directories    : /tmp/r2666/232486.maple
 Secondary working directories  : /tmp/r2666/232486.maple
 Wavefunction directory         : /ddn/home4/r2666/wfu/
 Main file repository           : /tmp/r2666/232486.maple/

 SHA1      : d5ffa45e93fdbca01ffc919aa182cfdae0147319
 NAME      : 2015.1.35
 ARCHNAME  : linux/x86_64
 FC        : /opt/intel/composer_xe_2015.1.133/bin/intel64/ifort
 BLASLIB   : -Wl,-_start-group /opt/intel/mkl/lib/intel64/libmkl_intel_ilp64.a /opt/intel/mkl/lib/intel64/libmkl_intel_thread.a /opt/intel/mkl/lib/intel64/libmkl_core.a -Wl,-_end-group
 id        : olemiss

 Nodes     nprocs
 cn094        1

 Using customized tuning parameters: mindgm=1; mindgv=20; mindgc=4; mindgr=1; noblas=0; minvec=7
 default implementation of scratch files=df  

 ***,hcn CCSD(T)/TZ-F12 QFF
 memory, 995, m;
 gthresh,energy=1.d-12,zero=1.d-22,oneint=1.d-22,twoint=1.d-22;
 gthresh,optgrad=1.d-8,optstep=1.d-8;
 nocompress;
 geomtyp=xyz
 bohr
 geometry={
 3
         40        40
 N        0.0000000000        0.0000000000        1.1310004776
 C        0.0000000000        0.0000000000       -1.0572978193
 H        0.0000000000        0.0000000000       -3.0707726403
 }
 
 basis=avqz
   {hf,maxit=500;accu,20;}
 {ccsd(t),nocheck,maxit=250;orbital,IGNORE_ERROR;}

 Variables initialized (889), CPU time= 0.01 sec
 Commands  initialized (702), CPU time= 0.01 sec, 572 directives.
 Default parameters read. Elapsed time= 0.05 sec

 Checking input...
 Passed
1


                                         ***  PROGRAM SYSTEM MOLPRO  ***
                                       Copyright, TTI GmbH Stuttgart, 2015
                                    Version 2015.1 linked Jul  9 2018 13:16:40


 **********************************************************************************************************************************
 LABEL *   hcn CCSD(T)/TZ-F12 QFF                                                        
  64 bit serial version                                                                  DATE: 06-Feb-20          TIME: 09:53:34  
 **********************************************************************************************************************************

 SHA1:             d5ffa45e93fdbca01ffc919aa182cfdae0147319
 **********************************************************************************************************************************

 THRESHOLDS:

 ZERO    =  1.00D-22  ONEINT  =  1.00D-22  TWOINT  =  1.00D-22  PREFAC  =  1.00D-14  LOCALI  =  1.00D-09  EORDER  =  1.00D-04
 ENERGY  =  1.00D-12  ETEST   =  0.00D+00  EDENS   =  0.00D+00  THRDEDEF=  1.00D-06  GRADIENT=  1.00D-02  STEP    =  1.00D-03
 ORBITAL =  1.00D-05  CIVEC   =  1.00D-05  COEFF   =  1.00D-04  PRINTCI =  5.00D-02  PUNCHCI =  9.90D+01  OPTGRAD =  3.00D-04
 OPTENERG=  1.00D-06  OPTSTEP =  3.00D-04  THRGRAD =  1.00D-10  COMPRESS=  1.00D-11  VARMIN  =  1.00D-07  VARMAX  =  1.00D-03
 THRDOUB =  0.00D+00  THRDIV  =  1.00D-05  THRRED  =  1.00D-07  THRPSP  =  1.00D+00  THRDC   =  1.00D-10  THRCS   =  1.00D-10
 THRNRM  =  1.00D-08  THREQ   =  0.00D+00  THRDE   =  1.00D+00  THRREF  =  1.00D-05  SPARFAC =  1.00D+00  THRDLP  =  1.00D-07
 THRDIA  =  1.00D-10  THRDLS  =  1.00D-07  THRGPS  =  0.00D+00  THRKEX  =  0.00D+00  THRDIS  =  2.00D-01  THRVAR  =  1.00D-10
 THRLOC  =  1.00D-06  THRGAP  =  1.00D-06  THRLOCT = -1.00D+00  THRGAPT = -1.00D+00  THRORB  =  1.00D-06  THRMLTP =  0.00D+00
 THRCPQCI=  1.00D-10  KEXTA   =  0.00D+00  THRCOARS=  0.00D+00  SYMTOL  =  1.00D-06  GRADTOL =  1.00D-06  THROVL  =  1.00D-08
 THRORTH =  1.00D-08  GRID    =  1.00D-06  GRIDMAX =  1.00D-03  DTMAX   =  0.00D+00  THROCCDE=  1.00D-01  THROCCDE=  1.00D-01



 THRESHOLDS:

 ZERO    =  1.00D-22  ONEINT  =  1.00D-22  TWOINT  =  1.00D-22  PREFAC  =  1.00D-14  LOCALI  =  1.00D-09  EORDER  =  1.00D-04
 ENERGY  =  1.00D-12  ETEST   =  0.00D+00  EDENS   =  0.00D+00  THRDEDEF=  1.00D-06  GRADIENT=  1.00D-02  STEP    =  1.00D-03
 ORBITAL =  1.00D-05  CIVEC   =  1.00D-05  COEFF   =  1.00D-04  PRINTCI =  5.00D-02  PUNCHCI =  9.90D+01  OPTGRAD =  1.00D-08
 OPTENERG=  1.00D-06  OPTSTEP =  1.00D-08  THRGRAD =  1.00D-10  COMPRESS=  1.00D-11  VARMIN  =  1.00D-07  VARMAX  =  1.00D-03
 THRDOUB =  0.00D+00  THRDIV  =  1.00D-05  THRRED  =  1.00D-07  THRPSP  =  1.00D+00  THRDC   =  1.00D-10  THRCS   =  1.00D-10
 THRNRM  =  1.00D-08  THREQ   =  0.00D+00  THRDE   =  1.00D+00  THRREF  =  1.00D-05  SPARFAC =  1.00D+00  THRDLP  =  1.00D-07
 THRDIA  =  1.00D-10  THRDLS  =  1.00D-07  THRGPS  =  0.00D+00  THRKEX  =  0.00D+00  THRDIS  =  2.00D-01  THRVAR  =  1.00D-10
 THRLOC  =  1.00D-06  THRGAP  =  1.00D-06  THRLOCT = -1.00D+00  THRGAPT = -1.00D+00  THRORB  =  1.00D-06  THRMLTP =  0.00D+00
 THRCPQCI=  1.00D-10  KEXTA   =  0.00D+00  THRCOARS=  0.00D+00  SYMTOL  =  1.00D-06  GRADTOL =  1.00D-06  THROVL  =  1.00D-08
 THRORTH =  1.00D-08  GRID    =  1.00D-06  GRIDMAX =  1.00D-03  DTMAX   =  0.00D+00  THROCCDE=  1.00D-01  THROCCDE=  1.00D-01



 Input parameters for SORTINT:

 COMPRESS =    0.000000
 C_FINAL  =    1.000000
 DEBUG    =   -1.000000
 C_SORT1  =    0.000000
 C_SEWARD =    0.000000
 THRESH   =    0.000000
 IO       =  molpro                                                          
 SPRI     =    0.000000
 SETTING GEOMTYP        =    XYZ
 ZUNIT=BOHR
 

 Variable memory set to  995000000 words,  buffer space   230000 words

 SETTING BASIS          =    AVQZ


 Recomputing integrals since basis changed


 Using spherical harmonics

 Library entry N      S aug-cc-pVQZ          selected for orbital group  1
 Library entry N      P aug-cc-pVQZ          selected for orbital group  1
 Library entry N      D aug-cc-pVQZ          selected for orbital group  1
 Library entry N      F aug-cc-pVQZ          selected for orbital group  1
 Library entry N      G aug-cc-pVQZ          selected for orbital group  1
 Library entry C      S aug-cc-pVQZ          selected for orbital group  2
 Library entry C      P aug-cc-pVQZ          selected for orbital group  2
 Library entry C      D aug-cc-pVQZ          selected for orbital group  2
 Library entry C      F aug-cc-pVQZ          selected for orbital group  2
 Library entry C      G aug-cc-pVQZ          selected for orbital group  2
 Library entry H      S aug-cc-pVQZ          selected for orbital group  3
 Library entry H      P aug-cc-pVQZ          selected for orbital group  3
 Library entry H      D aug-cc-pVQZ          selected for orbital group  3
 Library entry H      F aug-cc-pVQZ          selected for orbital group  3


 PROGRAM * SEWARD (Integral evaluation for generally contracted gaussian basis sets)     Author: Roland Lindh, 1990

 Geometry written to block  1 of record 700


 Point group  C2v 



 ATOMIC COORDINATES

 NR  ATOM    CHARGE       X              Y              Z

   1  N       7.00    0.000000000    0.000000000    1.131000478
   2  C       6.00    0.000000000    0.000000000   -1.057297819
   3  H       1.00    0.000000000    0.000000000   -3.070772640

 Bond lengths in Bohr (Angstrom)

 1-2  2.188298297  2-3  2.013474821
     ( 1.157997589)     ( 1.065484990)

 Bond angles

  1-2-3  180.00000000

 NUCLEAR CHARGE:                   14
 NUMBER OF PRIMITIVE AOS:         293
 NUMBER OF SYMMETRY AOS:          234
 NUMBER OF CONTRACTIONS:          206   (  81A1  +  49B1  +  49B2  +  27A2  )
 NUMBER OF CORE ORBITALS:           2   (   2A1  +   0B1  +   0B2  +   0A2  )
 NUMBER OF VALENCE ORBITALS:        9   (   5A1  +   2B1  +   2B2  +   0A2  )


 NUCLEAR REPULSION ENERGY   23.83888217

 EXTRA SYMMETRY OF AOS IN SYMMETRY 1:   1 1 1 1 1 1 1 1 1 1   1 1 2 1 2 1 2 1 2 1   2 1 2 1 2 1 3 2 1 3   2 1 1 1 1 1 1 1 1 1
                                        1 1 1 2 1 2 1 2 1 2   1 2 1 2 1 2 1 3 2 1   3 2 1 1 1 1 1 1 1 1   1 1 2 1 2 1 2 1 2 1
                                        2
 EXTRA SYMMETRY OF AOS IN SYMMETRY 2:   1 1 1 1 1 1 1 1 1 1   2 1 2 1 2 1 2 1 2 1   1 1 1 1 1 1 1 1 1 2   1 2 1 2 1 2 1 2 1 1
                                        1 1 1 1 1 1 2 1 2
 EXTRA SYMMETRY OF AOS IN SYMMETRY 3:   1 1 1 1 1 1 1 1 1 1   2 1 2 1 2 1 2 1 2 1   1 1 1 1 1 1 1 1 1 2   1 2 1 2 1 2 1 2 1 1
                                        1 1 1 1 1 1 2 1 2
 EXTRA SYMMETRY OF AOS IN SYMMETRY 4:   1 1 1 1 1 1 1 1 2 1   2 1 1 1 1 1 1 1 1 2   1 2 1 1 1 1 1

 Eigenvalues of metric

         1 0.174E-04 0.393E-04 0.724E-04 0.280E-03 0.401E-03 0.439E-03 0.526E-03 0.810E-03
         2 0.404E-03 0.944E-03 0.303E-02 0.355E-02 0.480E-02 0.645E-02 0.871E-02 0.107E-01
         3 0.404E-03 0.944E-03 0.303E-02 0.355E-02 0.480E-02 0.645E-02 0.871E-02 0.107E-01
         4 0.464E-02 0.126E-01 0.322E-01 0.570E-01 0.893E-01 0.142E+00 0.198E+00 0.230E+00


 Contracted 2-electron integrals neglected if value below      1.0D-22

       51226569. INTEGRALS WRITTEN OUT IN   12510 BLOCKS ON RECORD 1290 OF FILE 1


 NUMBER OF SORTED TWO-ELECTRON INTEGRALS:   58298162.     BUFFER LENGTH:  32768
 NUMBER OF SEGMENTS:   4  SEGMENT LENGTH:   15999501      RECORD LENGTH: 524288

 Memory used in sort:      16.56 MW

 SORT1 READ    51226569. AND WROTE    51981927. INTEGRALS IN    150 RECORDS. CPU TIME:     1.37 SEC, REAL TIME:     1.67 SEC
 SORT2 READ    51981927. AND WROTE    58298162. INTEGRALS IN      4 RECORDS. CPU TIME:     0.81 SEC, REAL TIME:     1.12 SEC

 FILE SIZES:   FILE 1:   840.7 MBYTE,  FILE 4:   629.2 MBYTE,   TOTAL:   1469.9 MBYTE

 OPERATOR DM      FOR CENTER  0  COORDINATES:    0.000000    0.000000    0.000000


 **********************************************************************************************************************************
 DATASETS  * FILE   NREC   LENGTH (MB)   RECORD NAMES
              1      19      461.86       500      610      700      900      950      970     1000      129      960     1100   
                                          VAR    BASINP    GEOM    SYMINP    ZMAT    AOBASIS   BASIS     P2S    ABASIS      S 
                                         1400     1410     1200     1210     1080     1600     1650     1300     1700   
                                           T        V       H0       H01     AOSYM     SMH    MOLCAS    ERIS     OPER   

 PROGRAMS   *        TOTAL       INT
 CPU TIMES  *         8.95      8.86
 REAL TIME  *        11.82 SEC
 DISK USED  *         1.47 GB      
 **********************************************************************************************************************************


 PROGRAM * RHF-SCF (CLOSED SHELL)       Authors: W. Meyer, H.-J. Werner


 NUMBER OF ELECTRONS:       7+    7-
 CONVERGENCE THRESHOLDS:    1.00E-10 (Density)    1.00E-13 (Energy)
 MAX. NUMBER OF ITERATIONS:      500
 INTERPOLATION TYPE:            DIIS
 INTERPOLATION STEPS:              2 (START)      1 (STEP)
 LEVEL SHIFTS:                  0.00 (CLOSED)  0.00 (OPEN) 



 Orbital guess generated from atomic densities. Full valence occupancy:    7   2   2   0

 Molecular orbital dump at record        2100.2

 Initial occupancy:   5   1   1   0

 ITERATION    DDIFF          GRAD             ENERGY        2-EL.EN.            DIPOLE MOMENTS         DIIS   ORB.
    1      0.000D+00      0.000D+00       -92.88932706    111.788286    0.00000    0.00000   -1.78635    0    start
    2      0.000D+00      0.703D-02       -92.89811296    110.941232    0.00000    0.00000   -0.89477    1    diag
    3      0.719D-02      0.631D-02       -92.91353778    111.479155    0.00000    0.00000   -1.30912    2    diag
    4      0.356D-02      0.525D-03       -92.91376982    111.438408    0.00000    0.00000   -1.29787    3    diag
    5      0.637D-03      0.115D-03       -92.91378347    111.449295    0.00000    0.00000   -1.29642    4    diag
    6      0.153D-03      0.314D-04       -92.91378435    111.444035    0.00000    0.00000   -1.29643    5    diag
    7      0.348D-04      0.113D-04       -92.91378443    111.445202    0.00000    0.00000   -1.29649    6    diag
    8      0.116D-04      0.237D-05       -92.91378444    111.445153    0.00000    0.00000   -1.29646    7    diag
    9      0.245D-05      0.272D-06       -92.91378444    111.445162    0.00000    0.00000   -1.29646    8    diag
   10      0.352D-06      0.332D-07       -92.91378444    111.445163    0.00000    0.00000   -1.29646    9    orth
   11      0.382D-07      0.468D-08       -92.91378444    111.445163    0.00000    0.00000   -1.29646    9    diag
   12      0.597D-08      0.439D-09       -92.91378444    111.445163    0.00000    0.00000   -1.29646    9    diag
   13      0.113D-08      0.559D-10       -92.91378444    111.445163    0.00000    0.00000   -1.29646    9    diag
   14      0.892D-10      0.664D-11       -92.91378444    111.445163    0.00000    0.00000   -1.29646    0    orth

 Final occupancy:   5   1   1   0

 !RHF STATE 1.1 Energy                -92.913784436086
 Nuclear energy                        23.83888217
 One-electron energy                 -172.47524823
 Two-electron energy                   55.72258162
 Virial quotient                       -1.00234479
 !RHF STATE 1.1 Dipole moment           0.00000000     0.00000000    -1.29645567
 Dipole moment /Debye                   0.00000000     0.00000000    -3.29504579

 Orbital energies:

         1.1          2.1          3.1          4.1          5.1          6.1          7.1
    -15.600184   -11.292985    -1.234290    -0.813983    -0.582547     0.020509     0.062611

         1.2          2.2          3.2
     -0.495527     0.063585     0.119353

         1.3          2.3          3.3
     -0.495527     0.063585     0.119353

         1.4          2.4
      0.225906     0.394724

 HOMO      1.2    -0.495527 =     -13.4840eV
 LUMO      6.1     0.020509 =       0.5581eV
 LUMO-HOMO         0.516035 =      14.0420eV


 **********************************************************************************************************************************
 DATASETS  * FILE   NREC   LENGTH (MB)   RECORD NAMES
              1      19      461.86       500      610      700      900      950      970     1000      129      960     1100   
                                          VAR    BASINP    GEOM    SYMINP    ZMAT    AOBASIS   BASIS     P2S    ABASIS      S 
                                         1400     1410     1200     1210     1080     1600     1650     1300     1700   
                                           T        V       H0       H01     AOSYM     SMH    MOLCAS    ERIS     OPER   

              2       4        3.06       700     1000      520     2100   
                                         GEOM     BASIS   MCVARS     RHF  

 PROGRAMS   *        TOTAL        HF       INT
 CPU TIMES  *        11.67      2.72      8.86
 REAL TIME  *        15.11 SEC
 DISK USED  *         1.47 GB      
 **********************************************************************************************************************************


 PROGRAM * CCSD (Closed-shell coupled cluster)     Authors: C. Hampel, H.-J. Werner, 1991, M. Deegan, P.J. Knowles, 1992


 Convergence thresholds:  THRVAR = 1.00D-08  THRDEN = 1.00D-12

 CCSD(T)     terms to be evaluated (factor= 1.000)


 Number of core orbitals:           2 (   2   0   0   0 )
 Number of closed-shell orbitals:   5 (   3   1   1   0 )
 Number of external orbitals:     199 (  76  48  48  27 )

 Molecular orbitals read from record     2100.2  Type=RHF/CANONICAL (state 1.1)

 Number of N-1 electron functions:               5
 Number of N-2 electron functions:              15
 Number of singly external CSFs:               324
 Number of doubly external CSFs:            129659
 Total number of CSFs:                      129984

 Length of J-op  integral file:               0.00 MB
 Length of K-op  integral file:               0.86 MB
 Length of 3-ext integral record:             0.00 MB

 Memory could be reduced to 15.89 Mwords without degradation in triples

 Integral transformation finished. Total CPU:   0.52 sec, npass=  1  Memory used:   1.90 MW

 Reference energy:                    -92.91378444

 MP2 singlet pair energy:              -0.23856448
 MP2 triplet pair energy:              -0.13233834
 MP2 correlation energy:               -0.37090282
 MP2 total energy:                    -93.28468726

 SCS-MP2 correlation energy:           -0.36862123   (PS=  1.200000  PT=  0.333333)
 SCS-MP2 total energy:                -93.28240567

 ITER.      SQ.NORM     CORR.ENERGY   TOTAL ENERGY   ENERGY CHANGE        DEN1      VAR(S)    VAR(P)  DIIS     TIME  TIME/IT
   1      1.11626416    -0.36945411   -93.28323855     0.00144871     0.01479251  0.26D-02  0.32D-02  1  1     1.02     0.56
   2      1.12561861    -0.36961679   -93.28340122    -0.00016268    -0.01024004  0.64D-04  0.41D-03  2  2     1.52     0.56
   3      1.13074833    -0.36984568   -93.28363012    -0.00022889    -0.00263687  0.14D-04  0.45D-04  3  3     2.01     0.57
   4      1.13288822    -0.36992566   -93.28371010    -0.00007998    -0.00075264  0.60D-06  0.52D-05  4  4     2.50     0.57
   5      1.13343997    -0.36992947   -93.28371391    -0.00000381    -0.00015685  0.80D-07  0.46D-06  5  5     2.99     0.57
   6      1.13355777    -0.36992681   -93.28371125     0.00000266    -0.00003107  0.10D-07  0.37D-07  6  6     3.49     0.57
   7      1.13356586    -0.36992850   -93.28371293    -0.00000168    -0.00000098  0.91D-09  0.31D-08  6  1     3.99     0.57
   8      1.13356762    -0.36992900   -93.28371343    -0.00000050    -0.00000046  0.11D-09  0.27D-09  6  2     4.51     0.57
   9      1.13356779    -0.36992907   -93.28371350    -0.00000007    -0.00000010  0.12D-10  0.17D-10  6  3     5.01     0.57
  10      1.13356765    -0.36992911   -93.28371355    -0.00000005     0.00000012  0.12D-11  0.17D-11  6  4     5.49     0.57
  11      1.13356758    -0.36992913   -93.28371356    -0.00000001     0.00000003  0.19D-12  0.14D-12  6  5     5.99     0.57
  12      1.13356751    -0.36992913   -93.28371357    -0.00000001     0.00000003  0.27D-13  0.25D-13  6  6     6.49     0.57
  13      1.13356748    -0.36992913   -93.28371357    -0.00000000     0.00000001  0.27D-14  0.60D-14  6  1     6.99     0.57
  14      1.13356746    -0.36992913   -93.28371357    -0.00000000     0.00000001  0.39D-15  0.58D-15  6  3     7.47     0.57
  15      1.13356745    -0.36992913   -93.28371357    -0.00000000     0.00000000  0.13D-16  0.41D-16  6  2     7.97     0.57
  16      1.13356745    -0.36992913   -93.28371357     0.00000000     0.00000000  0.27D-17  0.43D-17  6  4     8.46     0.57
  17      1.13356745    -0.36992913   -93.28371357    -0.00000000     0.00000000  0.55D-18  0.61D-18  6  5     8.99     0.57
  18      1.13356745    -0.36992913   -93.28371357    -0.00000000     0.00000000  0.52D-19  0.55D-19  6  6     9.52     0.57
  19      1.13356745    -0.36992913   -93.28371357    -0.00000000     0.00000000  0.95D-20  0.64D-20  6  1    10.01     0.57
  20      1.13356745    -0.36992913   -93.28371357     0.00000000    -0.00000000  0.29D-20  0.17D-20  6  3    10.51     0.58

 Norm of t1 vector:      0.06504983      S-energy:    -0.00000000      T1 diagnostic:  0.01454558
                                                                       D1 diagnostic:  0.02925077

 Doubles amplitudes (print threshold =  0.500E-01):

         I         J         SYM. A    SYM. B    A         B      T(IJ, AB)

         4         4         2         2         3         3     -0.05106878
         5         5         3         3         3         3     -0.05106878


 Total CPU time for triples:      3.49 sec


 RESULTS
 =======

  Reference energy                    -92.913784436086
  CCSD singlet pair energy             -0.259321328976
  CCSD triplet pair energy             -0.110607804636
  CCSD correlation energy              -0.369929133613

  Triples (T) contribution             -0.019738068957
  Total correlation energy             -0.389667202570

  CCSD total energy                   -93.283713569699
  CCSD[T] energy                      -93.304303601830
  CCSD-T energy                       -93.303064439972
 !CCSD(T) total energy                -93.303451638656

 Timing summary (sec):

 STEP                 CPU(USER)    SYS     CPU(TOT)    WALL
 Transformation          0.52      0.10      0.62      0.62
 CCSD iterations         9.99      1.53     11.52     11.52
 Triples                 3.49      0.11      3.60      3.60

 Program statistics:

 Available memory in ccsd:               994999800
 Min. memory needed in ccsd:                524097
 Max. memory used in ccsd:                  626326
 Max. memory used in cckext:                818237 (20 integral passes)



 **********************************************************************************************************************************
 DATASETS  * FILE   NREC   LENGTH (MB)   RECORD NAMES
              1      20      504.84       500      610      700      900      950      970     1000      129      960     1100   
                                          VAR    BASINP    GEOM    SYMINP    ZMAT    AOBASIS   BASIS     P2S    ABASIS      S 
                                         1400     1410     1200     1210     1080     1600     1650     1300     1700     1380   
                                           T        V       H0       H01     AOSYM     SMH    MOLCAS    ERIS     OPER     JKOP   

              2       4        3.06       700     1000      520     2100   
                                         GEOM     BASIS   MCVARS     RHF  

 PROGRAMS   *        TOTAL   CCSD(T)        HF       INT
 CPU TIMES  *        25.72     14.04      2.72      8.86
 REAL TIME  *        32.64 SEC
 DISK USED  *         1.47 GB      
 **********************************************************************************************************************************

 CCSD(T)/aug-cc-pVQZ energy=    -93.303451638656

        CCSD(T)         HF-SCF  
    -93.30345164    -92.91378444
 **********************************************************************************************************************************
 Molpro calculation terminated
 Variable memory released
