
 Primary working directories    : /tmp/r2666/232493.maple
 Secondary working directories  : /tmp/r2666/232493.maple
 Wavefunction directory         : /ddn/home4/r2666/wfu/
 Main file repository           : /tmp/r2666/232493.maple/

 SHA1      : d5ffa45e93fdbca01ffc919aa182cfdae0147319
 NAME      : 2015.1.35
 ARCHNAME  : linux/x86_64
 FC        : /opt/intel/composer_xe_2015.1.133/bin/intel64/ifort
 BLASLIB   : -Wl,-_start-group /opt/intel/mkl/lib/intel64/libmkl_intel_ilp64.a /opt/intel/mkl/lib/intel64/libmkl_intel_thread.a /opt/intel/mkl/lib/intel64/libmkl_core.a -Wl,-_end-group
 id        : olemiss

 Nodes     nprocs
 cn078        1

 Using customized tuning parameters: mindgm=1; mindgv=20; mindgc=4; mindgr=1; noblas=0; minvec=7
 default implementation of scratch files=df  

 ***,hcn CCSD(T)/TZ-F12 QFF
 memory, 995, m;
 gthresh,energy=1.d-12,zero=1.d-22,oneint=1.d-22,twoint=1.d-22;
 gthresh,optgrad=1.d-8,optstep=1.d-8;
 nocompress;
 geomtyp=xyz
 bohr
 geometry={
 3
         47        47
 N        0.0000000000        0.0000000000        1.1341500209
 C        0.0000000000        0.0000000000       -1.0635969059
 H        0.0000000000        0.0000000000       -3.0676230970
 }
 
 basis=avqz
   {hf,maxit=500;accu,20;}
 {ccsd(t),nocheck,maxit=250;orbital,IGNORE_ERROR;}

 Variables initialized (889), CPU time= 0.01 sec
 Commands  initialized (702), CPU time= 0.01 sec, 572 directives.
 Default parameters read. Elapsed time= 0.04 sec

 Checking input...
 Passed
1


                                         ***  PROGRAM SYSTEM MOLPRO  ***
                                       Copyright, TTI GmbH Stuttgart, 2015
                                    Version 2015.1 linked Jul  9 2018 13:16:40


 **********************************************************************************************************************************
 LABEL *   hcn CCSD(T)/TZ-F12 QFF                                                        
  64 bit serial version                                                                  DATE: 06-Feb-20          TIME: 09:53:51  
 **********************************************************************************************************************************

 SHA1:             d5ffa45e93fdbca01ffc919aa182cfdae0147319
 **********************************************************************************************************************************

 THRESHOLDS:

 ZERO    =  1.00D-22  ONEINT  =  1.00D-22  TWOINT  =  1.00D-22  PREFAC  =  1.00D-14  LOCALI  =  1.00D-09  EORDER  =  1.00D-04
 ENERGY  =  1.00D-12  ETEST   =  0.00D+00  EDENS   =  0.00D+00  THRDEDEF=  1.00D-06  GRADIENT=  1.00D-02  STEP    =  1.00D-03
 ORBITAL =  1.00D-05  CIVEC   =  1.00D-05  COEFF   =  1.00D-04  PRINTCI =  5.00D-02  PUNCHCI =  9.90D+01  OPTGRAD =  3.00D-04
 OPTENERG=  1.00D-06  OPTSTEP =  3.00D-04  THRGRAD =  1.00D-10  COMPRESS=  1.00D-11  VARMIN  =  1.00D-07  VARMAX  =  1.00D-03
 THRDOUB =  0.00D+00  THRDIV  =  1.00D-05  THRRED  =  1.00D-07  THRPSP  =  1.00D+00  THRDC   =  1.00D-10  THRCS   =  1.00D-10
 THRNRM  =  1.00D-08  THREQ   =  0.00D+00  THRDE   =  1.00D+00  THRREF  =  1.00D-05  SPARFAC =  1.00D+00  THRDLP  =  1.00D-07
 THRDIA  =  1.00D-10  THRDLS  =  1.00D-07  THRGPS  =  0.00D+00  THRKEX  =  0.00D+00  THRDIS  =  2.00D-01  THRVAR  =  1.00D-10
 THRLOC  =  1.00D-06  THRGAP  =  1.00D-06  THRLOCT = -1.00D+00  THRGAPT = -1.00D+00  THRORB  =  1.00D-06  THRMLTP =  0.00D+00
 THRCPQCI=  1.00D-10  KEXTA   =  0.00D+00  THRCOARS=  0.00D+00  SYMTOL  =  1.00D-06  GRADTOL =  1.00D-06  THROVL  =  1.00D-08
 THRORTH =  1.00D-08  GRID    =  1.00D-06  GRIDMAX =  1.00D-03  DTMAX   =  0.00D+00  THROCCDE=  1.00D-01  THROCCDE=  1.00D-01



 THRESHOLDS:

 ZERO    =  1.00D-22  ONEINT  =  1.00D-22  TWOINT  =  1.00D-22  PREFAC  =  1.00D-14  LOCALI  =  1.00D-09  EORDER  =  1.00D-04
 ENERGY  =  1.00D-12  ETEST   =  0.00D+00  EDENS   =  0.00D+00  THRDEDEF=  1.00D-06  GRADIENT=  1.00D-02  STEP    =  1.00D-03
 ORBITAL =  1.00D-05  CIVEC   =  1.00D-05  COEFF   =  1.00D-04  PRINTCI =  5.00D-02  PUNCHCI =  9.90D+01  OPTGRAD =  1.00D-08
 OPTENERG=  1.00D-06  OPTSTEP =  1.00D-08  THRGRAD =  1.00D-10  COMPRESS=  1.00D-11  VARMIN  =  1.00D-07  VARMAX  =  1.00D-03
 THRDOUB =  0.00D+00  THRDIV  =  1.00D-05  THRRED  =  1.00D-07  THRPSP  =  1.00D+00  THRDC   =  1.00D-10  THRCS   =  1.00D-10
 THRNRM  =  1.00D-08  THREQ   =  0.00D+00  THRDE   =  1.00D+00  THRREF  =  1.00D-05  SPARFAC =  1.00D+00  THRDLP  =  1.00D-07
 THRDIA  =  1.00D-10  THRDLS  =  1.00D-07  THRGPS  =  0.00D+00  THRKEX  =  0.00D+00  THRDIS  =  2.00D-01  THRVAR  =  1.00D-10
 THRLOC  =  1.00D-06  THRGAP  =  1.00D-06  THRLOCT = -1.00D+00  THRGAPT = -1.00D+00  THRORB  =  1.00D-06  THRMLTP =  0.00D+00
 THRCPQCI=  1.00D-10  KEXTA   =  0.00D+00  THRCOARS=  0.00D+00  SYMTOL  =  1.00D-06  GRADTOL =  1.00D-06  THROVL  =  1.00D-08
 THRORTH =  1.00D-08  GRID    =  1.00D-06  GRIDMAX =  1.00D-03  DTMAX   =  0.00D+00  THROCCDE=  1.00D-01  THROCCDE=  1.00D-01



 Input parameters for SORTINT:

 COMPRESS =    0.000000
 C_FINAL  =    1.000000
 DEBUG    =   -1.000000
 C_SORT1  =    0.000000
 C_SEWARD =    0.000000
 THRESH   =    0.000000
 IO       =  molpro                                                          
 SPRI     =    0.000000
 SETTING GEOMTYP        =    XYZ
 ZUNIT=BOHR
 

 Variable memory set to  995000000 words,  buffer space   230000 words

 SETTING BASIS          =    AVQZ


 Recomputing integrals since basis changed


 Using spherical harmonics

 Library entry N      S aug-cc-pVQZ          selected for orbital group  1
 Library entry N      P aug-cc-pVQZ          selected for orbital group  1
 Library entry N      D aug-cc-pVQZ          selected for orbital group  1
 Library entry N      F aug-cc-pVQZ          selected for orbital group  1
 Library entry N      G aug-cc-pVQZ          selected for orbital group  1
 Library entry C      S aug-cc-pVQZ          selected for orbital group  2
 Library entry C      P aug-cc-pVQZ          selected for orbital group  2
 Library entry C      D aug-cc-pVQZ          selected for orbital group  2
 Library entry C      F aug-cc-pVQZ          selected for orbital group  2
 Library entry C      G aug-cc-pVQZ          selected for orbital group  2
 Library entry H      S aug-cc-pVQZ          selected for orbital group  3
 Library entry H      P aug-cc-pVQZ          selected for orbital group  3
 Library entry H      D aug-cc-pVQZ          selected for orbital group  3
 Library entry H      F aug-cc-pVQZ          selected for orbital group  3


 PROGRAM * SEWARD (Integral evaluation for generally contracted gaussian basis sets)     Author: Roland Lindh, 1990

 Geometry written to block  1 of record 700


 Point group  C2v 



 ATOMIC COORDINATES

 NR  ATOM    CHARGE       X              Y              Z

   1  N       7.00    0.000000000    0.000000000    1.134150021
   2  C       6.00    0.000000000    0.000000000   -1.063596906
   3  H       1.00    0.000000000    0.000000000   -3.067623097

 Bond lengths in Bohr (Angstrom)

 1-2  2.197746927  2-3  2.004026191
     ( 1.162997589)     ( 1.060484990)

 Bond angles

  1-2-3  180.00000000

 NUCLEAR CHARGE:                   14
 NUMBER OF PRIMITIVE AOS:         293
 NUMBER OF SYMMETRY AOS:          234
 NUMBER OF CONTRACTIONS:          206   (  81A1  +  49B1  +  49B2  +  27A2  )
 NUMBER OF CORE ORBITALS:           2   (   2A1  +   0B1  +   0B2  +   0A2  )
 NUMBER OF VALENCE ORBITALS:        9   (   5A1  +   2B1  +   2B2  +   0A2  )


 NUCLEAR REPULSION ENERGY   23.77041679

 EXTRA SYMMETRY OF AOS IN SYMMETRY 1:   1 1 1 1 1 1 1 1 1 1   1 1 2 1 2 1 2 1 2 1   2 1 2 1 2 1 3 2 1 3   2 1 1 1 1 1 1 1 1 1
                                        1 1 1 2 1 2 1 2 1 2   1 2 1 2 1 2 1 3 2 1   3 2 1 1 1 1 1 1 1 1   1 1 2 1 2 1 2 1 2 1
                                        2
 EXTRA SYMMETRY OF AOS IN SYMMETRY 2:   1 1 1 1 1 1 1 1 1 1   2 1 2 1 2 1 2 1 2 1   1 1 1 1 1 1 1 1 1 2   1 2 1 2 1 2 1 2 1 1
                                        1 1 1 1 1 1 2 1 2
 EXTRA SYMMETRY OF AOS IN SYMMETRY 3:   1 1 1 1 1 1 1 1 1 1   2 1 2 1 2 1 2 1 2 1   1 1 1 1 1 1 1 1 1 2   1 2 1 2 1 2 1 2 1 1
                                        1 1 1 1 1 1 2 1 2
 EXTRA SYMMETRY OF AOS IN SYMMETRY 4:   1 1 1 1 1 1 1 1 2 1   2 1 1 1 1 1 1 1 1 2   1 2 1 1 1 1 1

 Eigenvalues of metric

         1 0.172E-04 0.393E-04 0.710E-04 0.280E-03 0.401E-03 0.443E-03 0.527E-03 0.804E-03
         2 0.409E-03 0.934E-03 0.304E-02 0.351E-02 0.479E-02 0.644E-02 0.870E-02 0.107E-01
         3 0.409E-03 0.934E-03 0.304E-02 0.351E-02 0.479E-02 0.644E-02 0.870E-02 0.107E-01
         4 0.472E-02 0.124E-01 0.326E-01 0.566E-01 0.897E-01 0.142E+00 0.198E+00 0.231E+00


 Contracted 2-electron integrals neglected if value below      1.0D-22

       51227108. INTEGRALS WRITTEN OUT IN   12510 BLOCKS ON RECORD 1290 OF FILE 1


 NUMBER OF SORTED TWO-ELECTRON INTEGRALS:   58298162.     BUFFER LENGTH:  32768
 NUMBER OF SEGMENTS:   4  SEGMENT LENGTH:   15999501      RECORD LENGTH: 524288

 Memory used in sort:      16.56 MW

 SORT1 READ    51227108. AND WROTE    51982588. INTEGRALS IN    150 RECORDS. CPU TIME:     1.32 SEC, REAL TIME:     1.64 SEC
 SORT2 READ    51982588. AND WROTE    58298162. INTEGRALS IN      4 RECORDS. CPU TIME:     0.82 SEC, REAL TIME:     1.03 SEC

 FILE SIZES:   FILE 1:   840.7 MBYTE,  FILE 4:   629.2 MBYTE,   TOTAL:   1469.9 MBYTE

 OPERATOR DM      FOR CENTER  0  COORDINATES:    0.000000    0.000000    0.000000


 **********************************************************************************************************************************
 DATASETS  * FILE   NREC   LENGTH (MB)   RECORD NAMES
              1      19      461.88       500      610      700      900      950      970     1000      129      960     1100   
                                          VAR    BASINP    GEOM    SYMINP    ZMAT    AOBASIS   BASIS     P2S    ABASIS      S 
                                         1400     1410     1200     1210     1080     1600     1650     1300     1700   
                                           T        V       H0       H01     AOSYM     SMH    MOLCAS    ERIS     OPER   

 PROGRAMS   *        TOTAL       INT
 CPU TIMES  *         8.77      8.66
 REAL TIME  *        10.35 SEC
 DISK USED  *         1.47 GB      
 **********************************************************************************************************************************


 PROGRAM * RHF-SCF (CLOSED SHELL)       Authors: W. Meyer, H.-J. Werner


 NUMBER OF ELECTRONS:       7+    7-
 CONVERGENCE THRESHOLDS:    1.00E-10 (Density)    1.00E-13 (Energy)
 MAX. NUMBER OF ITERATIONS:      500
 INTERPOLATION TYPE:            DIIS
 INTERPOLATION STEPS:              2 (START)      1 (STEP)
 LEVEL SHIFTS:                  0.00 (CLOSED)  0.00 (OPEN) 



 Orbital guess generated from atomic densities. Full valence occupancy:    7   2   2   0

 Molecular orbital dump at record        2100.2

 Initial occupancy:   5   1   1   0

 ITERATION    DDIFF          GRAD             ENERGY        2-EL.EN.            DIPOLE MOMENTS         DIIS   ORB.
    1      0.000D+00      0.000D+00       -92.88862172    111.615840    0.00000    0.00000   -1.78356    0    start
    2      0.000D+00      0.699D-02       -92.89718407    110.805799    0.00000    0.00000   -0.88911    1    diag
    3      0.718D-02      0.631D-02       -92.91265708    111.337507    0.00000    0.00000   -1.30770    2    diag
    4      0.356D-02      0.531D-03       -92.91289314    111.292989    0.00000    0.00000   -1.29635    3    diag
    5      0.646D-03      0.118D-03       -92.91290704    111.305347    0.00000    0.00000   -1.29495    4    diag
    6      0.154D-03      0.322D-04       -92.91290799    111.299760    0.00000    0.00000   -1.29490    5    diag
    7      0.365D-04      0.116D-04       -92.91290808    111.300886    0.00000    0.00000   -1.29497    6    diag
    8      0.119D-04      0.244D-05       -92.91290808    111.300843    0.00000    0.00000   -1.29493    7    diag
    9      0.255D-05      0.280D-06       -92.91290808    111.300852    0.00000    0.00000   -1.29493    8    diag
   10      0.364D-06      0.339D-07       -92.91290808    111.300853    0.00000    0.00000   -1.29493    9    orth
   11      0.392D-07      0.473D-08       -92.91290808    111.300853    0.00000    0.00000   -1.29493    9    diag
   12      0.608D-08      0.442D-09       -92.91290808    111.300853    0.00000    0.00000   -1.29493    9    diag
   13      0.114D-08      0.544D-10       -92.91290808    111.300853    0.00000    0.00000   -1.29493    9    diag
   14      0.955D-10      0.622D-11       -92.91290808    111.300853    0.00000    0.00000   -1.29493    9    diag
   15      0.221D-10      0.233D-11       -92.91290808    111.300853    0.00000    0.00000   -1.29493    0    orth

 Final occupancy:   5   1   1   0

 !RHF STATE 1.1 Energy                -92.912908081008
 Nuclear energy                        23.77041679
 One-electron energy                 -172.33375151
 Two-electron energy                   55.65042665
 Virial quotient                       -1.00254247
 !RHF STATE 1.1 Dipole moment           0.00000000     0.00000000    -1.29492680
 Dipole moment /Debye                   0.00000000     0.00000000    -3.29116005

 Orbital energies:

         1.1          2.1          3.1          4.1          5.1          6.1          7.1
    -15.602078   -11.294443    -1.232024    -0.816694    -0.582973     0.020504     0.062602

         1.2          2.2          3.2
     -0.494119     0.063579     0.118977

         1.3          2.3          3.3
     -0.494119     0.063579     0.118977

         1.4          2.4
      0.225927     0.394729

 HOMO      1.2    -0.494119 =     -13.4457eV
 LUMO      6.1     0.020504 =       0.5579eV
 LUMO-HOMO         0.514623 =      14.0036eV


 **********************************************************************************************************************************
 DATASETS  * FILE   NREC   LENGTH (MB)   RECORD NAMES
              1      19      461.88       500      610      700      900      950      970     1000      129      960     1100   
                                          VAR    BASINP    GEOM    SYMINP    ZMAT    AOBASIS   BASIS     P2S    ABASIS      S 
                                         1400     1410     1200     1210     1080     1600     1650     1300     1700   
                                           T        V       H0       H01     AOSYM     SMH    MOLCAS    ERIS     OPER   

              2       4        3.06       700     1000      520     2100   
                                         GEOM     BASIS   MCVARS     RHF  

 PROGRAMS   *        TOTAL        HF       INT
 CPU TIMES  *        11.52      2.76      8.66
 REAL TIME  *        13.78 SEC
 DISK USED  *         1.47 GB      
 **********************************************************************************************************************************


 PROGRAM * CCSD (Closed-shell coupled cluster)     Authors: C. Hampel, H.-J. Werner, 1991, M. Deegan, P.J. Knowles, 1992


 Convergence thresholds:  THRVAR = 1.00D-08  THRDEN = 1.00D-12

 CCSD(T)     terms to be evaluated (factor= 1.000)


 Number of core orbitals:           2 (   2   0   0   0 )
 Number of closed-shell orbitals:   5 (   3   1   1   0 )
 Number of external orbitals:     199 (  76  48  48  27 )

 Molecular orbitals read from record     2100.2  Type=RHF/CANONICAL (state 1.1)

 Number of N-1 electron functions:               5
 Number of N-2 electron functions:              15
 Number of singly external CSFs:               324
 Number of doubly external CSFs:            129659
 Total number of CSFs:                      129984

 Length of J-op  integral file:               0.00 MB
 Length of K-op  integral file:               0.86 MB
 Length of 3-ext integral record:             0.00 MB

 Memory could be reduced to 15.89 Mwords without degradation in triples

 Integral transformation finished. Total CPU:   0.44 sec, npass=  1  Memory used:   1.90 MW

 Reference energy:                    -92.91290808

 MP2 singlet pair energy:              -0.23907301
 MP2 triplet pair energy:              -0.13276319
 MP2 correlation energy:               -0.37183620
 MP2 total energy:                    -93.28474428

 SCS-MP2 correlation energy:           -0.36949582   (PS=  1.200000  PT=  0.333333)
 SCS-MP2 total energy:                -93.28240390

 ITER.      SQ.NORM     CORR.ENERGY   TOTAL ENERGY   ENERGY CHANGE        DEN1      VAR(S)    VAR(P)  DIIS     TIME  TIME/IT
   1      1.11679218    -0.37010990   -93.28301798     0.00172630     0.01527262  0.27D-02  0.33D-02  1  1     0.91     0.51
   2      1.12625803    -0.37022522   -93.28313330    -0.00011532    -0.01035606  0.66D-04  0.42D-03  2  2     1.36     0.52
   3      1.13146477    -0.37045723   -93.28336531    -0.00023201    -0.00266294  0.14D-04  0.47D-04  3  3     1.82     0.52
   4      1.13365686    -0.37053986   -93.28344794    -0.00008263    -0.00076619  0.61D-06  0.54D-05  4  4     2.26     0.53
   5      1.13422638    -0.37054369   -93.28345177    -0.00000384    -0.00016130  0.78D-07  0.48D-06  5  5     2.75     0.53
   6      1.13434833    -0.37054095   -93.28344903     0.00000274    -0.00003204  0.11D-07  0.39D-07  6  6     3.25     0.53
   7      1.13435658    -0.37054275   -93.28345083    -0.00000180    -0.00000095  0.94D-09  0.33D-08  6  1     3.73     0.53
   8      1.13435840    -0.37054328   -93.28345136    -0.00000053    -0.00000048  0.11D-09  0.29D-09  6  2     4.20     0.53
   9      1.13435856    -0.37054335   -93.28345143    -0.00000007    -0.00000009  0.14D-10  0.18D-10  6  3     4.68     0.53
  10      1.13435841    -0.37054340   -93.28345148    -0.00000005     0.00000012  0.13D-11  0.18D-11  6  4     5.12     0.53
  11      1.13435833    -0.37054341   -93.28345149    -0.00000001     0.00000003  0.24D-12  0.15D-12  6  5     5.59     0.53
  12      1.13435827    -0.37054342   -93.28345150    -0.00000001     0.00000003  0.38D-13  0.27D-13  6  6     6.05     0.53
  13      1.13435823    -0.37054342   -93.28345150    -0.00000000     0.00000001  0.39D-14  0.68D-14  6  1     6.51     0.53
  14      1.13435821    -0.37054342   -93.28345150    -0.00000000     0.00000001  0.54D-15  0.62D-15  6  3     6.99     0.53
  15      1.13435820    -0.37054342   -93.28345150    -0.00000000     0.00000000  0.18D-16  0.45D-16  6  2     7.46     0.53
  16      1.13435820    -0.37054342   -93.28345150     0.00000000     0.00000000  0.35D-17  0.48D-17  6  4     7.93     0.53
  17      1.13435820    -0.37054342   -93.28345150    -0.00000000     0.00000000  0.66D-18  0.67D-18  6  5     8.38     0.53
  18      1.13435820    -0.37054342   -93.28345150    -0.00000000     0.00000000  0.58D-19  0.60D-19  6  6     8.86     0.53
  19      1.13435820    -0.37054342   -93.28345150    -0.00000000    -0.00000000  0.10D-19  0.79D-20  6  1     9.32     0.53

 Norm of t1 vector:      0.06570867      S-energy:    -0.00000000      T1 diagnostic:  0.01469290
                                                                       D1 diagnostic:  0.02960466

 Doubles amplitudes (print threshold =  0.500E-01):

         I         J         SYM. A    SYM. B    A         B      T(IJ, AB)

         4         4         2         2         3         3     -0.05155866
         5         5         3         3         3         3     -0.05155866


 Total CPU time for triples:      2.57 sec


 RESULTS
 =======

  Reference energy                    -92.912908081008
  CCSD singlet pair energy             -0.259820465430
  CCSD triplet pair energy             -0.110722955821
  CCSD correlation energy              -0.370543421252

  Triples (T) contribution             -0.019889661851
  Total correlation energy             -0.390433083103

  CCSD total energy                   -93.283451502260
  CCSD[T] energy                      -93.304212387139
  CCSD-T energy                       -93.302946130606
 !CCSD(T) total energy                -93.303341164111

 Timing summary (sec):

 STEP                 CPU(USER)    SYS     CPU(TOT)    WALL
 Transformation          0.45      0.12      0.57      0.56
 CCSD iterations         8.88      1.21     10.09     10.10
 Triples                 2.57      0.11      2.68      2.68

 Program statistics:

 Available memory in ccsd:               994999800
 Min. memory needed in ccsd:                524097
 Max. memory used in ccsd:                  626326
 Max. memory used in cckext:                818237 (19 integral passes)



 **********************************************************************************************************************************
 DATASETS  * FILE   NREC   LENGTH (MB)   RECORD NAMES
              1      20      504.86       500      610      700      900      950      970     1000      129      960     1100   
                                          VAR    BASINP    GEOM    SYMINP    ZMAT    AOBASIS   BASIS     P2S    ABASIS      S 
                                         1400     1410     1200     1210     1080     1600     1650     1300     1700     1380   
                                           T        V       H0       H01     AOSYM     SMH    MOLCAS    ERIS     OPER     JKOP   

              2       4        3.06       700     1000      520     2100   
                                         GEOM     BASIS   MCVARS     RHF  

 PROGRAMS   *        TOTAL   CCSD(T)        HF       INT
 CPU TIMES  *        23.44     11.92      2.76      8.66
 REAL TIME  *        27.16 SEC
 DISK USED  *         1.47 GB      
 **********************************************************************************************************************************

 CCSD(T)/aug-cc-pVQZ energy=    -93.303341164111

        CCSD(T)         HF-SCF  
    -93.30334116    -92.91290808
 **********************************************************************************************************************************
 Molpro calculation terminated
 Variable memory released
