
 Primary working directories    : /tmp/r2666/232469.maple
 Secondary working directories  : /tmp/r2666/232469.maple
 Wavefunction directory         : /ddn/home4/r2666/wfu/
 Main file repository           : /tmp/r2666/232469.maple/

 SHA1      : d5ffa45e93fdbca01ffc919aa182cfdae0147319
 NAME      : 2015.1.35
 ARCHNAME  : linux/x86_64
 FC        : /opt/intel/composer_xe_2015.1.133/bin/intel64/ifort
 BLASLIB   : -Wl,-_start-group /opt/intel/mkl/lib/intel64/libmkl_intel_ilp64.a /opt/intel/mkl/lib/intel64/libmkl_intel_thread.a /opt/intel/mkl/lib/intel64/libmkl_core.a -Wl,-_end-group
 id        : olemiss

 Nodes     nprocs
 cn064        1

 Using customized tuning parameters: mindgm=1; mindgv=20; mindgc=4; mindgr=1; noblas=0; minvec=7
 default implementation of scratch files=df  

 ***,hcn CCSD(T)/TZ-F12 QFF
 memory, 995, m;
 gthresh,energy=1.d-12,zero=1.d-22,oneint=1.d-22,twoint=1.d-22;
 gthresh,optgrad=1.d-8,optstep=1.d-8;
 nocompress;
 geomtyp=xyz
 bohr
 geometry={
 3
         23        23
 N        0.0000000000        0.0000000000        1.1184023044
 C        0.0000000000        0.0000000000       -1.0604473626
 H        0.0000000000        0.0000000000       -3.0550249237
 }
 
 basis=avqz
   {hf,maxit=500;accu,20;}
 {ccsd(t),nocheck,maxit=250;orbital,IGNORE_ERROR;}

 Variables initialized (889), CPU time= 0.00 sec
 Commands  initialized (702), CPU time= 0.00 sec, 572 directives.
 Default parameters read. Elapsed time= 0.05 sec

 Checking input...
 Passed
1


                                         ***  PROGRAM SYSTEM MOLPRO  ***
                                       Copyright, TTI GmbH Stuttgart, 2015
                                    Version 2015.1 linked Jul  9 2018 13:16:40


 **********************************************************************************************************************************
 LABEL *   hcn CCSD(T)/TZ-F12 QFF                                                        
  64 bit serial version                                                                  DATE: 06-Feb-20          TIME: 09:52:30  
 **********************************************************************************************************************************

 SHA1:             d5ffa45e93fdbca01ffc919aa182cfdae0147319
 **********************************************************************************************************************************

 THRESHOLDS:

 ZERO    =  1.00D-22  ONEINT  =  1.00D-22  TWOINT  =  1.00D-22  PREFAC  =  1.00D-14  LOCALI  =  1.00D-09  EORDER  =  1.00D-04
 ENERGY  =  1.00D-12  ETEST   =  0.00D+00  EDENS   =  0.00D+00  THRDEDEF=  1.00D-06  GRADIENT=  1.00D-02  STEP    =  1.00D-03
 ORBITAL =  1.00D-05  CIVEC   =  1.00D-05  COEFF   =  1.00D-04  PRINTCI =  5.00D-02  PUNCHCI =  9.90D+01  OPTGRAD =  3.00D-04
 OPTENERG=  1.00D-06  OPTSTEP =  3.00D-04  THRGRAD =  1.00D-10  COMPRESS=  1.00D-11  VARMIN  =  1.00D-07  VARMAX  =  1.00D-03
 THRDOUB =  0.00D+00  THRDIV  =  1.00D-05  THRRED  =  1.00D-07  THRPSP  =  1.00D+00  THRDC   =  1.00D-10  THRCS   =  1.00D-10
 THRNRM  =  1.00D-08  THREQ   =  0.00D+00  THRDE   =  1.00D+00  THRREF  =  1.00D-05  SPARFAC =  1.00D+00  THRDLP  =  1.00D-07
 THRDIA  =  1.00D-10  THRDLS  =  1.00D-07  THRGPS  =  0.00D+00  THRKEX  =  0.00D+00  THRDIS  =  2.00D-01  THRVAR  =  1.00D-10
 THRLOC  =  1.00D-06  THRGAP  =  1.00D-06  THRLOCT = -1.00D+00  THRGAPT = -1.00D+00  THRORB  =  1.00D-06  THRMLTP =  0.00D+00
 THRCPQCI=  1.00D-10  KEXTA   =  0.00D+00  THRCOARS=  0.00D+00  SYMTOL  =  1.00D-06  GRADTOL =  1.00D-06  THROVL  =  1.00D-08
 THRORTH =  1.00D-08  GRID    =  1.00D-06  GRIDMAX =  1.00D-03  DTMAX   =  0.00D+00  THROCCDE=  1.00D-01  THROCCDE=  1.00D-01



 THRESHOLDS:

 ZERO    =  1.00D-22  ONEINT  =  1.00D-22  TWOINT  =  1.00D-22  PREFAC  =  1.00D-14  LOCALI  =  1.00D-09  EORDER  =  1.00D-04
 ENERGY  =  1.00D-12  ETEST   =  0.00D+00  EDENS   =  0.00D+00  THRDEDEF=  1.00D-06  GRADIENT=  1.00D-02  STEP    =  1.00D-03
 ORBITAL =  1.00D-05  CIVEC   =  1.00D-05  COEFF   =  1.00D-04  PRINTCI =  5.00D-02  PUNCHCI =  9.90D+01  OPTGRAD =  1.00D-08
 OPTENERG=  1.00D-06  OPTSTEP =  1.00D-08  THRGRAD =  1.00D-10  COMPRESS=  1.00D-11  VARMIN  =  1.00D-07  VARMAX  =  1.00D-03
 THRDOUB =  0.00D+00  THRDIV  =  1.00D-05  THRRED  =  1.00D-07  THRPSP  =  1.00D+00  THRDC   =  1.00D-10  THRCS   =  1.00D-10
 THRNRM  =  1.00D-08  THREQ   =  0.00D+00  THRDE   =  1.00D+00  THRREF  =  1.00D-05  SPARFAC =  1.00D+00  THRDLP  =  1.00D-07
 THRDIA  =  1.00D-10  THRDLS  =  1.00D-07  THRGPS  =  0.00D+00  THRKEX  =  0.00D+00  THRDIS  =  2.00D-01  THRVAR  =  1.00D-10
 THRLOC  =  1.00D-06  THRGAP  =  1.00D-06  THRLOCT = -1.00D+00  THRGAPT = -1.00D+00  THRORB  =  1.00D-06  THRMLTP =  0.00D+00
 THRCPQCI=  1.00D-10  KEXTA   =  0.00D+00  THRCOARS=  0.00D+00  SYMTOL  =  1.00D-06  GRADTOL =  1.00D-06  THROVL  =  1.00D-08
 THRORTH =  1.00D-08  GRID    =  1.00D-06  GRIDMAX =  1.00D-03  DTMAX   =  0.00D+00  THROCCDE=  1.00D-01  THROCCDE=  1.00D-01



 Input parameters for SORTINT:

 COMPRESS =    0.000000
 C_FINAL  =    1.000000
 DEBUG    =   -1.000000
 C_SORT1  =    0.000000
 C_SEWARD =    0.000000
 THRESH   =    0.000000
 IO       =  molpro                                                          
 SPRI     =    0.000000
 SETTING GEOMTYP        =    XYZ
 ZUNIT=BOHR
 

 Variable memory set to  995000000 words,  buffer space   230000 words

 SETTING BASIS          =    AVQZ


 Recomputing integrals since basis changed


 Using spherical harmonics

 Library entry N      S aug-cc-pVQZ          selected for orbital group  1
 Library entry N      P aug-cc-pVQZ          selected for orbital group  1
 Library entry N      D aug-cc-pVQZ          selected for orbital group  1
 Library entry N      F aug-cc-pVQZ          selected for orbital group  1
 Library entry N      G aug-cc-pVQZ          selected for orbital group  1
 Library entry C      S aug-cc-pVQZ          selected for orbital group  2
 Library entry C      P aug-cc-pVQZ          selected for orbital group  2
 Library entry C      D aug-cc-pVQZ          selected for orbital group  2
 Library entry C      F aug-cc-pVQZ          selected for orbital group  2
 Library entry C      G aug-cc-pVQZ          selected for orbital group  2
 Library entry H      S aug-cc-pVQZ          selected for orbital group  3
 Library entry H      P aug-cc-pVQZ          selected for orbital group  3
 Library entry H      D aug-cc-pVQZ          selected for orbital group  3
 Library entry H      F aug-cc-pVQZ          selected for orbital group  3


 PROGRAM * SEWARD (Integral evaluation for generally contracted gaussian basis sets)     Author: Roland Lindh, 1990

 Geometry written to block  1 of record 700


 Point group  C2v 



 ATOMIC COORDINATES

 NR  ATOM    CHARGE       X              Y              Z

   1  N       7.00    0.000000000    0.000000000    1.118402304
   2  C       6.00    0.000000000    0.000000000   -1.060447363
   3  H       1.00    0.000000000    0.000000000   -3.055024924

 Bond lengths in Bohr (Angstrom)

 1-2  2.178849667  2-3  1.994577561
     ( 1.152997590)     ( 1.055484991)

 Bond angles

  1-2-3  180.00000000

 NUCLEAR CHARGE:                   14
 NUMBER OF PRIMITIVE AOS:         293
 NUMBER OF SYMMETRY AOS:          234
 NUMBER OF CONTRACTIONS:          206   (  81A1  +  49B1  +  49B2  +  27A2  )
 NUMBER OF CORE ORBITALS:           2   (   2A1  +   0B1  +   0B2  +   0A2  )
 NUMBER OF VALENCE ORBITALS:        9   (   5A1  +   2B1  +   2B2  +   0A2  )


 NUCLEAR REPULSION ENERGY   23.96166097

 EXTRA SYMMETRY OF AOS IN SYMMETRY 1:   1 1 1 1 1 1 1 1 1 1   1 1 2 1 2 1 2 1 2 1   2 1 2 1 2 1 3 2 1 3   2 1 1 1 1 1 1 1 1 1
                                        1 1 1 2 1 2 1 2 1 2   1 2 1 2 1 2 1 3 2 1   3 2 1 1 1 1 1 1 1 1   1 1 2 1 2 1 2 1 2 1
                                        2
 EXTRA SYMMETRY OF AOS IN SYMMETRY 2:   1 1 1 1 1 1 1 1 1 1   2 1 2 1 2 1 2 1 2 1   1 1 1 1 1 1 1 1 1 2   1 2 1 2 1 2 1 2 1 1
                                        1 1 1 1 1 1 2 1 2
 EXTRA SYMMETRY OF AOS IN SYMMETRY 3:   1 1 1 1 1 1 1 1 1 1   2 1 2 1 2 1 2 1 2 1   1 1 1 1 1 1 1 1 1 2   1 2 1 2 1 2 1 2 1 1
                                        1 1 1 1 1 1 2 1 2
 EXTRA SYMMETRY OF AOS IN SYMMETRY 4:   1 1 1 1 1 1 1 1 2 1   2 1 1 1 1 1 1 1 1 2   1 2 1 1 1 1 1

 Eigenvalues of metric

         1 0.166E-04 0.386E-04 0.685E-04 0.276E-03 0.395E-03 0.434E-03 0.518E-03 0.792E-03
         2 0.399E-03 0.912E-03 0.292E-02 0.341E-02 0.468E-02 0.632E-02 0.864E-02 0.106E-01
         3 0.399E-03 0.912E-03 0.292E-02 0.341E-02 0.468E-02 0.632E-02 0.864E-02 0.106E-01
         4 0.457E-02 0.123E-01 0.316E-01 0.553E-01 0.880E-01 0.140E+00 0.196E+00 0.228E+00


 Contracted 2-electron integrals neglected if value below      1.0D-22

       51236478. INTEGRALS WRITTEN OUT IN   12512 BLOCKS ON RECORD 1290 OF FILE 1


 NUMBER OF SORTED TWO-ELECTRON INTEGRALS:   58298162.     BUFFER LENGTH:  32768
 NUMBER OF SEGMENTS:   4  SEGMENT LENGTH:   15999501      RECORD LENGTH: 524288

 Memory used in sort:      16.56 MW

 SORT1 READ    51236478. AND WROTE    51991926. INTEGRALS IN    150 RECORDS. CPU TIME:     2.10 SEC, REAL TIME:     2.54 SEC
 SORT2 READ    51991926. AND WROTE    58298162. INTEGRALS IN      4 RECORDS. CPU TIME:     1.17 SEC, REAL TIME:     1.58 SEC

 FILE SIZES:   FILE 1:   840.9 MBYTE,  FILE 4:   629.2 MBYTE,   TOTAL:   1470.0 MBYTE

 OPERATOR DM      FOR CENTER  0  COORDINATES:    0.000000    0.000000    0.000000


 **********************************************************************************************************************************
 DATASETS  * FILE   NREC   LENGTH (MB)   RECORD NAMES
              1      19      461.93       500      610      700      900      950      970     1000      129      960     1100   
                                          VAR    BASINP    GEOM    SYMINP    ZMAT    AOBASIS   BASIS     P2S    ABASIS      S 
                                         1400     1410     1200     1210     1080     1600     1650     1300     1700   
                                           T        V       H0       H01     AOSYM     SMH    MOLCAS    ERIS     OPER   

 PROGRAMS   *        TOTAL       INT
 CPU TIMES  *        13.60     13.51
 REAL TIME  *        15.87 SEC
 DISK USED  *         1.47 GB      
 **********************************************************************************************************************************


 PROGRAM * RHF-SCF (CLOSED SHELL)       Authors: W. Meyer, H.-J. Werner


 NUMBER OF ELECTRONS:       7+    7-
 CONVERGENCE THRESHOLDS:    1.00E-10 (Density)    1.00E-13 (Energy)
 MAX. NUMBER OF ITERATIONS:      500
 INTERPOLATION TYPE:            DIIS
 INTERPOLATION STEPS:              2 (START)      1 (STEP)
 LEVEL SHIFTS:                  0.00 (CLOSED)  0.00 (OPEN) 



 Orbital guess generated from atomic densities. Full valence occupancy:    7   2   2   0

 Molecular orbital dump at record        2100.2

 Initial occupancy:   5   1   1   0

 ITERATION    DDIFF          GRAD             ENERGY        2-EL.EN.            DIPOLE MOMENTS         DIIS   ORB.
    1      0.000D+00      0.000D+00       -92.89057175    112.035220    0.00000    0.00000   -1.76933    0    start
    2      0.000D+00      0.698D-02       -92.89955373    111.169573    0.00000    0.00000   -0.89805    1    diag
    3      0.714D-02      0.619D-02       -92.91438466    111.705930    0.00000    0.00000   -1.30242    2    diag
    4      0.351D-02      0.526D-03       -92.91461548    111.667699    0.00000    0.00000   -1.29111    3    diag
    5      0.641D-03      0.112D-03       -92.91462867    111.676914    0.00000    0.00000   -1.28966    4    diag
    6      0.152D-03      0.300D-04       -92.91462945    111.672088    0.00000    0.00000   -1.28974    5    diag
    7      0.327D-04      0.107D-04       -92.91462952    111.673260    0.00000    0.00000   -1.28979    6    diag
    8      0.109D-04      0.227D-05       -92.91462952    111.673206    0.00000    0.00000   -1.28975    7    diag
    9      0.235D-05      0.262D-06       -92.91462952    111.673215    0.00000    0.00000   -1.28975    8    diag
   10      0.341D-06      0.328D-07       -92.91462952    111.673216    0.00000    0.00000   -1.28975    9    orth
   11      0.376D-07      0.473D-08       -92.91462952    111.673216    0.00000    0.00000   -1.28975    9    diag
   12      0.597D-08      0.434D-09       -92.91462952    111.673216    0.00000    0.00000   -1.28975    9    diag
   13      0.111D-08      0.577D-10       -92.91462952    111.673216    0.00000    0.00000   -1.28975    9    diag
   14      0.100D-09      0.746D-11       -92.91462952    111.673216    0.00000    0.00000   -1.28975    9    diag
   15      0.307D-10      0.295D-11       -92.91462952    111.673216    0.00000    0.00000   -1.28975    9    diag
   16      0.116D-10      0.408D-12       -92.91462952    111.673216    0.00000    0.00000   -1.28975    9    diag
   17      0.137D-10      0.215D-12       -92.91462952    111.673216    0.00000    0.00000   -1.28975    9    diag
   18      0.876D-11      0.188D-12       -92.91462952    111.673216    0.00000    0.00000   -1.28975    9    diag
   19      0.335D-11      0.917D-13       -92.91462952    111.673216    0.00000    0.00000   -1.28975    0    orth

 Final occupancy:   5   1   1   0

 !RHF STATE 1.1 Energy                -92.914629524902
 Nuclear energy                        23.96166097
 One-electron energy                 -172.71289870
 Two-electron energy                   55.83660821
 Virial quotient                       -1.00188492
 !RHF STATE 1.1 Dipole moment           0.00000000     0.00000000    -1.28974609
 Dipole moment /Debye                   0.00000000     0.00000000    -3.27799287

 Orbital energies:

         1.1          2.1          3.1          4.1          5.1          6.1          7.1
    -15.598568   -11.290390    -1.236759    -0.817160    -0.582618     0.020567     0.062670

         1.2          2.2          3.2
     -0.497173     0.063579     0.119549

         1.3          2.3          3.3
     -0.497173     0.063579     0.119549

         1.4          2.4
      0.225759     0.394432

 HOMO      1.2    -0.497173 =     -13.5288eV
 LUMO      6.1     0.020567 =       0.5596eV
 LUMO-HOMO         0.517740 =      14.0884eV


 **********************************************************************************************************************************
 DATASETS  * FILE   NREC   LENGTH (MB)   RECORD NAMES
              1      19      461.93       500      610      700      900      950      970     1000      129      960     1100   
                                          VAR    BASINP    GEOM    SYMINP    ZMAT    AOBASIS   BASIS     P2S    ABASIS      S 
                                         1400     1410     1200     1210     1080     1600     1650     1300     1700   
                                           T        V       H0       H01     AOSYM     SMH    MOLCAS    ERIS     OPER   

              2       4        3.06       700     1000      520     2100   
                                         GEOM     BASIS   MCVARS     RHF  

 PROGRAMS   *        TOTAL        HF       INT
 CPU TIMES  *        17.52      3.92     13.51
 REAL TIME  *        21.02 SEC
 DISK USED  *         1.47 GB      
 **********************************************************************************************************************************


 PROGRAM * CCSD (Closed-shell coupled cluster)     Authors: C. Hampel, H.-J. Werner, 1991, M. Deegan, P.J. Knowles, 1992


 Convergence thresholds:  THRVAR = 1.00D-08  THRDEN = 1.00D-12

 CCSD(T)     terms to be evaluated (factor= 1.000)


 Number of core orbitals:           2 (   2   0   0   0 )
 Number of closed-shell orbitals:   5 (   3   1   1   0 )
 Number of external orbitals:     199 (  76  48  48  27 )

 Molecular orbitals read from record     2100.2  Type=RHF/CANONICAL (state 1.1)

 Number of N-1 electron functions:               5
 Number of N-2 electron functions:              15
 Number of singly external CSFs:               324
 Number of doubly external CSFs:            129659
 Total number of CSFs:                      129984

 Length of J-op  integral file:               0.00 MB
 Length of K-op  integral file:               0.86 MB
 Length of 3-ext integral record:             0.00 MB

 Memory could be reduced to 15.89 Mwords without degradation in triples

 Integral transformation finished. Total CPU:   0.64 sec, npass=  1  Memory used:   1.90 MW

 Reference energy:                    -92.91462952

 MP2 singlet pair energy:              -0.23795527
 MP2 triplet pair energy:              -0.13187870
 MP2 correlation energy:               -0.36983398
 MP2 total energy:                    -93.28446350

 SCS-MP2 correlation energy:           -0.36760419   (PS=  1.200000  PT=  0.333333)
 SCS-MP2 total energy:                -93.28223371

 ITER.      SQ.NORM     CORR.ENERGY   TOTAL ENERGY   ENERGY CHANGE        DEN1      VAR(S)    VAR(P)  DIIS     TIME  TIME/IT
   1      1.11546505    -0.36865521   -93.28328474     0.00117876     0.01428561  0.26D-02  0.31D-02  1  1     1.30     0.73
   2      1.12466126    -0.36885305   -93.28348257    -0.00019783    -0.01009748  0.62D-04  0.40D-03  2  2     1.95     0.74
   3      1.12966736    -0.36907376   -93.28370328    -0.00022071    -0.00259027  0.14D-04  0.44D-04  3  3     2.58     0.75
   4      1.13174395    -0.36915053   -93.28378006    -0.00007677    -0.00073492  0.59D-06  0.49D-05  4  4     3.24     0.75
   5      1.13227515    -0.36915370   -93.28378322    -0.00000317    -0.00015207  0.75D-07  0.43D-06  5  5     3.88     0.75
   6      1.13238542    -0.36915125   -93.28378078     0.00000245    -0.00002914  0.94D-08  0.34D-07  6  6     4.54     0.75
   7      1.13239290    -0.36915286   -93.28378238    -0.00000160    -0.00000090  0.87D-09  0.29D-08  6  1     5.19     0.75
   8      1.13239450    -0.36915334   -93.28378287    -0.00000048    -0.00000040  0.10D-09  0.25D-09  6  2     5.85     0.76
   9      1.13239466    -0.36915341   -93.28378293    -0.00000007    -0.00000009  0.11D-10  0.16D-10  6  3     6.50     0.76
  10      1.13239453    -0.36915345   -93.28378298    -0.00000004     0.00000011  0.11D-11  0.15D-11  6  4     7.15     0.76
  11      1.13239446    -0.36915347   -93.28378299    -0.00000001     0.00000003  0.18D-12  0.13D-12  6  5     7.83     0.76
  12      1.13239440    -0.36915347   -93.28378300    -0.00000000     0.00000003  0.26D-13  0.23D-13  6  6     8.49     0.76
  13      1.13239437    -0.36915347   -93.28378300    -0.00000000     0.00000001  0.26D-14  0.57D-14  6  1     9.16     0.76
  14      1.13239435    -0.36915347   -93.28378300    -0.00000000     0.00000001  0.34D-15  0.54D-15  6  3     9.79     0.76
  15      1.13239434    -0.36915347   -93.28378300    -0.00000000     0.00000000  0.13D-16  0.37D-16  6  2    10.45     0.76
  16      1.13239434    -0.36915347   -93.28378300     0.00000000     0.00000000  0.25D-17  0.39D-17  6  4    11.09     0.76
  17      1.13239434    -0.36915347   -93.28378300    -0.00000000     0.00000000  0.50D-18  0.54D-18  6  5    11.74     0.76
  18      1.13239434    -0.36915347   -93.28378300    -0.00000000     0.00000000  0.47D-19  0.49D-19  6  6    12.41     0.76
  19      1.13239434    -0.36915347   -93.28378300    -0.00000000     0.00000000  0.89D-20  0.60D-20  6  1    13.10     0.76

 Norm of t1 vector:      0.06429696      S-energy:    -0.00000000      T1 diagnostic:  0.01437724
                                                                       D1 diagnostic:  0.02892295

 Doubles amplitudes (print threshold =  0.500E-01):

         I         J         SYM. A    SYM. B    A         B      T(IJ, AB)

         4         4         2         2         3         3     -0.05060486
         5         5         3         3         3         3     -0.05060486


 Total CPU time for triples:      4.74 sec


 RESULTS
 =======

  Reference energy                    -92.914629524902
  CCSD singlet pair energy             -0.258649330779
  CCSD triplet pair energy             -0.110504141762
  CCSD correlation energy              -0.369153472541

  Triples (T) contribution             -0.019548198671
  Total correlation energy             -0.388701671212

  CCSD total energy                   -93.283782997443
  CCSD[T] energy                      -93.304161992782
  CCSD-T energy                       -93.302952342655
 !CCSD(T) total energy                -93.303331196114

 Timing summary (sec):

 STEP                 CPU(USER)    SYS     CPU(TOT)    WALL
 Transformation          0.65      0.16      0.81      0.81
 CCSD iterations        12.45      1.98     14.43     14.43
 Triples                 4.74      0.15      4.89      4.89

 Program statistics:

 Available memory in ccsd:               994999800
 Min. memory needed in ccsd:                524097
 Max. memory used in ccsd:                  626326
 Max. memory used in cckext:                818237 (19 integral passes)



 **********************************************************************************************************************************
 DATASETS  * FILE   NREC   LENGTH (MB)   RECORD NAMES
              1      20      504.91       500      610      700      900      950      970     1000      129      960     1100   
                                          VAR    BASINP    GEOM    SYMINP    ZMAT    AOBASIS   BASIS     P2S    ABASIS      S 
                                         1400     1410     1200     1210     1080     1600     1650     1300     1700     1380   
                                           T        V       H0       H01     AOSYM     SMH    MOLCAS    ERIS     OPER     JKOP   

              2       4        3.06       700     1000      520     2100   
                                         GEOM     BASIS   MCVARS     RHF  

 PROGRAMS   *        TOTAL   CCSD(T)        HF       INT
 CPU TIMES  *        35.38     17.86      3.92     13.51
 REAL TIME  *        41.22 SEC
 DISK USED  *         1.47 GB      
 **********************************************************************************************************************************

 CCSD(T)/aug-cc-pVQZ energy=    -93.303331196114

        CCSD(T)         HF-SCF  
    -93.30333120    -92.91462952
 **********************************************************************************************************************************
 Molpro calculation terminated
 Variable memory released
