
 Primary working directories    : /tmp/r2666/232466.maple
 Secondary working directories  : /tmp/r2666/232466.maple
 Wavefunction directory         : /ddn/home4/r2666/wfu/
 Main file repository           : /tmp/r2666/232466.maple/

 SHA1      : d5ffa45e93fdbca01ffc919aa182cfdae0147319
 NAME      : 2015.1.35
 ARCHNAME  : linux/x86_64
 FC        : /opt/intel/composer_xe_2015.1.133/bin/intel64/ifort
 BLASLIB   : -Wl,-_start-group /opt/intel/mkl/lib/intel64/libmkl_intel_ilp64.a /opt/intel/mkl/lib/intel64/libmkl_intel_thread.a /opt/intel/mkl/lib/intel64/libmkl_core.a -Wl,-_end-group
 id        : olemiss

 Nodes     nprocs
 cn078        1

 Using customized tuning parameters: mindgm=1; mindgv=20; mindgc=4; mindgr=1; noblas=0; minvec=7
 default implementation of scratch files=df  

 ***,hcn CCSD(T)/TZ-F12 QFF
 memory, 995, m;
 gthresh,energy=1.d-12,zero=1.d-22,oneint=1.d-22,twoint=1.d-22;
 gthresh,optgrad=1.d-8,optstep=1.d-8;
 nocompress;
 geomtyp=xyz
 bohr
 geometry={
 3
         20        20
 N        0.0000000000        0.0000000000        1.1278509343
 C        0.0000000000        0.0000000000       -1.0415501027
 H        0.0000000000        0.0000000000       -3.0833708136
 }
 
 basis=avqz
   {hf,maxit=500;accu,20;}
 {ccsd(t),nocheck,maxit=250;orbital,IGNORE_ERROR;}

 Variables initialized (889), CPU time= 0.01 sec
 Commands  initialized (702), CPU time= 0.01 sec, 572 directives.
 Default parameters read. Elapsed time= 0.04 sec

 Checking input...
 Passed
1


                                         ***  PROGRAM SYSTEM MOLPRO  ***
                                       Copyright, TTI GmbH Stuttgart, 2015
                                    Version 2015.1 linked Jul  9 2018 13:16:40


 **********************************************************************************************************************************
 LABEL *   hcn CCSD(T)/TZ-F12 QFF                                                        
  64 bit serial version                                                                  DATE: 06-Feb-20          TIME: 09:52:10  
 **********************************************************************************************************************************

 SHA1:             d5ffa45e93fdbca01ffc919aa182cfdae0147319
 **********************************************************************************************************************************

 THRESHOLDS:

 ZERO    =  1.00D-22  ONEINT  =  1.00D-22  TWOINT  =  1.00D-22  PREFAC  =  1.00D-14  LOCALI  =  1.00D-09  EORDER  =  1.00D-04
 ENERGY  =  1.00D-12  ETEST   =  0.00D+00  EDENS   =  0.00D+00  THRDEDEF=  1.00D-06  GRADIENT=  1.00D-02  STEP    =  1.00D-03
 ORBITAL =  1.00D-05  CIVEC   =  1.00D-05  COEFF   =  1.00D-04  PRINTCI =  5.00D-02  PUNCHCI =  9.90D+01  OPTGRAD =  3.00D-04
 OPTENERG=  1.00D-06  OPTSTEP =  3.00D-04  THRGRAD =  1.00D-10  COMPRESS=  1.00D-11  VARMIN  =  1.00D-07  VARMAX  =  1.00D-03
 THRDOUB =  0.00D+00  THRDIV  =  1.00D-05  THRRED  =  1.00D-07  THRPSP  =  1.00D+00  THRDC   =  1.00D-10  THRCS   =  1.00D-10
 THRNRM  =  1.00D-08  THREQ   =  0.00D+00  THRDE   =  1.00D+00  THRREF  =  1.00D-05  SPARFAC =  1.00D+00  THRDLP  =  1.00D-07
 THRDIA  =  1.00D-10  THRDLS  =  1.00D-07  THRGPS  =  0.00D+00  THRKEX  =  0.00D+00  THRDIS  =  2.00D-01  THRVAR  =  1.00D-10
 THRLOC  =  1.00D-06  THRGAP  =  1.00D-06  THRLOCT = -1.00D+00  THRGAPT = -1.00D+00  THRORB  =  1.00D-06  THRMLTP =  0.00D+00
 THRCPQCI=  1.00D-10  KEXTA   =  0.00D+00  THRCOARS=  0.00D+00  SYMTOL  =  1.00D-06  GRADTOL =  1.00D-06  THROVL  =  1.00D-08
 THRORTH =  1.00D-08  GRID    =  1.00D-06  GRIDMAX =  1.00D-03  DTMAX   =  0.00D+00  THROCCDE=  1.00D-01  THROCCDE=  1.00D-01



 THRESHOLDS:

 ZERO    =  1.00D-22  ONEINT  =  1.00D-22  TWOINT  =  1.00D-22  PREFAC  =  1.00D-14  LOCALI  =  1.00D-09  EORDER  =  1.00D-04
 ENERGY  =  1.00D-12  ETEST   =  0.00D+00  EDENS   =  0.00D+00  THRDEDEF=  1.00D-06  GRADIENT=  1.00D-02  STEP    =  1.00D-03
 ORBITAL =  1.00D-05  CIVEC   =  1.00D-05  COEFF   =  1.00D-04  PRINTCI =  5.00D-02  PUNCHCI =  9.90D+01  OPTGRAD =  1.00D-08
 OPTENERG=  1.00D-06  OPTSTEP =  1.00D-08  THRGRAD =  1.00D-10  COMPRESS=  1.00D-11  VARMIN  =  1.00D-07  VARMAX  =  1.00D-03
 THRDOUB =  0.00D+00  THRDIV  =  1.00D-05  THRRED  =  1.00D-07  THRPSP  =  1.00D+00  THRDC   =  1.00D-10  THRCS   =  1.00D-10
 THRNRM  =  1.00D-08  THREQ   =  0.00D+00  THRDE   =  1.00D+00  THRREF  =  1.00D-05  SPARFAC =  1.00D+00  THRDLP  =  1.00D-07
 THRDIA  =  1.00D-10  THRDLS  =  1.00D-07  THRGPS  =  0.00D+00  THRKEX  =  0.00D+00  THRDIS  =  2.00D-01  THRVAR  =  1.00D-10
 THRLOC  =  1.00D-06  THRGAP  =  1.00D-06  THRLOCT = -1.00D+00  THRGAPT = -1.00D+00  THRORB  =  1.00D-06  THRMLTP =  0.00D+00
 THRCPQCI=  1.00D-10  KEXTA   =  0.00D+00  THRCOARS=  0.00D+00  SYMTOL  =  1.00D-06  GRADTOL =  1.00D-06  THROVL  =  1.00D-08
 THRORTH =  1.00D-08  GRID    =  1.00D-06  GRIDMAX =  1.00D-03  DTMAX   =  0.00D+00  THROCCDE=  1.00D-01  THROCCDE=  1.00D-01



 Input parameters for SORTINT:

 COMPRESS =    0.000000
 C_FINAL  =    1.000000
 DEBUG    =   -1.000000
 C_SORT1  =    0.000000
 C_SEWARD =    0.000000
 THRESH   =    0.000000
 IO       =  molpro                                                          
 SPRI     =    0.000000
 SETTING GEOMTYP        =    XYZ
 ZUNIT=BOHR
 

 Variable memory set to  995000000 words,  buffer space   230000 words

 SETTING BASIS          =    AVQZ


 Recomputing integrals since basis changed


 Using spherical harmonics

 Library entry N      S aug-cc-pVQZ          selected for orbital group  1
 Library entry N      P aug-cc-pVQZ          selected for orbital group  1
 Library entry N      D aug-cc-pVQZ          selected for orbital group  1
 Library entry N      F aug-cc-pVQZ          selected for orbital group  1
 Library entry N      G aug-cc-pVQZ          selected for orbital group  1
 Library entry C      S aug-cc-pVQZ          selected for orbital group  2
 Library entry C      P aug-cc-pVQZ          selected for orbital group  2
 Library entry C      D aug-cc-pVQZ          selected for orbital group  2
 Library entry C      F aug-cc-pVQZ          selected for orbital group  2
 Library entry C      G aug-cc-pVQZ          selected for orbital group  2
 Library entry H      S aug-cc-pVQZ          selected for orbital group  3
 Library entry H      P aug-cc-pVQZ          selected for orbital group  3
 Library entry H      D aug-cc-pVQZ          selected for orbital group  3
 Library entry H      F aug-cc-pVQZ          selected for orbital group  3


 PROGRAM * SEWARD (Integral evaluation for generally contracted gaussian basis sets)     Author: Roland Lindh, 1990

 Geometry written to block  1 of record 700


 Point group  C2v 



 ATOMIC COORDINATES

 NR  ATOM    CHARGE       X              Y              Z

   1  N       7.00    0.000000000    0.000000000    1.127850934
   2  C       6.00    0.000000000    0.000000000   -1.041550103
   3  H       1.00    0.000000000    0.000000000   -3.083370814

 Bond lengths in Bohr (Angstrom)

 1-2  2.169401037  2-3  2.041820711
     ( 1.147997590)     ( 1.080484989)

 Bond angles

  1-2-3  179.99999829

 NUCLEAR CHARGE:                   14
 NUMBER OF PRIMITIVE AOS:         293
 NUMBER OF SYMMETRY AOS:          234
 NUMBER OF CONTRACTIONS:          206   (  81A1  +  49B1  +  49B2  +  27A2  )
 NUMBER OF CORE ORBITALS:           2   (   2A1  +   0B1  +   0B2  +   0A2  )
 NUMBER OF VALENCE ORBITALS:        9   (   5A1  +   2B1  +   2B2  +   0A2  )


 NUCLEAR REPULSION ENERGY   23.96096176

 EXTRA SYMMETRY OF AOS IN SYMMETRY 1:   1 1 1 1 1 1 1 1 1 1   1 1 2 1 2 1 2 1 2 1   2 1 2 1 2 1 3 2 1 3   2 1 1 1 1 1 1 1 1 1
                                        1 1 1 2 1 2 1 2 1 2   1 2 1 2 1 2 1 3 2 1   3 2 1 1 1 1 1 1 1 1   1 1 2 1 2 1 2 1 2 1
                                        2
 EXTRA SYMMETRY OF AOS IN SYMMETRY 2:   1 1 1 1 1 1 1 1 1 1   2 1 2 1 2 1 2 1 2 1   1 1 1 1 1 1 1 1 1 2   1 2 1 2 1 2 1 2 1 1
                                        1 1 1 1 1 1 2 1 2
 EXTRA SYMMETRY OF AOS IN SYMMETRY 3:   1 1 1 1 1 1 1 1 1 1   2 1 2 1 2 1 2 1 2 1   1 1 1 1 1 1 1 1 1 2   1 2 1 2 1 2 1 2 1 1
                                        1 1 1 1 1 1 2 1 2
 EXTRA SYMMETRY OF AOS IN SYMMETRY 4:   1 1 1 1 1 1 1 1 2 1   2 1 1 1 1 1 1 1 1 2   1 2 1 1 1 1 1

 Eigenvalues of metric

         1 0.182E-04 0.393E-04 0.774E-04 0.279E-03 0.399E-03 0.432E-03 0.526E-03 0.830E-03
         2 0.396E-03 0.978E-03 0.302E-02 0.367E-02 0.484E-02 0.652E-02 0.877E-02 0.107E-01
         3 0.396E-03 0.978E-03 0.302E-02 0.367E-02 0.484E-02 0.652E-02 0.877E-02 0.107E-01
         4 0.451E-02 0.131E-01 0.316E-01 0.584E-01 0.889E-01 0.142E+00 0.197E+00 0.229E+00


 Contracted 2-electron integrals neglected if value below      1.0D-22

       51222095. INTEGRALS WRITTEN OUT IN   12509 BLOCKS ON RECORD 1290 OF FILE 1


 NUMBER OF SORTED TWO-ELECTRON INTEGRALS:   58298162.     BUFFER LENGTH:  32768
 NUMBER OF SEGMENTS:   4  SEGMENT LENGTH:   15999501      RECORD LENGTH: 524288

 Memory used in sort:      16.56 MW

 SORT1 READ    51222095. AND WROTE    51977409. INTEGRALS IN    150 RECORDS. CPU TIME:     1.27 SEC, REAL TIME:     1.61 SEC
 SORT2 READ    51977409. AND WROTE    58298162. INTEGRALS IN      4 RECORDS. CPU TIME:     0.79 SEC, REAL TIME:     1.02 SEC

 FILE SIZES:   FILE 1:   840.7 MBYTE,  FILE 4:   629.2 MBYTE,   TOTAL:   1469.8 MBYTE

 OPERATOR DM      FOR CENTER  0  COORDINATES:    0.000000    0.000000    0.000000


 **********************************************************************************************************************************
 DATASETS  * FILE   NREC   LENGTH (MB)   RECORD NAMES
              1      19      461.83       500      610      700      900      950      970     1000      129      960     1100   
                                          VAR    BASINP    GEOM    SYMINP    ZMAT    AOBASIS   BASIS     P2S    ABASIS      S 
                                         1400     1410     1200     1210     1080     1600     1650     1300     1700   
                                           T        V       H0       H01     AOSYM     SMH    MOLCAS    ERIS     OPER   

 PROGRAMS   *        TOTAL       INT
 CPU TIMES  *         8.52      8.43
 REAL TIME  *        10.20 SEC
 DISK USED  *         1.47 GB      
 **********************************************************************************************************************************


 PROGRAM * RHF-SCF (CLOSED SHELL)       Authors: W. Meyer, H.-J. Werner


 NUMBER OF ELECTRONS:       7+    7-
 CONVERGENCE THRESHOLDS:    1.00E-10 (Density)    1.00E-13 (Energy)
 MAX. NUMBER OF ITERATIONS:      500
 INTERPOLATION TYPE:            DIIS
 INTERPOLATION STEPS:              2 (START)      1 (STEP)
 LEVEL SHIFTS:                  0.00 (CLOSED)  0.00 (OPEN) 



 Orbital guess generated from atomic densities. Full valence occupancy:    7   2   2   0

 Molecular orbital dump at record        2100.2

 Initial occupancy:   5   1   1   0

 ITERATION    DDIFF          GRAD             ENERGY        2-EL.EN.            DIPOLE MOMENTS         DIIS   ORB.
    1      0.000D+00      0.000D+00       -92.88993950    112.114929    0.00000    0.00000   -1.79799    0    start
    2      0.000D+00      0.715D-02       -92.89920947    111.185864    0.00000    0.00000   -0.90724    1    diag
    3      0.725D-02      0.634D-02       -92.91469416    111.739245    0.00000    0.00000   -1.31485    2    diag
    4      0.358D-02      0.513D-03       -92.91491807    111.706264    0.00000    0.00000   -1.30362    3    diag
    5      0.618D-03      0.110D-03       -92.91493136    111.714004    0.00000    0.00000   -1.30209    4    diag
    6      0.151D-03      0.298D-04       -92.91493211    111.709609    0.00000    0.00000   -1.30221    5    diag
    7      0.320D-04      0.104D-04       -92.91493218    111.710859    0.00000    0.00000   -1.30226    6    diag
    8      0.106D-04      0.224D-05       -92.91493219    111.710794    0.00000    0.00000   -1.30223    7    diag
    9      0.224D-05      0.256D-06       -92.91493219    111.710803    0.00000    0.00000   -1.30222    8    diag
   10      0.327D-06      0.315D-07       -92.91493219    111.710804    0.00000    0.00000   -1.30222    9    orth
   11      0.361D-07      0.454D-08       -92.91493219    111.710804    0.00000    0.00000   -1.30222    9    diag
   12      0.575D-08      0.434D-09       -92.91493219    111.710804    0.00000    0.00000   -1.30222    9    diag
   13      0.108D-08      0.583D-10       -92.91493219    111.710804    0.00000    0.00000   -1.30222    9    diag
   14      0.929D-10      0.727D-11       -92.91493219    111.710804    0.00000    0.00000   -1.30222    9    diag
   15      0.225D-10      0.291D-11       -92.91493219    111.710804    0.00000    0.00000   -1.30222    9    diag
   16      0.163D-10      0.534D-12       -92.91493219    111.710804    0.00000    0.00000   -1.30222    9    diag
   17      0.178D-10      0.171D-12       -92.91493219    111.710804    0.00000    0.00000   -1.30222    9    diag
   18      0.427D-11      0.195D-12       -92.91493219    111.710804    0.00000    0.00000   -1.30222    9    diag
   19      0.283D-11      0.164D-12       -92.91493219    111.710804    0.00000    0.00000   -1.30222    9    fixocc
   20      0.138D-11      0.162D-12       -92.91493219    111.710804    0.00000    0.00000   -1.30222    0    orth

 Final occupancy:   5   1   1   0

 !RHF STATE 1.1 Energy                -92.914932186117
 Nuclear energy                        23.96096176
 One-electron energy                 -172.73129582
 Two-electron energy                   55.85540188
 Virial quotient                       -1.00200594
 !RHF STATE 1.1 Dipole moment           0.00000000     0.00000000    -1.30222133
 Dipole moment /Debye                   0.00000000     0.00000000    -3.30969968

 Orbital energies:

         1.1          2.1          3.1          4.1          5.1          6.1          7.1
    -15.596272   -11.290417    -1.238776    -0.806649    -0.581505     0.020498     0.062609

         1.2          2.2          3.2
     -0.498313     0.063591     0.120130

         1.3          2.3          3.3
     -0.498313     0.063591     0.120130

         1.4          2.4
      0.225900     0.394818

 HOMO      1.2    -0.498313 =     -13.5598eV
 LUMO      6.1     0.020498 =       0.5578eV
 LUMO-HOMO         0.518811 =      14.1176eV


 **********************************************************************************************************************************
 DATASETS  * FILE   NREC   LENGTH (MB)   RECORD NAMES
              1      19      461.83       500      610      700      900      950      970     1000      129      960     1100   
                                          VAR    BASINP    GEOM    SYMINP    ZMAT    AOBASIS   BASIS     P2S    ABASIS      S 
                                         1400     1410     1200     1210     1080     1600     1650     1300     1700   
                                           T        V       H0       H01     AOSYM     SMH    MOLCAS    ERIS     OPER   

              2       4        3.06       700     1000      520     2100   
                                         GEOM     BASIS   MCVARS     RHF  

 PROGRAMS   *        TOTAL        HF       INT
 CPU TIMES  *        12.13      3.61      8.43
 REAL TIME  *        14.58 SEC
 DISK USED  *         1.47 GB      
 **********************************************************************************************************************************


 PROGRAM * CCSD (Closed-shell coupled cluster)     Authors: C. Hampel, H.-J. Werner, 1991, M. Deegan, P.J. Knowles, 1992


 Convergence thresholds:  THRVAR = 1.00D-08  THRDEN = 1.00D-12

 CCSD(T)     terms to be evaluated (factor= 1.000)


 Number of core orbitals:           2 (   2   0   0   0 )
 Number of closed-shell orbitals:   5 (   3   1   1   0 )
 Number of external orbitals:     199 (  76  48  48  27 )

 Molecular orbitals read from record     2100.2  Type=RHF/CANONICAL (state 1.1)

 Number of N-1 electron functions:               5
 Number of N-2 electron functions:              15
 Number of singly external CSFs:               324
 Number of doubly external CSFs:            129659
 Total number of CSFs:                      129984

 Length of J-op  integral file:               0.00 MB
 Length of K-op  integral file:               0.86 MB
 Length of 3-ext integral record:             0.00 MB

 Memory could be reduced to 15.89 Mwords without degradation in triples

 Integral transformation finished. Total CPU:   0.44 sec, npass=  1  Memory used:   1.90 MW

 Reference energy:                    -92.91493219

 MP2 singlet pair energy:              -0.23760116
 MP2 triplet pair energy:              -0.13151701
 MP2 correlation energy:               -0.36911818
 MP2 total energy:                    -93.28405036

 SCS-MP2 correlation energy:           -0.36695420   (PS=  1.200000  PT=  0.333333)
 SCS-MP2 total energy:                -93.28188639

 ITER.      SQ.NORM     CORR.ENERGY   TOTAL ENERGY   ENERGY CHANGE        DEN1      VAR(S)    VAR(P)  DIIS     TIME  TIME/IT
   1      1.11531210    -0.36821545   -93.28314763     0.00090273     0.01386923  0.25D-02  0.30D-02  1  1     0.88     0.51
   2      1.12446897    -0.36847226   -93.28340445    -0.00025681    -0.01002579  0.61D-04  0.40D-03  2  2     1.34     0.52
   3      1.12946641    -0.36869686   -93.28362904    -0.00022460    -0.00259320  0.14D-04  0.43D-04  3  3     1.82     0.52
   4      1.13151106    -0.36877211   -93.28370430    -0.00007525    -0.00072809  0.60D-06  0.48D-05  4  4     2.29     0.52
   5      1.13203034    -0.36877610   -93.28370829    -0.00000399    -0.00014852  0.88D-07  0.43D-06  5  5     2.76     0.52
   6      1.13214171    -0.36877357   -93.28370575     0.00000253    -0.00002960  0.91D-08  0.34D-07  6  6     3.24     0.52
   7      1.13214969    -0.36877502   -93.28370721    -0.00000145    -0.00000109  0.88D-09  0.28D-08  6  1     3.68     0.52
   8      1.13215140    -0.36877547   -93.28370765    -0.00000045    -0.00000044  0.12D-09  0.24D-09  6  2     4.14     0.52
   9      1.13215162    -0.36877553   -93.28370771    -0.00000006    -0.00000010  0.11D-10  0.17D-10  6  3     4.58     0.52
  10      1.13215149    -0.36877557   -93.28370776    -0.00000004     0.00000011  0.12D-11  0.16D-11  6  4     5.07     0.52
  11      1.13215143    -0.36877558   -93.28370777    -0.00000001     0.00000003  0.15D-12  0.16D-12  6  5     5.53     0.52
  12      1.13215137    -0.36877559   -93.28370777    -0.00000000     0.00000002  0.16D-13  0.28D-13  6  6     5.99     0.52
  13      1.13215134    -0.36877559   -93.28370778    -0.00000000     0.00000001  0.19D-14  0.60D-14  6  1     6.46     0.52
  14      1.13215132    -0.36877559   -93.28370778    -0.00000000     0.00000001  0.93D-16  0.69D-15  6  3     6.94     0.52
  15      1.13215132    -0.36877559   -93.28370778    -0.00000000     0.00000000  0.17D-16  0.40D-16  6  2     7.40     0.52
  16      1.13215132    -0.36877559   -93.28370778     0.00000000     0.00000000  0.19D-17  0.46D-17  6  4     7.86     0.52
  17      1.13215132    -0.36877559   -93.28370778    -0.00000000     0.00000000  0.46D-18  0.62D-18  6  5     8.32     0.52
  18      1.13215132    -0.36877559   -93.28370778    -0.00000000     0.00000000  0.58D-19  0.50D-19  6  6     8.79     0.52
  19      1.13215132    -0.36877559   -93.28370778    -0.00000000     0.00000000  0.81D-20  0.69D-20  6  1     9.23     0.53

 Norm of t1 vector:      0.06378740      S-energy:    -0.00000000      T1 diagnostic:  0.01426330
                                                                       D1 diagnostic:  0.02854221


 Total CPU time for triples:      2.95 sec


 RESULTS
 =======

  Reference energy                    -92.914932186117
  CCSD singlet pair energy             -0.258402202446
  CCSD triplet pair energy             -0.110373388178
  CCSD correlation energy              -0.368775590625

  Triples (T) contribution             -0.019452672041
  Total correlation energy             -0.388228262667

  CCSD total energy                   -93.283707776743
  CCSD[T] energy                      -93.303975888021
  CCSD-T energy                       -93.302788363415
 !CCSD(T) total energy                -93.303160448784

 Timing summary (sec):

 STEP                 CPU(USER)    SYS     CPU(TOT)    WALL
 Transformation          0.45      0.12      0.57      0.57
 CCSD iterations         8.79      1.20      9.99      9.99
 Triples                 2.95      0.13      3.08      3.08

 Program statistics:

 Available memory in ccsd:               994999800
 Min. memory needed in ccsd:                524097
 Max. memory used in ccsd:                  626326
 Max. memory used in cckext:                818237 (19 integral passes)



 **********************************************************************************************************************************
 DATASETS  * FILE   NREC   LENGTH (MB)   RECORD NAMES
              1      20      504.81       500      610      700      900      950      970     1000      129      960     1100   
                                          VAR    BASINP    GEOM    SYMINP    ZMAT    AOBASIS   BASIS     P2S    ABASIS      S 
                                         1400     1410     1200     1210     1080     1600     1650     1300     1700     1380   
                                           T        V       H0       H01     AOSYM     SMH    MOLCAS    ERIS     OPER     JKOP   

              2       4        3.06       700     1000      520     2100   
                                         GEOM     BASIS   MCVARS     RHF  

 PROGRAMS   *        TOTAL   CCSD(T)        HF       INT
 CPU TIMES  *        24.35     12.22      3.61      8.43
 REAL TIME  *        28.30 SEC
 DISK USED  *         1.47 GB      
 **********************************************************************************************************************************

 CCSD(T)/aug-cc-pVQZ energy=    -93.303160448784

        CCSD(T)         HF-SCF  
    -93.30316045    -92.91493219
 **********************************************************************************************************************************
 Molpro calculation terminated
 Variable memory released
