
 Primary working directories    : /tmp/r2666/232482.maple
 Secondary working directories  : /tmp/r2666/232482.maple
 Wavefunction directory         : /ddn/home4/r2666/wfu/
 Main file repository           : /tmp/r2666/232482.maple/

 SHA1      : d5ffa45e93fdbca01ffc919aa182cfdae0147319
 NAME      : 2015.1.35
 ARCHNAME  : linux/x86_64
 FC        : /opt/intel/composer_xe_2015.1.133/bin/intel64/ifort
 BLASLIB   : -Wl,-_start-group /opt/intel/mkl/lib/intel64/libmkl_intel_ilp64.a /opt/intel/mkl/lib/intel64/libmkl_intel_thread.a /opt/intel/mkl/lib/intel64/libmkl_core.a -Wl,-_end-group
 id        : olemiss

 Nodes     nprocs
 cn076        1

 Using customized tuning parameters: mindgm=1; mindgv=20; mindgc=4; mindgr=1; noblas=0; minvec=7
 default implementation of scratch files=df  

 ***,hcn CCSD(T)/TZ-F12 QFF
 memory, 995, m;
 gthresh,energy=1.d-12,zero=1.d-22,oneint=1.d-22,twoint=1.d-22;
 gthresh,optgrad=1.d-8,optstep=1.d-8;
 nocompress;
 geomtyp=xyz
 bohr
 geometry={
 3
         36        36
 N        0.0000000000        0.0000000000        1.1215518477
 C        0.0000000000        0.0000000000       -1.0667464493
 H        0.0000000000        0.0000000000       -3.0518753804
 }
 
 basis=avqz
   {hf,maxit=500;accu,20;}
 {ccsd(t),nocheck,maxit=250;orbital,IGNORE_ERROR;}

 Variables initialized (889), CPU time= 0.01 sec
 Commands  initialized (702), CPU time= 0.01 sec, 572 directives.
 Default parameters read. Elapsed time= 0.05 sec

 Checking input...
 Passed
1


                                         ***  PROGRAM SYSTEM MOLPRO  ***
                                       Copyright, TTI GmbH Stuttgart, 2015
                                    Version 2015.1 linked Jul  9 2018 13:16:40


 **********************************************************************************************************************************
 LABEL *   hcn CCSD(T)/TZ-F12 QFF                                                        
  64 bit serial version                                                                  DATE: 06-Feb-20          TIME: 09:53:19  
 **********************************************************************************************************************************

 SHA1:             d5ffa45e93fdbca01ffc919aa182cfdae0147319
 **********************************************************************************************************************************

 THRESHOLDS:

 ZERO    =  1.00D-22  ONEINT  =  1.00D-22  TWOINT  =  1.00D-22  PREFAC  =  1.00D-14  LOCALI  =  1.00D-09  EORDER  =  1.00D-04
 ENERGY  =  1.00D-12  ETEST   =  0.00D+00  EDENS   =  0.00D+00  THRDEDEF=  1.00D-06  GRADIENT=  1.00D-02  STEP    =  1.00D-03
 ORBITAL =  1.00D-05  CIVEC   =  1.00D-05  COEFF   =  1.00D-04  PRINTCI =  5.00D-02  PUNCHCI =  9.90D+01  OPTGRAD =  3.00D-04
 OPTENERG=  1.00D-06  OPTSTEP =  3.00D-04  THRGRAD =  1.00D-10  COMPRESS=  1.00D-11  VARMIN  =  1.00D-07  VARMAX  =  1.00D-03
 THRDOUB =  0.00D+00  THRDIV  =  1.00D-05  THRRED  =  1.00D-07  THRPSP  =  1.00D+00  THRDC   =  1.00D-10  THRCS   =  1.00D-10
 THRNRM  =  1.00D-08  THREQ   =  0.00D+00  THRDE   =  1.00D+00  THRREF  =  1.00D-05  SPARFAC =  1.00D+00  THRDLP  =  1.00D-07
 THRDIA  =  1.00D-10  THRDLS  =  1.00D-07  THRGPS  =  0.00D+00  THRKEX  =  0.00D+00  THRDIS  =  2.00D-01  THRVAR  =  1.00D-10
 THRLOC  =  1.00D-06  THRGAP  =  1.00D-06  THRLOCT = -1.00D+00  THRGAPT = -1.00D+00  THRORB  =  1.00D-06  THRMLTP =  0.00D+00
 THRCPQCI=  1.00D-10  KEXTA   =  0.00D+00  THRCOARS=  0.00D+00  SYMTOL  =  1.00D-06  GRADTOL =  1.00D-06  THROVL  =  1.00D-08
 THRORTH =  1.00D-08  GRID    =  1.00D-06  GRIDMAX =  1.00D-03  DTMAX   =  0.00D+00  THROCCDE=  1.00D-01  THROCCDE=  1.00D-01



 THRESHOLDS:

 ZERO    =  1.00D-22  ONEINT  =  1.00D-22  TWOINT  =  1.00D-22  PREFAC  =  1.00D-14  LOCALI  =  1.00D-09  EORDER  =  1.00D-04
 ENERGY  =  1.00D-12  ETEST   =  0.00D+00  EDENS   =  0.00D+00  THRDEDEF=  1.00D-06  GRADIENT=  1.00D-02  STEP    =  1.00D-03
 ORBITAL =  1.00D-05  CIVEC   =  1.00D-05  COEFF   =  1.00D-04  PRINTCI =  5.00D-02  PUNCHCI =  9.90D+01  OPTGRAD =  1.00D-08
 OPTENERG=  1.00D-06  OPTSTEP =  1.00D-08  THRGRAD =  1.00D-10  COMPRESS=  1.00D-11  VARMIN  =  1.00D-07  VARMAX  =  1.00D-03
 THRDOUB =  0.00D+00  THRDIV  =  1.00D-05  THRRED  =  1.00D-07  THRPSP  =  1.00D+00  THRDC   =  1.00D-10  THRCS   =  1.00D-10
 THRNRM  =  1.00D-08  THREQ   =  0.00D+00  THRDE   =  1.00D+00  THRREF  =  1.00D-05  SPARFAC =  1.00D+00  THRDLP  =  1.00D-07
 THRDIA  =  1.00D-10  THRDLS  =  1.00D-07  THRGPS  =  0.00D+00  THRKEX  =  0.00D+00  THRDIS  =  2.00D-01  THRVAR  =  1.00D-10
 THRLOC  =  1.00D-06  THRGAP  =  1.00D-06  THRLOCT = -1.00D+00  THRGAPT = -1.00D+00  THRORB  =  1.00D-06  THRMLTP =  0.00D+00
 THRCPQCI=  1.00D-10  KEXTA   =  0.00D+00  THRCOARS=  0.00D+00  SYMTOL  =  1.00D-06  GRADTOL =  1.00D-06  THROVL  =  1.00D-08
 THRORTH =  1.00D-08  GRID    =  1.00D-06  GRIDMAX =  1.00D-03  DTMAX   =  0.00D+00  THROCCDE=  1.00D-01  THROCCDE=  1.00D-01



 Input parameters for SORTINT:

 COMPRESS =    0.000000
 C_FINAL  =    1.000000
 DEBUG    =   -1.000000
 C_SORT1  =    0.000000
 C_SEWARD =    0.000000
 THRESH   =    0.000000
 IO       =  molpro                                                          
 SPRI     =    0.000000
 SETTING GEOMTYP        =    XYZ
 ZUNIT=BOHR
 

 Variable memory set to  995000000 words,  buffer space   230000 words

 SETTING BASIS          =    AVQZ


 Recomputing integrals since basis changed


 Using spherical harmonics

 Library entry N      S aug-cc-pVQZ          selected for orbital group  1
 Library entry N      P aug-cc-pVQZ          selected for orbital group  1
 Library entry N      D aug-cc-pVQZ          selected for orbital group  1
 Library entry N      F aug-cc-pVQZ          selected for orbital group  1
 Library entry N      G aug-cc-pVQZ          selected for orbital group  1
 Library entry C      S aug-cc-pVQZ          selected for orbital group  2
 Library entry C      P aug-cc-pVQZ          selected for orbital group  2
 Library entry C      D aug-cc-pVQZ          selected for orbital group  2
 Library entry C      F aug-cc-pVQZ          selected for orbital group  2
 Library entry C      G aug-cc-pVQZ          selected for orbital group  2
 Library entry H      S aug-cc-pVQZ          selected for orbital group  3
 Library entry H      P aug-cc-pVQZ          selected for orbital group  3
 Library entry H      D aug-cc-pVQZ          selected for orbital group  3
 Library entry H      F aug-cc-pVQZ          selected for orbital group  3


 PROGRAM * SEWARD (Integral evaluation for generally contracted gaussian basis sets)     Author: Roland Lindh, 1990

 Geometry written to block  1 of record 700


 Point group  C2v 



 ATOMIC COORDINATES

 NR  ATOM    CHARGE       X              Y              Z

   1  N       7.00    0.000000000    0.000000000    1.121551848
   2  C       6.00    0.000000000    0.000000000   -1.066746449
   3  H       1.00    0.000000000    0.000000000   -3.051875380

 Bond lengths in Bohr (Angstrom)

 1-2  2.188298297  2-3  1.985128931
     ( 1.157997589)     ( 1.050484991)

 Bond angles

  1-2-3  179.99999829

 NUCLEAR CHARGE:                   14
 NUMBER OF PRIMITIVE AOS:         293
 NUMBER OF SYMMETRY AOS:          234
 NUMBER OF CONTRACTIONS:          206   (  81A1  +  49B1  +  49B2  +  27A2  )
 NUMBER OF CORE ORBITALS:           2   (   2A1  +   0B1  +   0B2  +   0A2  )
 NUMBER OF VALENCE ORBITALS:        9   (   5A1  +   2B1  +   2B2  +   0A2  )


 NUCLEAR REPULSION ENERGY   23.89274805

 EXTRA SYMMETRY OF AOS IN SYMMETRY 1:   1 1 1 1 1 1 1 1 1 1   1 1 2 1 2 1 2 1 2 1   2 1 2 1 2 1 3 2 1 3   2 1 1 1 1 1 1 1 1 1
                                        1 1 1 2 1 2 1 2 1 2   1 2 1 2 1 2 1 3 2 1   3 2 1 1 1 1 1 1 1 1   1 1 2 1 2 1 2 1 2 1
                                        2
 EXTRA SYMMETRY OF AOS IN SYMMETRY 2:   1 1 1 1 1 1 1 1 1 1   2 1 2 1 2 1 2 1 2 1   1 1 1 1 1 1 1 1 1 2   1 2 1 2 1 2 1 2 1 1
                                        1 1 1 1 1 1 2 1 2
 EXTRA SYMMETRY OF AOS IN SYMMETRY 3:   1 1 1 1 1 1 1 1 1 1   2 1 2 1 2 1 2 1 2 1   1 1 1 1 1 1 1 1 1 2   1 2 1 2 1 2 1 2 1 1
                                        1 1 1 1 1 1 2 1 2
 EXTRA SYMMETRY OF AOS IN SYMMETRY 4:   1 1 1 1 1 1 1 1 2 1   2 1 1 1 1 1 1 1 1 2   1 2 1 1 1 1 1

 Eigenvalues of metric

         1 0.164E-04 0.386E-04 0.671E-04 0.277E-03 0.396E-03 0.438E-03 0.518E-03 0.787E-03
         2 0.404E-03 0.903E-03 0.293E-02 0.338E-02 0.468E-02 0.632E-02 0.863E-02 0.106E-01
         3 0.404E-03 0.903E-03 0.293E-02 0.338E-02 0.468E-02 0.632E-02 0.863E-02 0.106E-01
         4 0.464E-02 0.121E-01 0.320E-01 0.549E-01 0.883E-01 0.140E+00 0.196E+00 0.229E+00


 Contracted 2-electron integrals neglected if value below      1.0D-22

       51233732. INTEGRALS WRITTEN OUT IN   12512 BLOCKS ON RECORD 1290 OF FILE 1


 NUMBER OF SORTED TWO-ELECTRON INTEGRALS:   58298162.     BUFFER LENGTH:  32768
 NUMBER OF SEGMENTS:   4  SEGMENT LENGTH:   15999501      RECORD LENGTH: 524288

 Memory used in sort:      16.56 MW

 SORT1 READ    51233732. AND WROTE    51989049. INTEGRALS IN    150 RECORDS. CPU TIME:     1.23 SEC, REAL TIME:     1.54 SEC
 SORT2 READ    51989049. AND WROTE    58298162. INTEGRALS IN      4 RECORDS. CPU TIME:     0.75 SEC, REAL TIME:     1.02 SEC

 FILE SIZES:   FILE 1:   840.9 MBYTE,  FILE 4:   629.2 MBYTE,   TOTAL:   1470.0 MBYTE

 OPERATOR DM      FOR CENTER  0  COORDINATES:    0.000000    0.000000    0.000000


 **********************************************************************************************************************************
 DATASETS  * FILE   NREC   LENGTH (MB)   RECORD NAMES
              1      19      461.91       500      610      700      900      950      970     1000      129      960     1100   
                                          VAR    BASINP    GEOM    SYMINP    ZMAT    AOBASIS   BASIS     P2S    ABASIS      S 
                                         1400     1410     1200     1210     1080     1600     1650     1300     1700   
                                           T        V       H0       H01     AOSYM     SMH    MOLCAS    ERIS     OPER   

 PROGRAMS   *        TOTAL       INT
 CPU TIMES  *         8.31      8.21
 REAL TIME  *        10.35 SEC
 DISK USED  *         1.47 GB      
 **********************************************************************************************************************************


 PROGRAM * RHF-SCF (CLOSED SHELL)       Authors: W. Meyer, H.-J. Werner


 NUMBER OF ELECTRONS:       7+    7-
 CONVERGENCE THRESHOLDS:    1.00E-10 (Density)    1.00E-13 (Energy)
 MAX. NUMBER OF ITERATIONS:      500
 INTERPOLATION TYPE:            DIIS
 INTERPOLATION STEPS:              2 (START)      1 (STEP)
 LEVEL SHIFTS:                  0.00 (CLOSED)  0.00 (OPEN) 



 Orbital guess generated from atomic densities. Full valence occupancy:    7   2   2   0

 Molecular orbital dump at record        2100.2

 Initial occupancy:   5   1   1   0

 ITERATION    DDIFF          GRAD             ENERGY        2-EL.EN.            DIPOLE MOMENTS         DIIS   ORB.
    1      0.000D+00      0.000D+00       -92.88991201    111.861436    0.00000    0.00000   -1.76640    0    start
    2      0.000D+00      0.694D-02       -92.89867241    111.033567    0.00000    0.00000   -0.89265    1    diag
    3      0.712D-02      0.619D-02       -92.91353661    111.563337    0.00000    0.00000   -1.30100    2    diag
    4      0.351D-02      0.532D-03       -92.91377147    111.521388    0.00000    0.00000   -1.28961    3    diag
    5      0.649D-03      0.115D-03       -92.91378488    111.532125    0.00000    0.00000   -1.28819    4    diag
    6      0.153D-03      0.309D-04       -92.91378573    111.526908    0.00000    0.00000   -1.28821    5    diag
    7      0.342D-04      0.111D-04       -92.91378581    111.528041    0.00000    0.00000   -1.28826    6    diag
    8      0.113D-04      0.234D-05       -92.91378581    111.527994    0.00000    0.00000   -1.28823    7    diag
    9      0.245D-05      0.270D-06       -92.91378581    111.528004    0.00000    0.00000   -1.28822    8    diag
   10      0.353D-06      0.336D-07       -92.91378581    111.528005    0.00000    0.00000   -1.28823    9    orth
   11      0.385D-07      0.479D-08       -92.91378581    111.528005    0.00000    0.00000   -1.28823    9    diag
   12      0.607D-08      0.438D-09       -92.91378581    111.528005    0.00000    0.00000   -1.28823    9    diag
   13      0.113D-08      0.566D-10       -92.91378581    111.528005    0.00000    0.00000   -1.28823    9    diag
   14      0.976D-10      0.713D-11       -92.91378581    111.528005    0.00000    0.00000   -1.28823    9    diag
   15      0.198D-10      0.281D-11       -92.91378581    111.528005    0.00000    0.00000   -1.28823    9    diag
   16      0.169D-10      0.418D-12       -92.91378581    111.528005    0.00000    0.00000   -1.28823    9    diag
   17      0.130D-10      0.236D-12       -92.91378581    111.528005    0.00000    0.00000   -1.28823    0    orth

 Final occupancy:   5   1   1   0

 !RHF STATE 1.1 Energy                -92.913785810921
 Nuclear energy                        23.89274805
 One-electron energy                 -172.57053628
 Two-electron energy                   55.76400242
 Virial quotient                       -1.00208572
 !RHF STATE 1.1 Dipole moment           0.00000000     0.00000000    -1.28822509
 Dipole moment /Debye                   0.00000000     0.00000000    -3.27412714

 Orbital energies:

         1.1          2.1          3.1          4.1          5.1          6.1          7.1
    -15.600474   -11.291850    -1.234491    -0.819891    -0.583055     0.020561     0.062660

         1.2          2.2          3.2
     -0.495752     0.063575     0.119181

         1.3          2.3          3.3
     -0.495752     0.063575     0.119181

         1.4          2.4
      0.225780     0.394436

 HOMO      1.2    -0.495752 =     -13.4901eV
 LUMO      6.1     0.020561 =       0.5595eV
 LUMO-HOMO         0.516313 =      14.0496eV


 **********************************************************************************************************************************
 DATASETS  * FILE   NREC   LENGTH (MB)   RECORD NAMES
              1      19      461.91       500      610      700      900      950      970     1000      129      960     1100   
                                          VAR    BASINP    GEOM    SYMINP    ZMAT    AOBASIS   BASIS     P2S    ABASIS      S 
                                         1400     1410     1200     1210     1080     1600     1650     1300     1700   
                                           T        V       H0       H01     AOSYM     SMH    MOLCAS    ERIS     OPER   

              2       4        3.06       700     1000      520     2100   
                                         GEOM     BASIS   MCVARS     RHF  

 PROGRAMS   *        TOTAL        HF       INT
 CPU TIMES  *        11.18      2.87      8.21
 REAL TIME  *        14.02 SEC
 DISK USED  *         1.47 GB      
 **********************************************************************************************************************************


 PROGRAM * CCSD (Closed-shell coupled cluster)     Authors: C. Hampel, H.-J. Werner, 1991, M. Deegan, P.J. Knowles, 1992


 Convergence thresholds:  THRVAR = 1.00D-08  THRDEN = 1.00D-12

 CCSD(T)     terms to be evaluated (factor= 1.000)


 Number of core orbitals:           2 (   2   0   0   0 )
 Number of closed-shell orbitals:   5 (   3   1   1   0 )
 Number of external orbitals:     199 (  76  48  48  27 )

 Molecular orbitals read from record     2100.2  Type=RHF/CANONICAL (state 1.1)

 Number of N-1 electron functions:               5
 Number of N-2 electron functions:              15
 Number of singly external CSFs:               324
 Number of doubly external CSFs:            129659
 Total number of CSFs:                      129984

 Length of J-op  integral file:               0.00 MB
 Length of K-op  integral file:               0.86 MB
 Length of 3-ext integral record:             0.00 MB

 Memory could be reduced to 15.89 Mwords without degradation in triples

 Integral transformation finished. Total CPU:   0.42 sec, npass=  1  Memory used:   1.90 MW

 Reference energy:                    -92.91378581

 MP2 singlet pair energy:              -0.23846038
 MP2 triplet pair energy:              -0.13229891
 MP2 correlation energy:               -0.37075928
 MP2 total energy:                    -93.28454510

 SCS-MP2 correlation energy:           -0.36847177   (PS=  1.200000  PT=  0.333333)
 SCS-MP2 total energy:                -93.28225758

 ITER.      SQ.NORM     CORR.ENERGY   TOTAL ENERGY   ENERGY CHANGE        DEN1      VAR(S)    VAR(P)  DIIS     TIME  TIME/IT
   1      1.11599222    -0.36930712   -93.28309293     0.00145216     0.01475710  0.26D-02  0.32D-02  1  1     0.87     0.49
   2      1.12529801    -0.36945940   -93.28324521    -0.00015228    -0.01021126  0.64D-04  0.41D-03  2  2     1.30     0.50
   3      1.13038024    -0.36968327   -93.28346908    -0.00022387    -0.00261624  0.14D-04  0.45D-04  3  3     1.74     0.50
   4      1.13250797    -0.36976261   -93.28354842    -0.00007934    -0.00074830  0.59D-06  0.51D-05  4  4     2.14     0.50
   5      1.13305639    -0.36976579   -93.28355160    -0.00000318    -0.00015641  0.73D-07  0.45D-06  5  5     2.59     0.50
   6      1.13317054    -0.36976326   -93.28354907     0.00000252    -0.00003005  0.10D-07  0.36D-07  6  6     3.05     0.51
   7      1.13317816    -0.36976498   -93.28355079    -0.00000172    -0.00000087  0.89D-09  0.30D-08  6  1     3.48     0.51
   8      1.13317982    -0.36976549   -93.28355130    -0.00000051    -0.00000042  0.10D-09  0.27D-09  6  2     3.92     0.51
   9      1.13317997    -0.36976556   -93.28355137    -0.00000007    -0.00000009  0.13D-10  0.17D-10  6  3     4.34     0.51
  10      1.13317983    -0.36976561   -93.28355142    -0.00000004     0.00000012  0.12D-11  0.16D-11  6  4     4.79     0.51
  11      1.13317976    -0.36976562   -93.28355143    -0.00000001     0.00000003  0.23D-12  0.14D-12  6  5     5.21     0.51
  12      1.13317970    -0.36976563   -93.28355144    -0.00000001     0.00000003  0.36D-13  0.25D-13  6  6     5.62     0.51
  13      1.13317966    -0.36976563   -93.28355144    -0.00000000     0.00000001  0.37D-14  0.64D-14  6  1     6.06     0.51
  14      1.13317964    -0.36976563   -93.28355144    -0.00000000     0.00000001  0.46D-15  0.58D-15  6  3     6.47     0.51
  15      1.13317964    -0.36976563   -93.28355144    -0.00000000     0.00000000  0.16D-16  0.40D-16  6  2     6.92     0.51
  16      1.13317964    -0.36976563   -93.28355144     0.00000000     0.00000000  0.31D-17  0.43D-17  6  4     7.35     0.51
  17      1.13317964    -0.36976563   -93.28355144    -0.00000000     0.00000000  0.49D-18  0.58D-18  6  2     7.76     0.51
  18      1.13317964    -0.36976563   -93.28355144    -0.00000000     0.00000000  0.44D-19  0.38D-19  6  5     8.17     0.51
  19      1.13317964    -0.36976563   -93.28355144    -0.00000000    -0.00000000  0.11D-19  0.50D-20  6  6     8.59     0.51

 Norm of t1 vector:      0.06495314      S-energy:     0.00000000      T1 diagnostic:  0.01452396
                                                                       D1 diagnostic:  0.02927462

 Doubles amplitudes (print threshold =  0.500E-01):

         I         J         SYM. A    SYM. B    A         B      T(IJ, AB)

         4         4         2         2         3         3     -0.05113508
         5         5         3         3         3         3     -0.05113508


 Total CPU time for triples:      2.45 sec


 RESULTS
 =======

  Reference energy                    -92.913785810921
  CCSD singlet pair energy             -0.259146233156
  CCSD triplet pair energy             -0.110619395575
  CCSD correlation energy              -0.369765628730

  Triples (T) contribution             -0.019698477514
  Total correlation energy             -0.389464106244

  CCSD total energy                   -93.283551439651
  CCSD[T] energy                      -93.304099574345
  CCSD-T energy                       -93.302863335945
 !CCSD(T) total energy                -93.303249917165

 Timing summary (sec):

 STEP                 CPU(USER)    SYS     CPU(TOT)    WALL
 Transformation          0.42      0.13      0.55      0.55
 CCSD iterations         8.18      1.44      9.62      9.62
 Triples                 2.45      0.11      2.56      2.56

 Program statistics:

 Available memory in ccsd:               994999800
 Min. memory needed in ccsd:                524097
 Max. memory used in ccsd:                  626326
 Max. memory used in cckext:                818237 (19 integral passes)



 **********************************************************************************************************************************
 DATASETS  * FILE   NREC   LENGTH (MB)   RECORD NAMES
              1      20      504.90       500      610      700      900      950      970     1000      129      960     1100   
                                          VAR    BASINP    GEOM    SYMINP    ZMAT    AOBASIS   BASIS     P2S    ABASIS      S 
                                         1400     1410     1200     1210     1080     1600     1650     1300     1700     1380   
                                           T        V       H0       H01     AOSYM     SMH    MOLCAS    ERIS     OPER     JKOP   

              2       4        3.06       700     1000      520     2100   
                                         GEOM     BASIS   MCVARS     RHF  

 PROGRAMS   *        TOTAL   CCSD(T)        HF       INT
 CPU TIMES  *        22.26     11.08      2.87      8.21
 REAL TIME  *        26.81 SEC
 DISK USED  *         1.47 GB      
 **********************************************************************************************************************************

 CCSD(T)/aug-cc-pVQZ energy=    -93.303249917165

        CCSD(T)         HF-SCF  
    -93.30324992    -92.91378581
 **********************************************************************************************************************************
 Molpro calculation terminated
 Variable memory released
