
 Primary working directories    : /tmp/r2666/232499.maple
 Secondary working directories  : /tmp/r2666/232499.maple
 Wavefunction directory         : /ddn/home4/r2666/wfu/
 Main file repository           : /tmp/r2666/232499.maple/

 SHA1      : d5ffa45e93fdbca01ffc919aa182cfdae0147319
 NAME      : 2015.1.35
 ARCHNAME  : linux/x86_64
 FC        : /opt/intel/composer_xe_2015.1.133/bin/intel64/ifort
 BLASLIB   : -Wl,-_start-group /opt/intel/mkl/lib/intel64/libmkl_intel_ilp64.a /opt/intel/mkl/lib/intel64/libmkl_intel_thread.a /opt/intel/mkl/lib/intel64/libmkl_core.a -Wl,-_end-group
 id        : olemiss

 Nodes     nprocs
 cn052        1

 Using customized tuning parameters: mindgm=1; mindgv=20; mindgc=4; mindgr=1; noblas=0; minvec=7
 default implementation of scratch files=df  

 ***,hcn CCSD(T)/TZ-F12 QFF
 memory, 995, m;
 gthresh,energy=1.d-12,zero=1.d-22,oneint=1.d-22,twoint=1.d-22;
 gthresh,optgrad=1.d-8,optstep=1.d-8;
 nocompress;
 geomtyp=xyz
 bohr
 geometry={
 3
         53        53
 N        0.0000000000        0.0000000000        1.1435986509
 C        0.0000000000        0.0000000000       -1.0635969059
 H        0.0000000000        0.0000000000       -3.0770717269
 }
 
 basis=avqz
   {hf,maxit=500;accu,20;}
 {ccsd(t),nocheck,maxit=250;orbital,IGNORE_ERROR;}

 Variables initialized (889), CPU time= 0.00 sec
 Commands  initialized (702), CPU time= 0.01 sec, 572 directives.
 Default parameters read. Elapsed time= 0.05 sec

 Checking input...
 Passed
1


                                         ***  PROGRAM SYSTEM MOLPRO  ***
                                       Copyright, TTI GmbH Stuttgart, 2015
                                    Version 2015.1 linked Jul  9 2018 13:16:40


 **********************************************************************************************************************************
 LABEL *   hcn CCSD(T)/TZ-F12 QFF                                                        
  64 bit serial version                                                                  DATE: 06-Feb-20          TIME: 09:53:56  
 **********************************************************************************************************************************

 SHA1:             d5ffa45e93fdbca01ffc919aa182cfdae0147319
 **********************************************************************************************************************************

 THRESHOLDS:

 ZERO    =  1.00D-22  ONEINT  =  1.00D-22  TWOINT  =  1.00D-22  PREFAC  =  1.00D-14  LOCALI  =  1.00D-09  EORDER  =  1.00D-04
 ENERGY  =  1.00D-12  ETEST   =  0.00D+00  EDENS   =  0.00D+00  THRDEDEF=  1.00D-06  GRADIENT=  1.00D-02  STEP    =  1.00D-03
 ORBITAL =  1.00D-05  CIVEC   =  1.00D-05  COEFF   =  1.00D-04  PRINTCI =  5.00D-02  PUNCHCI =  9.90D+01  OPTGRAD =  3.00D-04
 OPTENERG=  1.00D-06  OPTSTEP =  3.00D-04  THRGRAD =  1.00D-10  COMPRESS=  1.00D-11  VARMIN  =  1.00D-07  VARMAX  =  1.00D-03
 THRDOUB =  0.00D+00  THRDIV  =  1.00D-05  THRRED  =  1.00D-07  THRPSP  =  1.00D+00  THRDC   =  1.00D-10  THRCS   =  1.00D-10
 THRNRM  =  1.00D-08  THREQ   =  0.00D+00  THRDE   =  1.00D+00  THRREF  =  1.00D-05  SPARFAC =  1.00D+00  THRDLP  =  1.00D-07
 THRDIA  =  1.00D-10  THRDLS  =  1.00D-07  THRGPS  =  0.00D+00  THRKEX  =  0.00D+00  THRDIS  =  2.00D-01  THRVAR  =  1.00D-10
 THRLOC  =  1.00D-06  THRGAP  =  1.00D-06  THRLOCT = -1.00D+00  THRGAPT = -1.00D+00  THRORB  =  1.00D-06  THRMLTP =  0.00D+00
 THRCPQCI=  1.00D-10  KEXTA   =  0.00D+00  THRCOARS=  0.00D+00  SYMTOL  =  1.00D-06  GRADTOL =  1.00D-06  THROVL  =  1.00D-08
 THRORTH =  1.00D-08  GRID    =  1.00D-06  GRIDMAX =  1.00D-03  DTMAX   =  0.00D+00  THROCCDE=  1.00D-01  THROCCDE=  1.00D-01



 THRESHOLDS:

 ZERO    =  1.00D-22  ONEINT  =  1.00D-22  TWOINT  =  1.00D-22  PREFAC  =  1.00D-14  LOCALI  =  1.00D-09  EORDER  =  1.00D-04
 ENERGY  =  1.00D-12  ETEST   =  0.00D+00  EDENS   =  0.00D+00  THRDEDEF=  1.00D-06  GRADIENT=  1.00D-02  STEP    =  1.00D-03
 ORBITAL =  1.00D-05  CIVEC   =  1.00D-05  COEFF   =  1.00D-04  PRINTCI =  5.00D-02  PUNCHCI =  9.90D+01  OPTGRAD =  1.00D-08
 OPTENERG=  1.00D-06  OPTSTEP =  1.00D-08  THRGRAD =  1.00D-10  COMPRESS=  1.00D-11  VARMIN  =  1.00D-07  VARMAX  =  1.00D-03
 THRDOUB =  0.00D+00  THRDIV  =  1.00D-05  THRRED  =  1.00D-07  THRPSP  =  1.00D+00  THRDC   =  1.00D-10  THRCS   =  1.00D-10
 THRNRM  =  1.00D-08  THREQ   =  0.00D+00  THRDE   =  1.00D+00  THRREF  =  1.00D-05  SPARFAC =  1.00D+00  THRDLP  =  1.00D-07
 THRDIA  =  1.00D-10  THRDLS  =  1.00D-07  THRGPS  =  0.00D+00  THRKEX  =  0.00D+00  THRDIS  =  2.00D-01  THRVAR  =  1.00D-10
 THRLOC  =  1.00D-06  THRGAP  =  1.00D-06  THRLOCT = -1.00D+00  THRGAPT = -1.00D+00  THRORB  =  1.00D-06  THRMLTP =  0.00D+00
 THRCPQCI=  1.00D-10  KEXTA   =  0.00D+00  THRCOARS=  0.00D+00  SYMTOL  =  1.00D-06  GRADTOL =  1.00D-06  THROVL  =  1.00D-08
 THRORTH =  1.00D-08  GRID    =  1.00D-06  GRIDMAX =  1.00D-03  DTMAX   =  0.00D+00  THROCCDE=  1.00D-01  THROCCDE=  1.00D-01



 Input parameters for SORTINT:

 COMPRESS =    0.000000
 C_FINAL  =    1.000000
 DEBUG    =   -1.000000
 C_SORT1  =    0.000000
 C_SEWARD =    0.000000
 THRESH   =    0.000000
 IO       =  molpro                                                          
 SPRI     =    0.000000
 SETTING GEOMTYP        =    XYZ
 ZUNIT=BOHR
 

 Variable memory set to  995000000 words,  buffer space   230000 words

 SETTING BASIS          =    AVQZ


 Recomputing integrals since basis changed


 Using spherical harmonics

 Library entry N      S aug-cc-pVQZ          selected for orbital group  1
 Library entry N      P aug-cc-pVQZ          selected for orbital group  1
 Library entry N      D aug-cc-pVQZ          selected for orbital group  1
 Library entry N      F aug-cc-pVQZ          selected for orbital group  1
 Library entry N      G aug-cc-pVQZ          selected for orbital group  1
 Library entry C      S aug-cc-pVQZ          selected for orbital group  2
 Library entry C      P aug-cc-pVQZ          selected for orbital group  2
 Library entry C      D aug-cc-pVQZ          selected for orbital group  2
 Library entry C      F aug-cc-pVQZ          selected for orbital group  2
 Library entry C      G aug-cc-pVQZ          selected for orbital group  2
 Library entry H      S aug-cc-pVQZ          selected for orbital group  3
 Library entry H      P aug-cc-pVQZ          selected for orbital group  3
 Library entry H      D aug-cc-pVQZ          selected for orbital group  3
 Library entry H      F aug-cc-pVQZ          selected for orbital group  3


 PROGRAM * SEWARD (Integral evaluation for generally contracted gaussian basis sets)     Author: Roland Lindh, 1990

 Geometry written to block  1 of record 700


 Point group  C2v 



 ATOMIC COORDINATES

 NR  ATOM    CHARGE       X              Y              Z

   1  N       7.00    0.000000000    0.000000000    1.143598651
   2  C       6.00    0.000000000    0.000000000   -1.063596906
   3  H       1.00    0.000000000    0.000000000   -3.077071727

 Bond lengths in Bohr (Angstrom)

 1-2  2.207195557  2-3  2.013474821
     ( 1.167997589)     ( 1.065484990)

 Bond angles

  1-2-3  179.99999829

 NUCLEAR CHARGE:                   14
 NUMBER OF PRIMITIVE AOS:         293
 NUMBER OF SYMMETRY AOS:          234
 NUMBER OF CONTRACTIONS:          206   (  81A1  +  49B1  +  49B2  +  27A2  )
 NUMBER OF CORE ORBITALS:           2   (   2A1  +   0B1  +   0B2  +   0A2  )
 NUMBER OF VALENCE ORBITALS:        9   (   5A1  +   2B1  +   2B2  +   0A2  )


 NUCLEAR REPULSION ENERGY   23.66709921

 EXTRA SYMMETRY OF AOS IN SYMMETRY 1:   1 1 1 1 1 1 1 1 1 1   1 1 2 1 2 1 2 1 2 1   2 1 2 1 2 1 3 2 1 3   2 1 1 1 1 1 1 1 1 1
                                        1 1 1 2 1 2 1 2 1 2   1 2 1 2 1 2 1 3 2 1   3 2 1 1 1 1 1 1 1 1   1 1 2 1 2 1 2 1 2 1
                                        2
 EXTRA SYMMETRY OF AOS IN SYMMETRY 2:   1 1 1 1 1 1 1 1 1 1   2 1 2 1 2 1 2 1 2 1   1 1 1 1 1 1 1 1 1 2   1 2 1 2 1 2 1 2 1 1
                                        1 1 1 1 1 1 2 1 2
 EXTRA SYMMETRY OF AOS IN SYMMETRY 3:   1 1 1 1 1 1 1 1 1 1   2 1 2 1 2 1 2 1 2 1   1 1 1 1 1 1 1 1 1 2   1 2 1 2 1 2 1 2 1 1
                                        1 1 1 1 1 1 2 1 2
 EXTRA SYMMETRY OF AOS IN SYMMETRY 4:   1 1 1 1 1 1 1 1 2 1   2 1 1 1 1 1 1 1 1 2   1 2 1 1 1 1 1

 Eigenvalues of metric

         1 0.176E-04 0.398E-04 0.731E-04 0.283E-03 0.405E-03 0.448E-03 0.534E-03 0.813E-03
         2 0.414E-03 0.951E-03 0.312E-02 0.359E-02 0.488E-02 0.652E-02 0.874E-02 0.107E-01
         3 0.414E-03 0.951E-03 0.312E-02 0.359E-02 0.488E-02 0.652E-02 0.874E-02 0.107E-01
         4 0.479E-02 0.126E-01 0.331E-01 0.576E-01 0.907E-01 0.143E+00 0.199E+00 0.232E+00


 Contracted 2-electron integrals neglected if value below      1.0D-22

       51224170. INTEGRALS WRITTEN OUT IN   12509 BLOCKS ON RECORD 1290 OF FILE 1


 NUMBER OF SORTED TWO-ELECTRON INTEGRALS:   58298162.     BUFFER LENGTH:  32768
 NUMBER OF SEGMENTS:   4  SEGMENT LENGTH:   15999501      RECORD LENGTH: 524288

 Memory used in sort:      16.56 MW

 SORT1 READ    51224170. AND WROTE    51979445. INTEGRALS IN    150 RECORDS. CPU TIME:     2.38 SEC, REAL TIME:     2.83 SEC
 SORT2 READ    51979445. AND WROTE    58298162. INTEGRALS IN      4 RECORDS. CPU TIME:     1.37 SEC, REAL TIME:     1.72 SEC

 FILE SIZES:   FILE 1:   840.7 MBYTE,  FILE 4:   629.2 MBYTE,   TOTAL:   1469.8 MBYTE

 OPERATOR DM      FOR CENTER  0  COORDINATES:    0.000000    0.000000    0.000000


 **********************************************************************************************************************************
 DATASETS  * FILE   NREC   LENGTH (MB)   RECORD NAMES
              1      19      461.85       500      610      700      900      950      970     1000      129      960     1100   
                                          VAR    BASINP    GEOM    SYMINP    ZMAT    AOBASIS   BASIS     P2S    ABASIS      S 
                                         1400     1410     1200     1210     1080     1600     1650     1300     1700   
                                           T        V       H0       H01     AOSYM     SMH    MOLCAS    ERIS     OPER   

 PROGRAMS   *        TOTAL       INT
 CPU TIMES  *        15.26     15.15
 REAL TIME  *        17.38 SEC
 DISK USED  *         1.47 GB      
 **********************************************************************************************************************************


 PROGRAM * RHF-SCF (CLOSED SHELL)       Authors: W. Meyer, H.-J. Werner


 NUMBER OF ELECTRONS:       7+    7-
 CONVERGENCE THRESHOLDS:    1.00E-10 (Density)    1.00E-13 (Energy)
 MAX. NUMBER OF ITERATIONS:      500
 INTERPOLATION TYPE:            DIIS
 INTERPOLATION STEPS:              2 (START)      1 (STEP)
 LEVEL SHIFTS:                  0.00 (CLOSED)  0.00 (OPEN) 



 Orbital guess generated from atomic densities. Full valence occupancy:    7   2   2   0

 Molecular orbital dump at record        2100.2

 Initial occupancy:   5   1   1   0

 ITERATION    DDIFF          GRAD             ENERGY        2-EL.EN.            DIPOLE MOMENTS         DIIS   ORB.
    1      0.000D+00      0.000D+00       -92.88733593    111.396780    0.00000    0.00000   -1.79409    0    start
    2      0.000D+00      0.701D-02       -92.89568552    110.610364    0.00000    0.00000   -0.88473    1    diag
    3      0.721D-02      0.638D-02       -92.91159371    111.141499    0.00000    0.00000   -1.31174    2    diag
    4      0.360D-02      0.533D-03       -92.91183202    111.093956    0.00000    0.00000   -1.30035    3    diag
    5      0.646D-03      0.121D-03       -92.91184634    111.107823    0.00000    0.00000   -1.29900    4    diag
    6      0.155D-03      0.333D-04       -92.91184739    111.101939    0.00000    0.00000   -1.29887    5    diag
    7      0.386D-04      0.120D-04       -92.91184749    111.103048    0.00000    0.00000   -1.29895    6    diag
    8      0.123D-04      0.253D-05       -92.91184749    111.103007    0.00000    0.00000   -1.29892    7    diag
    9      0.266D-05      0.289D-06       -92.91184749    111.103017    0.00000    0.00000   -1.29891    8    diag
   10      0.376D-06      0.344D-07       -92.91184749    111.103018    0.00000    0.00000   -1.29891    9    orth
   11      0.400D-07      0.470D-08       -92.91184749    111.103018    0.00000    0.00000   -1.29891    9    diag
   12      0.613D-08      0.445D-09       -92.91184749    111.103018    0.00000    0.00000   -1.29891    9    diag
   13      0.113D-08      0.517D-10       -92.91184749    111.103018    0.00000    0.00000   -1.29891    9    diag
   14      0.923D-10      0.560D-11       -92.91184749    111.103018    0.00000    0.00000   -1.29891    9    diag
   15      0.272D-10      0.179D-11       -92.91184749    111.103018    0.00000    0.00000   -1.29891    9    diag
   16      0.114D-10      0.438D-12       -92.91184749    111.103018    0.00000    0.00000   -1.29891    0    orth

 Final occupancy:   5   1   1   0

 !RHF STATE 1.1 Energy                -92.911847491526
 Nuclear energy                        23.66709921
 One-electron energy                 -172.13045561
 Two-electron energy                   55.55150891
 Virial quotient                       -1.00290365
 !RHF STATE 1.1 Dipole moment           0.00000000     0.00000000    -1.29891408
 Dipole moment /Debye                   0.00000000     0.00000000    -3.30129404

 Orbital energies:

         1.1          2.1          3.1          4.1          5.1          6.1          7.1
    -15.603767   -11.296645    -1.229625    -0.815491    -0.583043     0.020463     0.062558

         1.2          2.2          3.2
     -0.492574     0.063575     0.118708

         1.3          2.3          3.3
     -0.492574     0.063575     0.118708

         1.4          2.4
      0.226031     0.394929

 HOMO      1.2    -0.492574 =     -13.4036eV
 LUMO      6.1     0.020463 =       0.5568eV
 LUMO-HOMO         0.513036 =      13.9604eV


 **********************************************************************************************************************************
 DATASETS  * FILE   NREC   LENGTH (MB)   RECORD NAMES
              1      19      461.85       500      610      700      900      950      970     1000      129      960     1100   
                                          VAR    BASINP    GEOM    SYMINP    ZMAT    AOBASIS   BASIS     P2S    ABASIS      S 
                                         1400     1410     1200     1210     1080     1600     1650     1300     1700   
                                           T        V       H0       H01     AOSYM     SMH    MOLCAS    ERIS     OPER   

              2       4        3.06       700     1000      520     2100   
                                         GEOM     BASIS   MCVARS     RHF  

 PROGRAMS   *        TOTAL        HF       INT
 CPU TIMES  *        19.08      3.81     15.15
 REAL TIME  *        22.37 SEC
 DISK USED  *         1.47 GB      
 **********************************************************************************************************************************


 PROGRAM * CCSD (Closed-shell coupled cluster)     Authors: C. Hampel, H.-J. Werner, 1991, M. Deegan, P.J. Knowles, 1992


 Convergence thresholds:  THRVAR = 1.00D-08  THRDEN = 1.00D-12

 CCSD(T)     terms to be evaluated (factor= 1.000)


 Number of core orbitals:           2 (   2   0   0   0 )
 Number of closed-shell orbitals:   5 (   3   1   1   0 )
 Number of external orbitals:     199 (  76  48  48  27 )

 Molecular orbitals read from record     2100.2  Type=RHF/CANONICAL (state 1.1)

 Number of N-1 electron functions:               5
 Number of N-2 electron functions:              15
 Number of singly external CSFs:               324
 Number of doubly external CSFs:            129659
 Total number of CSFs:                      129984

 Length of J-op  integral file:               0.00 MB
 Length of K-op  integral file:               0.86 MB
 Length of 3-ext integral record:             0.00 MB

 Memory could be reduced to 15.89 Mwords without degradation in triples

 Integral transformation finished. Total CPU:   0.78 sec, npass=  1  Memory used:   1.90 MW

 Reference energy:                    -92.91184749

 MP2 singlet pair energy:              -0.23965716
 MP2 triplet pair energy:              -0.13322052
 MP2 correlation energy:               -0.37287768
 MP2 total energy:                    -93.28472517

 SCS-MP2 correlation energy:           -0.37048136   (PS=  1.200000  PT=  0.333333)
 SCS-MP2 total energy:                -93.28232885

 ITER.      SQ.NORM     CORR.ENERGY   TOTAL ENERGY   ENERGY CHANGE        DEN1      VAR(S)    VAR(P)  DIIS     TIME  TIME/IT
   1      1.11750568    -0.37087194   -93.28271944     0.00200573     0.01578598  0.28D-02  0.33D-02  1  1     1.50     0.83
   2      1.12711833    -0.37094510   -93.28279260    -0.00007316    -0.01049413  0.68D-04  0.43D-03  2  2     2.26     0.85
   3      1.13243600    -0.37118370   -93.28303119    -0.00023860    -0.00270332  0.15D-04  0.48D-04  3  3     3.03     0.85
   4      1.13469010    -0.37126951   -93.28311701    -0.00008581    -0.00078301  0.62D-06  0.56D-05  4  4     3.73     0.85
   5      1.13528037    -0.37127384   -93.28312133    -0.00000432    -0.00016617  0.81D-07  0.52D-06  5  5     4.48     0.85
   6      1.13540929    -0.37127091   -93.28311840     0.00000293    -0.00003378  0.12D-07  0.41D-07  6  6     5.22     0.85
   7      1.13541805    -0.37127281   -93.28312030    -0.00000190    -0.00000099  0.98D-09  0.35D-08  6  1     5.97     0.85
   8      1.13542001    -0.37127336   -93.28312085    -0.00000055    -0.00000053  0.12D-09  0.31D-09  6  2     6.67     0.85
   9      1.13542018    -0.37127343   -93.28312093    -0.00000008    -0.00000010  0.15D-10  0.19D-10  6  3     7.44     0.85
  10      1.13542002    -0.37127348   -93.28312098    -0.00000005     0.00000013  0.14D-11  0.20D-11  6  4     8.16     0.85
  11      1.13541994    -0.37127350   -93.28312099    -0.00000002     0.00000003  0.27D-12  0.16D-12  6  5     8.89     0.85
  12      1.13541987    -0.37127351   -93.28312100    -0.00000001     0.00000003  0.44D-13  0.29D-13  6  6     9.65     0.85
  13      1.13541983    -0.37127351   -93.28312100    -0.00000000     0.00000001  0.46D-14  0.75D-14  6  1    10.36     0.85
  14      1.13541981    -0.37127351   -93.28312100    -0.00000000     0.00000001  0.64D-15  0.68D-15  6  3    11.11     0.85
  15      1.13541980    -0.37127351   -93.28312100    -0.00000000     0.00000000  0.20D-16  0.50D-16  6  2    11.82     0.85
  16      1.13541980    -0.37127351   -93.28312100     0.00000000     0.00000000  0.40D-17  0.54D-17  6  4    12.57     0.85
  17      1.13541980    -0.37127351   -93.28312100    -0.00000000     0.00000000  0.73D-18  0.75D-18  6  5    13.32     0.85
  18      1.13541980    -0.37127351   -93.28312100    -0.00000000     0.00000000  0.63D-19  0.67D-19  6  6    14.09     0.85
  19      1.13541980    -0.37127351   -93.28312100    -0.00000000    -0.00000000  0.93D-20  0.77D-20  6  1    14.84     0.85

 Norm of t1 vector:      0.06643926      S-energy:    -0.00000000      T1 diagnostic:  0.01485627
                                                                       D1 diagnostic:  0.02994529

 Doubles amplitudes (print threshold =  0.500E-01):

         I         J         SYM. A    SYM. B    A         B      T(IJ, AB)

         4         4         2         2         3         3     -0.05196291
         5         5         3         3         3         3     -0.05196291


 Total CPU time for triples:      5.02 sec


 RESULTS
 =======

  Reference energy                    -92.911847491526
  CCSD singlet pair energy             -0.260442692834
  CCSD triplet pair energy             -0.110830814648
  CCSD correlation energy              -0.371273507483

  Triples (T) contribution             -0.020069599585
  Total correlation energy             -0.391343107068

  CCSD total energy                   -93.283120999009
  CCSD[T] energy                      -93.304083093109
  CCSD-T energy                       -93.302787192836
 !CCSD(T) total energy                -93.303190598594

 Timing summary (sec):

 STEP                 CPU(USER)    SYS     CPU(TOT)    WALL
 Transformation          0.79      0.14      0.93      0.94
 CCSD iterations        14.06      2.09     16.15     16.17
 Triples                 5.02      0.14      5.16      5.19

 Program statistics:

 Available memory in ccsd:               994999800
 Min. memory needed in ccsd:                524097
 Max. memory used in ccsd:                  626326
 Max. memory used in cckext:                818237 (19 integral passes)



 **********************************************************************************************************************************
 DATASETS  * FILE   NREC   LENGTH (MB)   RECORD NAMES
              1      20      504.83       500      610      700      900      950      970     1000      129      960     1100   
                                          VAR    BASINP    GEOM    SYMINP    ZMAT    AOBASIS   BASIS     P2S    ABASIS      S 
                                         1400     1410     1200     1210     1080     1600     1650     1300     1700     1380   
                                           T        V       H0       H01     AOSYM     SMH    MOLCAS    ERIS     OPER     JKOP   

              2       4        3.06       700     1000      520     2100   
                                         GEOM     BASIS   MCVARS     RHF  

 PROGRAMS   *        TOTAL   CCSD(T)        HF       INT
 CPU TIMES  *        38.98     19.90      3.81     15.15
 REAL TIME  *        44.75 SEC
 DISK USED  *         1.47 GB      
 **********************************************************************************************************************************

 CCSD(T)/aug-cc-pVQZ energy=    -93.303190598594

        CCSD(T)         HF-SCF  
    -93.30319060    -92.91184749
 **********************************************************************************************************************************
 Molpro calculation terminated
 Variable memory released
