
 Primary working directories    : /tmp/r2666/232463.maple
 Secondary working directories  : /tmp/r2666/232463.maple
 Wavefunction directory         : /ddn/home4/r2666/wfu/
 Main file repository           : /tmp/r2666/232463.maple/

 SHA1      : d5ffa45e93fdbca01ffc919aa182cfdae0147319
 NAME      : 2015.1.35
 ARCHNAME  : linux/x86_64
 FC        : /opt/intel/composer_xe_2015.1.133/bin/intel64/ifort
 BLASLIB   : -Wl,-_start-group /opt/intel/mkl/lib/intel64/libmkl_intel_ilp64.a /opt/intel/mkl/lib/intel64/libmkl_intel_thread.a /opt/intel/mkl/lib/intel64/libmkl_core.a -Wl,-_end-group
 id        : olemiss

 Nodes     nprocs
 cn078        1

 Using customized tuning parameters: mindgm=1; mindgv=20; mindgc=4; mindgr=1; noblas=0; minvec=7
 default implementation of scratch files=df  

 ***,hcn CCSD(T)/TZ-F12 QFF
 memory, 995, m;
 gthresh,energy=1.d-12,zero=1.d-22,oneint=1.d-22,twoint=1.d-22;
 gthresh,optgrad=1.d-8,optstep=1.d-8;
 nocompress;
 geomtyp=xyz
 bohr
 geometry={
 3
         17        17
 N        0.0000000000        0.0000000000        1.1215518477
 C        0.0000000000        0.0000000000       -1.0478491894
 H        0.0000000000        0.0000000000       -3.0707726403
 }
 
 basis=avqz
   {hf,maxit=500;accu,20;}
 {ccsd(t),nocheck,maxit=250;orbital,IGNORE_ERROR;}

 Variables initialized (889), CPU time= 0.01 sec
 Commands  initialized (702), CPU time= 0.00 sec, 572 directives.
 Default parameters read. Elapsed time= 0.04 sec

 Checking input...
 Passed
1


                                         ***  PROGRAM SYSTEM MOLPRO  ***
                                       Copyright, TTI GmbH Stuttgart, 2015
                                    Version 2015.1 linked Jul  9 2018 13:16:40


 **********************************************************************************************************************************
 LABEL *   hcn CCSD(T)/TZ-F12 QFF                                                        
  64 bit serial version                                                                  DATE: 06-Feb-20          TIME: 09:51:23  
 **********************************************************************************************************************************

 SHA1:             d5ffa45e93fdbca01ffc919aa182cfdae0147319
 **********************************************************************************************************************************

 THRESHOLDS:

 ZERO    =  1.00D-22  ONEINT  =  1.00D-22  TWOINT  =  1.00D-22  PREFAC  =  1.00D-14  LOCALI  =  1.00D-09  EORDER  =  1.00D-04
 ENERGY  =  1.00D-12  ETEST   =  0.00D+00  EDENS   =  0.00D+00  THRDEDEF=  1.00D-06  GRADIENT=  1.00D-02  STEP    =  1.00D-03
 ORBITAL =  1.00D-05  CIVEC   =  1.00D-05  COEFF   =  1.00D-04  PRINTCI =  5.00D-02  PUNCHCI =  9.90D+01  OPTGRAD =  3.00D-04
 OPTENERG=  1.00D-06  OPTSTEP =  3.00D-04  THRGRAD =  1.00D-10  COMPRESS=  1.00D-11  VARMIN  =  1.00D-07  VARMAX  =  1.00D-03
 THRDOUB =  0.00D+00  THRDIV  =  1.00D-05  THRRED  =  1.00D-07  THRPSP  =  1.00D+00  THRDC   =  1.00D-10  THRCS   =  1.00D-10
 THRNRM  =  1.00D-08  THREQ   =  0.00D+00  THRDE   =  1.00D+00  THRREF  =  1.00D-05  SPARFAC =  1.00D+00  THRDLP  =  1.00D-07
 THRDIA  =  1.00D-10  THRDLS  =  1.00D-07  THRGPS  =  0.00D+00  THRKEX  =  0.00D+00  THRDIS  =  2.00D-01  THRVAR  =  1.00D-10
 THRLOC  =  1.00D-06  THRGAP  =  1.00D-06  THRLOCT = -1.00D+00  THRGAPT = -1.00D+00  THRORB  =  1.00D-06  THRMLTP =  0.00D+00
 THRCPQCI=  1.00D-10  KEXTA   =  0.00D+00  THRCOARS=  0.00D+00  SYMTOL  =  1.00D-06  GRADTOL =  1.00D-06  THROVL  =  1.00D-08
 THRORTH =  1.00D-08  GRID    =  1.00D-06  GRIDMAX =  1.00D-03  DTMAX   =  0.00D+00  THROCCDE=  1.00D-01  THROCCDE=  1.00D-01



 THRESHOLDS:

 ZERO    =  1.00D-22  ONEINT  =  1.00D-22  TWOINT  =  1.00D-22  PREFAC  =  1.00D-14  LOCALI  =  1.00D-09  EORDER  =  1.00D-04
 ENERGY  =  1.00D-12  ETEST   =  0.00D+00  EDENS   =  0.00D+00  THRDEDEF=  1.00D-06  GRADIENT=  1.00D-02  STEP    =  1.00D-03
 ORBITAL =  1.00D-05  CIVEC   =  1.00D-05  COEFF   =  1.00D-04  PRINTCI =  5.00D-02  PUNCHCI =  9.90D+01  OPTGRAD =  1.00D-08
 OPTENERG=  1.00D-06  OPTSTEP =  1.00D-08  THRGRAD =  1.00D-10  COMPRESS=  1.00D-11  VARMIN  =  1.00D-07  VARMAX  =  1.00D-03
 THRDOUB =  0.00D+00  THRDIV  =  1.00D-05  THRRED  =  1.00D-07  THRPSP  =  1.00D+00  THRDC   =  1.00D-10  THRCS   =  1.00D-10
 THRNRM  =  1.00D-08  THREQ   =  0.00D+00  THRDE   =  1.00D+00  THRREF  =  1.00D-05  SPARFAC =  1.00D+00  THRDLP  =  1.00D-07
 THRDIA  =  1.00D-10  THRDLS  =  1.00D-07  THRGPS  =  0.00D+00  THRKEX  =  0.00D+00  THRDIS  =  2.00D-01  THRVAR  =  1.00D-10
 THRLOC  =  1.00D-06  THRGAP  =  1.00D-06  THRLOCT = -1.00D+00  THRGAPT = -1.00D+00  THRORB  =  1.00D-06  THRMLTP =  0.00D+00
 THRCPQCI=  1.00D-10  KEXTA   =  0.00D+00  THRCOARS=  0.00D+00  SYMTOL  =  1.00D-06  GRADTOL =  1.00D-06  THROVL  =  1.00D-08
 THRORTH =  1.00D-08  GRID    =  1.00D-06  GRIDMAX =  1.00D-03  DTMAX   =  0.00D+00  THROCCDE=  1.00D-01  THROCCDE=  1.00D-01



 Input parameters for SORTINT:

 COMPRESS =    0.000000
 C_FINAL  =    1.000000
 DEBUG    =   -1.000000
 C_SORT1  =    0.000000
 C_SEWARD =    0.000000
 THRESH   =    0.000000
 IO       =  molpro                                                          
 SPRI     =    0.000000
 SETTING GEOMTYP        =    XYZ
 ZUNIT=BOHR
 

 Variable memory set to  995000000 words,  buffer space   230000 words

 SETTING BASIS          =    AVQZ


 Recomputing integrals since basis changed


 Using spherical harmonics

 Library entry N      S aug-cc-pVQZ          selected for orbital group  1
 Library entry N      P aug-cc-pVQZ          selected for orbital group  1
 Library entry N      D aug-cc-pVQZ          selected for orbital group  1
 Library entry N      F aug-cc-pVQZ          selected for orbital group  1
 Library entry N      G aug-cc-pVQZ          selected for orbital group  1
 Library entry C      S aug-cc-pVQZ          selected for orbital group  2
 Library entry C      P aug-cc-pVQZ          selected for orbital group  2
 Library entry C      D aug-cc-pVQZ          selected for orbital group  2
 Library entry C      F aug-cc-pVQZ          selected for orbital group  2
 Library entry C      G aug-cc-pVQZ          selected for orbital group  2
 Library entry H      S aug-cc-pVQZ          selected for orbital group  3
 Library entry H      P aug-cc-pVQZ          selected for orbital group  3
 Library entry H      D aug-cc-pVQZ          selected for orbital group  3
 Library entry H      F aug-cc-pVQZ          selected for orbital group  3


 PROGRAM * SEWARD (Integral evaluation for generally contracted gaussian basis sets)     Author: Roland Lindh, 1990

 Geometry written to block  1 of record 700


 Point group  C2v 



 ATOMIC COORDINATES

 NR  ATOM    CHARGE       X              Y              Z

   1  N       7.00    0.000000000    0.000000000    1.121551848
   2  C       6.00    0.000000000    0.000000000   -1.047849189
   3  H       1.00    0.000000000    0.000000000   -3.070772640

 Bond lengths in Bohr (Angstrom)

 1-2  2.169401037  2-3  2.022923451
     ( 1.147997590)     ( 1.070484990)

 Bond angles

  1-2-3  179.99999809

 NUCLEAR CHARGE:                   14
 NUMBER OF PRIMITIVE AOS:         293
 NUMBER OF SYMMETRY AOS:          234
 NUMBER OF CONTRACTIONS:          206   (  81A1  +  49B1  +  49B2  +  27A2  )
 NUMBER OF CORE ORBITALS:           2   (   2A1  +   0B1  +   0B2  +   0A2  )
 NUMBER OF VALENCE ORBITALS:        9   (   5A1  +   2B1  +   2B2  +   0A2  )


 NUCLEAR REPULSION ENERGY   23.99590506

 EXTRA SYMMETRY OF AOS IN SYMMETRY 1:   1 1 1 1 1 1 1 1 1 1   1 1 2 1 2 1 2 1 2 1   2 1 2 1 2 1 3 2 1 3   2 1 1 1 1 1 1 1 1 1
                                        1 1 1 2 1 2 1 2 1 2   1 2 1 2 1 2 1 3 2 1   3 2 1 1 1 1 1 1 1 1   1 1 2 1 2 1 2 1 2 1
                                        2
 EXTRA SYMMETRY OF AOS IN SYMMETRY 2:   1 1 1 1 1 1 1 1 1 1   2 1 2 1 2 1 2 1 2 1   1 1 1 1 1 1 1 1 1 2   1 2 1 2 1 2 1 2 1 1
                                        1 1 1 1 1 1 2 1 2
 EXTRA SYMMETRY OF AOS IN SYMMETRY 3:   1 1 1 1 1 1 1 1 1 1   2 1 2 1 2 1 2 1 2 1   1 1 1 1 1 1 1 1 1 2   1 2 1 2 1 2 1 2 1 1
                                        1 1 1 1 1 1 2 1 2
 EXTRA SYMMETRY OF AOS IN SYMMETRY 4:   1 1 1 1 1 1 1 1 2 1   2 1 1 1 1 1 1 1 1 2   1 2 1 1 1 1 1

 Eigenvalues of metric

         1 0.175E-04 0.389E-04 0.736E-04 0.277E-03 0.397E-03 0.431E-03 0.522E-03 0.814E-03
         2 0.395E-03 0.950E-03 0.296E-02 0.356E-02 0.475E-02 0.642E-02 0.870E-02 0.107E-01
         3 0.395E-03 0.950E-03 0.296E-02 0.356E-02 0.475E-02 0.642E-02 0.870E-02 0.107E-01
         4 0.450E-02 0.128E-01 0.315E-01 0.571E-01 0.883E-01 0.141E+00 0.196E+00 0.228E+00


 Contracted 2-electron integrals neglected if value below      1.0D-22

       51227821. INTEGRALS WRITTEN OUT IN   12510 BLOCKS ON RECORD 1290 OF FILE 1


 NUMBER OF SORTED TWO-ELECTRON INTEGRALS:   58298162.     BUFFER LENGTH:  32768
 NUMBER OF SEGMENTS:   4  SEGMENT LENGTH:   15999501      RECORD LENGTH: 524288

 Memory used in sort:      16.56 MW

 SORT1 READ    51227821. AND WROTE    51983336. INTEGRALS IN    150 RECORDS. CPU TIME:     1.29 SEC, REAL TIME:     1.59 SEC
 SORT2 READ    51983336. AND WROTE    58298162. INTEGRALS IN      4 RECORDS. CPU TIME:     0.80 SEC, REAL TIME:     1.01 SEC

 FILE SIZES:   FILE 1:   840.7 MBYTE,  FILE 4:   629.2 MBYTE,   TOTAL:   1469.9 MBYTE

 OPERATOR DM      FOR CENTER  0  COORDINATES:    0.000000    0.000000    0.000000


 **********************************************************************************************************************************
 DATASETS  * FILE   NREC   LENGTH (MB)   RECORD NAMES
              1      19      461.87       500      610      700      900      950      970     1000      129      960     1100   
                                          VAR    BASINP    GEOM    SYMINP    ZMAT    AOBASIS   BASIS     P2S    ABASIS      S 
                                         1400     1410     1200     1210     1080     1600     1650     1300     1700   
                                           T        V       H0       H01     AOSYM     SMH    MOLCAS    ERIS     OPER   

 PROGRAMS   *        TOTAL       INT
 CPU TIMES  *         8.60      8.51
 REAL TIME  *        10.46 SEC
 DISK USED  *         1.47 GB      
 **********************************************************************************************************************************


 PROGRAM * RHF-SCF (CLOSED SHELL)       Authors: W. Meyer, H.-J. Werner


 NUMBER OF ELECTRONS:       7+    7-
 CONVERGENCE THRESHOLDS:    1.00E-10 (Density)    1.00E-13 (Energy)
 MAX. NUMBER OF ITERATIONS:      500
 INTERPOLATION TYPE:            DIIS
 INTERPOLATION STEPS:              2 (START)      1 (STEP)
 LEVEL SHIFTS:                  0.00 (CLOSED)  0.00 (OPEN) 



 Orbital guess generated from atomic densities. Full valence occupancy:    7   2   2   0

 Molecular orbital dump at record        2100.2

 Initial occupancy:   5   1   1   0

 ITERATION    DDIFF          GRAD             ENERGY        2-EL.EN.            DIPOLE MOMENTS         DIIS   ORB.
    1      0.000D+00      0.000D+00       -92.89057455    112.162487    0.00000    0.00000   -1.78515    0    start
    2      0.000D+00      0.709D-02       -92.89981559    111.245865    0.00000    0.00000   -0.90528    1    diag
    3      0.721D-02      0.627D-02       -92.91495769    111.794203    0.00000    0.00000   -1.30934    2    diag
    4      0.354D-02      0.517D-03       -92.91518307    111.760425    0.00000    0.00000   -1.29809    3    diag
    5      0.625D-03      0.110D-03       -92.91519622    111.768115    0.00000    0.00000   -1.29659    4    diag
    6      0.152D-03      0.295D-04       -92.91519695    111.763735    0.00000    0.00000   -1.29672    5    diag
    7      0.316D-04      0.103D-04       -92.91519702    111.764962    0.00000    0.00000   -1.29676    6    diag
    8      0.105D-04      0.222D-05       -92.91519702    111.764899    0.00000    0.00000   -1.29673    7    diag
    9      0.224D-05      0.255D-06       -92.91519702    111.764908    0.00000    0.00000   -1.29672    8    diag
   10      0.329D-06      0.318D-07       -92.91519702    111.764909    0.00000    0.00000   -1.29672    9    orth
   11      0.364D-07      0.461D-08       -92.91519702    111.764909    0.00000    0.00000   -1.29672    9    diag
   12      0.580D-08      0.433D-09       -92.91519702    111.764909    0.00000    0.00000   -1.29672    9    diag
   13      0.109D-08      0.587D-10       -92.91519702    111.764909    0.00000    0.00000   -1.29672    9    diag
   14      0.936D-10      0.748D-11       -92.91519702    111.764909    0.00000    0.00000   -1.29672    9    diag
   15      0.216D-10      0.303D-11       -92.91519702    111.764909    0.00000    0.00000   -1.29672    9    diag
   16      0.300D-10      0.535D-12       -92.91519702    111.764909    0.00000    0.00000   -1.29672    9    diag
   17      0.197D-10      0.194D-12       -92.91519702    111.764909    0.00000    0.00000   -1.29672    0    orth

 Final occupancy:   5   1   1   0

 !RHF STATE 1.1 Energy                -92.915197022654
 Nuclear energy                        23.99590506
 One-electron energy                 -172.79355655
 Two-electron energy                   55.88245447
 Virial quotient                       -1.00184399
 !RHF STATE 1.1 Dipole moment           0.00000000     0.00000000    -1.29672271
 Dipole moment /Debye                   0.00000000     0.00000000    -3.29572450

 Orbital energies:

         1.1          2.1          3.1          4.1          5.1          6.1          7.1
    -15.596462   -11.289674    -1.238904    -0.810520    -0.581841     0.020536     0.062646

         1.2          2.2          3.2
     -0.498461     0.063585     0.120018

         1.3          2.3          3.3
     -0.498461     0.063585     0.120018

         1.4          2.4
      0.225818     0.394623

 HOMO      1.2    -0.498461 =     -13.5638eV
 LUMO      6.1     0.020536 =       0.5588eV
 LUMO-HOMO         0.518997 =      14.1226eV


 **********************************************************************************************************************************
 DATASETS  * FILE   NREC   LENGTH (MB)   RECORD NAMES
              1      19      461.87       500      610      700      900      950      970     1000      129      960     1100   
                                          VAR    BASINP    GEOM    SYMINP    ZMAT    AOBASIS   BASIS     P2S    ABASIS      S 
                                         1400     1410     1200     1210     1080     1600     1650     1300     1700   
                                           T        V       H0       H01     AOSYM     SMH    MOLCAS    ERIS     OPER   

              2       4        3.06       700     1000      520     2100   
                                         GEOM     BASIS   MCVARS     RHF  

 PROGRAMS   *        TOTAL        HF       INT
 CPU TIMES  *        11.73      3.13      8.51
 REAL TIME  *        14.41 SEC
 DISK USED  *         1.47 GB      
 **********************************************************************************************************************************


 PROGRAM * CCSD (Closed-shell coupled cluster)     Authors: C. Hampel, H.-J. Werner, 1991, M. Deegan, P.J. Knowles, 1992


 Convergence thresholds:  THRVAR = 1.00D-08  THRDEN = 1.00D-12

 CCSD(T)     terms to be evaluated (factor= 1.000)


 Number of core orbitals:           2 (   2   0   0   0 )
 Number of closed-shell orbitals:   5 (   3   1   1   0 )
 Number of external orbitals:     199 (  76  48  48  27 )

 Molecular orbitals read from record     2100.2  Type=RHF/CANONICAL (state 1.1)

 Number of N-1 electron functions:               5
 Number of N-2 electron functions:              15
 Number of singly external CSFs:               324
 Number of doubly external CSFs:            129659
 Total number of CSFs:                      129984

 Length of J-op  integral file:               0.00 MB
 Length of K-op  integral file:               0.86 MB
 Length of 3-ext integral record:             0.00 MB

 Memory could be reduced to 15.89 Mwords without degradation in triples

 Integral transformation finished. Total CPU:   0.45 sec, npass=  1  Memory used:   1.90 MW

 Reference energy:                    -92.91519702

 MP2 singlet pair energy:              -0.23752705
 MP2 triplet pair energy:              -0.13148955
 MP2 correlation energy:               -0.36901660
 MP2 total energy:                    -93.28421362

 SCS-MP2 correlation energy:           -0.36684818   (PS=  1.200000  PT=  0.333333)
 SCS-MP2 total energy:                -93.28204520

 ITER.      SQ.NORM     CORR.ENERGY   TOTAL ENERGY   ENERGY CHANGE        DEN1      VAR(S)    VAR(P)  DIIS     TIME  TIME/IT
   1      1.11512496    -0.36811064   -93.28330766     0.00090596     0.01384551  0.25D-02  0.30D-02  1  1     0.93     0.52
   2      1.12424747    -0.36835993   -93.28355695    -0.00024929    -0.01000576  0.61D-04  0.40D-03  2  2     1.39     0.52
   3      1.12921129    -0.36858094   -93.28377796    -0.00022101    -0.00257872  0.14D-04  0.43D-04  3  3     1.87     0.53
   4      1.13124677    -0.36865571   -93.28385273    -0.00007477    -0.00072488  0.59D-06  0.48D-05  4  4     2.34     0.53
   5      1.13176363    -0.36865928   -93.28385631    -0.00000357    -0.00014817  0.82D-07  0.42D-06  5  5     2.78     0.53
   6      1.13187257    -0.36865683   -93.28385385     0.00000246    -0.00002893  0.89D-08  0.33D-07  6  6     3.25     0.53
   7      1.13188022    -0.36865830   -93.28385532    -0.00000148    -0.00000101  0.86D-09  0.27D-08  6  1     3.72     0.53
   8      1.13188185    -0.36865876   -93.28385578    -0.00000045    -0.00000041  0.11D-09  0.24D-09  6  2     4.15     0.53
   9      1.13188205    -0.36865882   -93.28385584    -0.00000006    -0.00000010  0.11D-10  0.16D-10  6  3     4.61     0.53
  10      1.13188192    -0.36865886   -93.28385588    -0.00000004     0.00000011  0.11D-11  0.15D-11  6  4     5.07     0.53
  11      1.13188186    -0.36865887   -93.28385590    -0.00000001     0.00000003  0.15D-12  0.14D-12  6  5     5.55     0.53
  12      1.13188180    -0.36865888   -93.28385590    -0.00000000     0.00000002  0.17D-13  0.25D-13  6  6     6.01     0.53
  13      1.13188177    -0.36865888   -93.28385590    -0.00000000     0.00000001  0.17D-14  0.55D-14  6  1     6.48     0.53
  14      1.13188175    -0.36865888   -93.28385590    -0.00000000     0.00000001  0.13D-15  0.60D-15  6  3     6.97     0.53
  15      1.13188175    -0.36865888   -93.28385590    -0.00000000     0.00000000  0.11D-16  0.36D-16  6  2     7.43     0.53
  16      1.13188174    -0.36865888   -93.28385590     0.00000000     0.00000000  0.12D-17  0.40D-17  6  4     7.90     0.53
  17      1.13188174    -0.36865888   -93.28385590    -0.00000000     0.00000000  0.31D-18  0.54D-18  6  5     8.35     0.53
  18      1.13188174    -0.36865888   -93.28385590    -0.00000000     0.00000000  0.32D-19  0.43D-19  6  6     8.84     0.53
  19      1.13188174    -0.36865888   -93.28385590    -0.00000000     0.00000000  0.65D-20  0.87D-20  6  5     9.31     0.53

 Norm of t1 vector:      0.06371475      S-energy:    -0.00000000      T1 diagnostic:  0.01424705
                                                                       D1 diagnostic:  0.02855774


 Total CPU time for triples:      2.87 sec


 RESULTS
 =======

  Reference energy                    -92.915197022654
  CCSD singlet pair energy             -0.258278007700
  CCSD triplet pair energy             -0.110380873141
  CCSD correlation energy              -0.368658880843

  Triples (T) contribution             -0.019425746300
  Total correlation energy             -0.388084627143

  CCSD total energy                   -93.283855903497
  CCSD[T] energy                      -93.304095509819
  CCSD-T energy                       -93.302909995535
 !CCSD(T) total energy                -93.303281649797

 Timing summary (sec):

 STEP                 CPU(USER)    SYS     CPU(TOT)    WALL
 Transformation          0.45      0.14      0.59      0.64
 CCSD iterations         8.86      1.24     10.10     10.11
 Triples                 2.87      0.15      3.02      3.02

 Program statistics:

 Available memory in ccsd:               994999800
 Min. memory needed in ccsd:                524097
 Max. memory used in ccsd:                  626326
 Max. memory used in cckext:                818237 (19 integral passes)



 **********************************************************************************************************************************
 DATASETS  * FILE   NREC   LENGTH (MB)   RECORD NAMES
              1      20      504.85       500      610      700      900      950      970     1000      129      960     1100   
                                          VAR    BASINP    GEOM    SYMINP    ZMAT    AOBASIS   BASIS     P2S    ABASIS      S 
                                         1400     1410     1200     1210     1080     1600     1650     1300     1700     1380   
                                           T        V       H0       H01     AOSYM     SMH    MOLCAS    ERIS     OPER     JKOP   

              2       4        3.06       700     1000      520     2100   
                                         GEOM     BASIS   MCVARS     RHF  

 PROGRAMS   *        TOTAL   CCSD(T)        HF       INT
 CPU TIMES  *        23.95     12.21      3.13      8.51
 REAL TIME  *        28.60 SEC
 DISK USED  *         1.47 GB      
 **********************************************************************************************************************************

 CCSD(T)/aug-cc-pVQZ energy=    -93.303281649797

        CCSD(T)         HF-SCF  
    -93.30328165    -92.91519702
 **********************************************************************************************************************************
 Molpro calculation terminated
 Variable memory released
