
 Primary working directories    : /tmp/r2666/232464.maple
 Secondary working directories  : /tmp/r2666/232464.maple
 Wavefunction directory         : /ddn/home4/r2666/wfu/
 Main file repository           : /tmp/r2666/232464.maple/

 SHA1      : d5ffa45e93fdbca01ffc919aa182cfdae0147319
 NAME      : 2015.1.35
 ARCHNAME  : linux/x86_64
 FC        : /opt/intel/composer_xe_2015.1.133/bin/intel64/ifort
 BLASLIB   : -Wl,-_start-group /opt/intel/mkl/lib/intel64/libmkl_intel_ilp64.a /opt/intel/mkl/lib/intel64/libmkl_intel_thread.a /opt/intel/mkl/lib/intel64/libmkl_core.a -Wl,-_end-group
 id        : olemiss

 Nodes     nprocs
 cn052        1

 Using customized tuning parameters: mindgm=1; mindgv=20; mindgc=4; mindgr=1; noblas=0; minvec=7
 default implementation of scratch files=df  

 ***,hcn CCSD(T)/TZ-F12 QFF
 memory, 995, m;
 gthresh,energy=1.d-12,zero=1.d-22,oneint=1.d-22,twoint=1.d-22;
 gthresh,optgrad=1.d-8,optstep=1.d-8;
 nocompress;
 geomtyp=xyz
 bohr
 geometry={
 3
         18        18
 N       -0.0046180393        0.0000000150        1.1215031264
 C        0.0096153348       -0.0000000004       -1.0478512178
 H       -0.0049972956       -0.0000000147       -3.0707218907
 }
 
 basis=avqz
   {hf,maxit=500;accu,20;}
 {ccsd(t),nocheck,maxit=250;orbital,IGNORE_ERROR;}

 Variables initialized (889), CPU time= 0.00 sec
 Commands  initialized (702), CPU time= 0.01 sec, 572 directives.
 Default parameters read. Elapsed time= 0.05 sec

 Checking input...
 Passed
1


                                         ***  PROGRAM SYSTEM MOLPRO  ***
                                       Copyright, TTI GmbH Stuttgart, 2015
                                    Version 2015.1 linked Jul  9 2018 13:16:40


 **********************************************************************************************************************************
 LABEL *   hcn CCSD(T)/TZ-F12 QFF                                                        
  64 bit serial version                                                                  DATE: 06-Feb-20          TIME: 09:51:24  
 **********************************************************************************************************************************

 SHA1:             d5ffa45e93fdbca01ffc919aa182cfdae0147319
 **********************************************************************************************************************************

 THRESHOLDS:

 ZERO    =  1.00D-22  ONEINT  =  1.00D-22  TWOINT  =  1.00D-22  PREFAC  =  1.00D-14  LOCALI  =  1.00D-09  EORDER  =  1.00D-04
 ENERGY  =  1.00D-12  ETEST   =  0.00D+00  EDENS   =  0.00D+00  THRDEDEF=  1.00D-06  GRADIENT=  1.00D-02  STEP    =  1.00D-03
 ORBITAL =  1.00D-05  CIVEC   =  1.00D-05  COEFF   =  1.00D-04  PRINTCI =  5.00D-02  PUNCHCI =  9.90D+01  OPTGRAD =  3.00D-04
 OPTENERG=  1.00D-06  OPTSTEP =  3.00D-04  THRGRAD =  1.00D-10  COMPRESS=  1.00D-11  VARMIN  =  1.00D-07  VARMAX  =  1.00D-03
 THRDOUB =  0.00D+00  THRDIV  =  1.00D-05  THRRED  =  1.00D-07  THRPSP  =  1.00D+00  THRDC   =  1.00D-10  THRCS   =  1.00D-10
 THRNRM  =  1.00D-08  THREQ   =  0.00D+00  THRDE   =  1.00D+00  THRREF  =  1.00D-05  SPARFAC =  1.00D+00  THRDLP  =  1.00D-07
 THRDIA  =  1.00D-10  THRDLS  =  1.00D-07  THRGPS  =  0.00D+00  THRKEX  =  0.00D+00  THRDIS  =  2.00D-01  THRVAR  =  1.00D-10
 THRLOC  =  1.00D-06  THRGAP  =  1.00D-06  THRLOCT = -1.00D+00  THRGAPT = -1.00D+00  THRORB  =  1.00D-06  THRMLTP =  0.00D+00
 THRCPQCI=  1.00D-10  KEXTA   =  0.00D+00  THRCOARS=  0.00D+00  SYMTOL  =  1.00D-06  GRADTOL =  1.00D-06  THROVL  =  1.00D-08
 THRORTH =  1.00D-08  GRID    =  1.00D-06  GRIDMAX =  1.00D-03  DTMAX   =  0.00D+00  THROCCDE=  1.00D-01  THROCCDE=  1.00D-01



 THRESHOLDS:

 ZERO    =  1.00D-22  ONEINT  =  1.00D-22  TWOINT  =  1.00D-22  PREFAC  =  1.00D-14  LOCALI  =  1.00D-09  EORDER  =  1.00D-04
 ENERGY  =  1.00D-12  ETEST   =  0.00D+00  EDENS   =  0.00D+00  THRDEDEF=  1.00D-06  GRADIENT=  1.00D-02  STEP    =  1.00D-03
 ORBITAL =  1.00D-05  CIVEC   =  1.00D-05  COEFF   =  1.00D-04  PRINTCI =  5.00D-02  PUNCHCI =  9.90D+01  OPTGRAD =  1.00D-08
 OPTENERG=  1.00D-06  OPTSTEP =  1.00D-08  THRGRAD =  1.00D-10  COMPRESS=  1.00D-11  VARMIN  =  1.00D-07  VARMAX  =  1.00D-03
 THRDOUB =  0.00D+00  THRDIV  =  1.00D-05  THRRED  =  1.00D-07  THRPSP  =  1.00D+00  THRDC   =  1.00D-10  THRCS   =  1.00D-10
 THRNRM  =  1.00D-08  THREQ   =  0.00D+00  THRDE   =  1.00D+00  THRREF  =  1.00D-05  SPARFAC =  1.00D+00  THRDLP  =  1.00D-07
 THRDIA  =  1.00D-10  THRDLS  =  1.00D-07  THRGPS  =  0.00D+00  THRKEX  =  0.00D+00  THRDIS  =  2.00D-01  THRVAR  =  1.00D-10
 THRLOC  =  1.00D-06  THRGAP  =  1.00D-06  THRLOCT = -1.00D+00  THRGAPT = -1.00D+00  THRORB  =  1.00D-06  THRMLTP =  0.00D+00
 THRCPQCI=  1.00D-10  KEXTA   =  0.00D+00  THRCOARS=  0.00D+00  SYMTOL  =  1.00D-06  GRADTOL =  1.00D-06  THROVL  =  1.00D-08
 THRORTH =  1.00D-08  GRID    =  1.00D-06  GRIDMAX =  1.00D-03  DTMAX   =  0.00D+00  THROCCDE=  1.00D-01  THROCCDE=  1.00D-01



 Input parameters for SORTINT:

 COMPRESS =    0.000000
 C_FINAL  =    1.000000
 DEBUG    =   -1.000000
 C_SORT1  =    0.000000
 C_SEWARD =    0.000000
 THRESH   =    0.000000
 IO       =  molpro                                                          
 SPRI     =    0.000000
 SETTING GEOMTYP        =    XYZ
 ZUNIT=BOHR
 

 Variable memory set to  995000000 words,  buffer space   230000 words

 SETTING BASIS          =    AVQZ


 Recomputing integrals since basis changed


 Using spherical harmonics

 Library entry N      S aug-cc-pVQZ          selected for orbital group  1
 Library entry N      P aug-cc-pVQZ          selected for orbital group  1
 Library entry N      D aug-cc-pVQZ          selected for orbital group  1
 Library entry N      F aug-cc-pVQZ          selected for orbital group  1
 Library entry N      G aug-cc-pVQZ          selected for orbital group  1
 Library entry C      S aug-cc-pVQZ          selected for orbital group  2
 Library entry C      P aug-cc-pVQZ          selected for orbital group  2
 Library entry C      D aug-cc-pVQZ          selected for orbital group  2
 Library entry C      F aug-cc-pVQZ          selected for orbital group  2
 Library entry C      G aug-cc-pVQZ          selected for orbital group  2
 Library entry H      S aug-cc-pVQZ          selected for orbital group  3
 Library entry H      P aug-cc-pVQZ          selected for orbital group  3
 Library entry H      D aug-cc-pVQZ          selected for orbital group  3
 Library entry H      F aug-cc-pVQZ          selected for orbital group  3


 PROGRAM * SEWARD (Integral evaluation for generally contracted gaussian basis sets)     Author: Roland Lindh, 1990

 Geometry written to block  1 of record 700


 Point group  Cs  



 ATOMIC COORDINATES

 NR  ATOM    CHARGE       X              Y              Z

   1  N       7.00   -0.004618039    0.000000000    1.121503126
   2  C       6.00    0.009615335    0.000000000   -1.047851218
   3  H       1.00   -0.004997296    0.000000000   -3.070721891

 Bond lengths in Bohr (Angstrom)

 1-2  2.169401037  2-3  2.022923451
     ( 1.147997590)     ( 1.070484990)

 Bond angles

  1-2-3  179.21020056

 NUCLEAR CHARGE:                   14
 NUMBER OF PRIMITIVE AOS:         293
 NUMBER OF SYMMETRY AOS:          234
 NUMBER OF CONTRACTIONS:          206   ( 130A'  +  76A"  )
 NUMBER OF CORE ORBITALS:           2   (   2A'  +   0A"  )
 NUMBER OF VALENCE ORBITALS:        9   (   7A'  +   2A"  )


 NUCLEAR REPULSION ENERGY   23.99594467


 Eigenvalues of metric

         1 0.175E-04 0.389E-04 0.736E-04 0.277E-03 0.393E-03 0.399E-03 0.431E-03 0.522E-03
         2 0.395E-03 0.950E-03 0.296E-02 0.356E-02 0.450E-02 0.475E-02 0.642E-02 0.870E-02


 Contracted 2-electron integrals neglected if value below      1.0D-22

      109905915. INTEGRALS WRITTEN OUT IN   26840 BLOCKS ON RECORD 1290 OF FILE 1


 NUMBER OF SORTED TWO-ELECTRON INTEGRALS:  115283741.     BUFFER LENGTH:  32768
 NUMBER OF SEGMENTS:   8  SEGMENT LENGTH:   15998004      RECORD LENGTH: 524288

 Memory used in sort:      16.56 MW

 SORT1 READ   109905915. AND WROTE   110825934. INTEGRALS IN    321 RECORDS. CPU TIME:     3.91 SEC, REAL TIME:     5.03 SEC
 SORT2 READ   110825934. AND WROTE   115283741. INTEGRALS IN      8 RECORDS. CPU TIME:     2.01 SEC, REAL TIME:     2.74 SEC

 FILE SIZES:   FILE 1:  1780.0 MBYTE,  FILE 4:  1346.4 MBYTE,   TOTAL:   3126.5 MBYTE

 OPERATOR DM      FOR CENTER  0  COORDINATES:    0.000000    0.000000    0.000000


 **********************************************************************************************************************************
 DATASETS  * FILE   NREC   LENGTH (MB)   RECORD NAMES
              1      19      943.99       500      610      700      900      950      970     1000      129      960     1100   
                                          VAR    BASINP    GEOM    SYMINP    ZMAT    AOBASIS   BASIS     P2S    ABASIS      S 
                                         1400     1410     1200     1210     1080     1600     1650     1300     1700   
                                           T        V       H0       H01     AOSYM     SMH    MOLCAS    ERIS     OPER   

 PROGRAMS   *        TOTAL       INT
 CPU TIMES  *        19.44     19.34
 REAL TIME  *        23.33 SEC
 DISK USED  *         3.13 GB      
 **********************************************************************************************************************************


 PROGRAM * RHF-SCF (CLOSED SHELL)       Authors: W. Meyer, H.-J. Werner


 NUMBER OF ELECTRONS:       7+    7-
 CONVERGENCE THRESHOLDS:    1.00E-10 (Density)    1.00E-13 (Energy)
 MAX. NUMBER OF ITERATIONS:      500
 INTERPOLATION TYPE:            DIIS
 INTERPOLATION STEPS:              2 (START)      1 (STEP)
 LEVEL SHIFTS:                  0.00 (CLOSED)  0.00 (OPEN) 



 Orbital guess generated from atomic densities. Full valence occupancy:    9   2

 Molecular orbital dump at record        2100.2

 Initial occupancy:   6   1

 ITERATION    DDIFF          GRAD             ENERGY        2-EL.EN.            DIPOLE MOMENTS         DIIS   ORB.
    1      0.000D+00      0.000D+00       -92.89056650    112.162566    0.00694    0.00000   -1.78508    0    start
    2      0.000D+00      0.541D-02       -92.89980755    111.245920   -0.00241    0.00000   -0.90523    1    diag
    3      0.528D-02      0.478D-02       -92.91495003    111.794263    0.00150    0.00000   -1.30928    2    diag
    4      0.260D-02      0.394D-03       -92.91517544    111.760486    0.00116    0.00000   -1.29803    3    diag
    5      0.458D-03      0.839D-04       -92.91518859    111.768176    0.00106    0.00000   -1.29653    4    diag
    6      0.111D-03      0.225D-04       -92.91518932    111.763796    0.00105    0.00000   -1.29666    5    diag
    7      0.232D-04      0.787D-05       -92.91518939    111.765024    0.00105    0.00000   -1.29670    6    diag
    8      0.769D-05      0.169D-05       -92.91518939    111.764960    0.00105    0.00000   -1.29667    7    diag
    9      0.164D-05      0.195D-06       -92.91518939    111.764969    0.00105    0.00000   -1.29666    8    diag
   10      0.241D-06      0.249D-07       -92.91518939    111.764970    0.00105    0.00000   -1.29666    9    orth
   11      0.276D-07      0.456D-08       -92.91518939    111.764970    0.00105    0.00000   -1.29666    9    diag
   12      0.580D-08      0.161D-08       -92.91518939    111.764970    0.00105    0.00000   -1.29666    9    diag
   13      0.274D-08      0.790D-09       -92.91518939    111.764970    0.00105    0.00000   -1.29666    9    diag
   14      0.205D-08      0.186D-09       -92.91518939    111.764970    0.00105    0.00000   -1.29666    9    diag
   15      0.414D-09      0.709D-10       -92.91518939    111.764970    0.00105    0.00000   -1.29666    9    diag
   16      0.140D-09      0.199D-10       -92.91518939    111.764970    0.00105    0.00000   -1.29666    9    diag
   17      0.321D-10      0.383D-11       -92.91518939    111.764970    0.00105    0.00000   -1.29666    9    diag
   18      0.680D-11      0.460D-12       -92.91518939    111.764970    0.00105    0.00000   -1.29666    0    orth

 Final occupancy:   6   1

 !RHF STATE 1.1 Energy                -92.915189394358
 Nuclear energy                        23.99594467
 One-electron energy                 -172.79361916
 Two-electron energy                   55.88248510
 Virial quotient                       -1.00184376
 !RHF STATE 1.1 Dipole moment           0.00104680     0.00000000    -1.29666037
 Dipole moment /Debye                   0.00266052     0.00000000    -3.29556607

 Orbital energies:

         1.1          2.1          3.1          4.1          5.1          6.1          7.1          8.1
    -15.596465   -11.289672    -1.238907    -0.810513    -0.581843    -0.498461     0.020537     0.062643

         1.2          2.2          3.2
     -0.498463     0.063585     0.120020

 HOMO      6.1    -0.498461 =     -13.5638eV
 LUMO      7.1     0.020537 =       0.5588eV
 LUMO-HOMO         0.518998 =      14.1226eV


 **********************************************************************************************************************************
 DATASETS  * FILE   NREC   LENGTH (MB)   RECORD NAMES
              1      19      943.99       500      610      700      900      950      970     1000      129      960     1100   
                                          VAR    BASINP    GEOM    SYMINP    ZMAT    AOBASIS   BASIS     P2S    ABASIS      S 
                                         1400     1410     1200     1210     1080     1600     1650     1300     1700   
                                           T        V       H0       H01     AOSYM     SMH    MOLCAS    ERIS     OPER   

              2       4        3.27       700     1000      520     2100   
                                         GEOM     BASIS   MCVARS     RHF  

 PROGRAMS   *        TOTAL        HF       INT
 CPU TIMES  *        32.50     13.06     19.34
 REAL TIME  *        40.04 SEC
 DISK USED  *         3.13 GB      
 **********************************************************************************************************************************


 PROGRAM * CCSD (Closed-shell coupled cluster)     Authors: C. Hampel, H.-J. Werner, 1991, M. Deegan, P.J. Knowles, 1992


 Convergence thresholds:  THRVAR = 1.00D-08  THRDEN = 1.00D-12

 CCSD(T)     terms to be evaluated (factor= 1.000)


 Number of core orbitals:           2 (   2   0 )
 Number of closed-shell orbitals:   5 (   4   1 )
 Number of external orbitals:     199 ( 124  75 )

 Molecular orbitals read from record     2100.2  Type=RHF/CANONICAL (state 1.1)

 Number of N-1 electron functions:               5
 Number of N-2 electron functions:              15
 Number of singly external CSFs:               571
 Number of doubly external CSFs:            253406
 Total number of CSFs:                      253978

 Length of J-op  integral file:               0.00 MB
 Length of K-op  integral file:               1.60 MB
 Length of 3-ext integral record:             0.00 MB

 Memory could be reduced to 30.93 Mwords without degradation in triples

 Integral transformation finished. Total CPU:   2.12 sec, npass=  1  Memory used:   8.33 MW

 Reference energy:                    -92.91518939

 MP2 singlet pair energy:              -0.23752830
 MP2 triplet pair energy:              -0.13149015
 MP2 correlation energy:               -0.36901846
 MP2 total energy:                    -93.28420785

 SCS-MP2 correlation energy:           -0.36685006   (PS=  1.200000  PT=  0.333333)
 SCS-MP2 total energy:                -93.28203945

 ITER.      SQ.NORM     CORR.ENERGY   TOTAL ENERGY   ENERGY CHANGE        DEN1      VAR(S)    VAR(P)  DIIS     TIME  TIME/IT
   1      1.11512645    -0.36811223   -93.28330162     0.00090623     0.01384608  0.25D-02  0.30D-02  1  1     3.84     1.88
   2      1.12424928    -0.36836153   -93.28355092    -0.00024930    -0.01000595  0.61D-04  0.40D-03  2  2     5.56     1.91
   3      1.12921341    -0.36858256   -93.28377195    -0.00022103    -0.00257881  0.14D-04  0.43D-04  3  3     7.33     1.92
   4      1.13124908    -0.36865735   -93.28384674    -0.00007479    -0.00072492  0.59D-06  0.48D-05  4  4     9.10     1.93
   5      1.13176599    -0.36866092   -93.28385031    -0.00000357    -0.00014819  0.82D-07  0.42D-06  5  5    10.80     1.94
   6      1.13187494    -0.36865846   -93.28384786     0.00000246    -0.00002893  0.89D-08  0.33D-07  6  6    12.55     1.94
   7      1.13188259    -0.36865994   -93.28384933    -0.00000148    -0.00000101  0.86D-09  0.27D-08  6  1    14.27     1.94
   8      1.13188422    -0.36866039   -93.28384979    -0.00000045    -0.00000041  0.11D-09  0.24D-09  6  2    16.00     1.95
   9      1.13188442    -0.36866046   -93.28384985    -0.00000006    -0.00000010  0.11D-10  0.16D-10  6  3    17.81     1.95
  10      1.13188429    -0.36866050   -93.28384989    -0.00000004     0.00000011  0.12D-11  0.15D-11  6  4    19.54     1.96
  11      1.13188423    -0.36866051   -93.28384990    -0.00000001     0.00000003  0.16D-12  0.15D-12  6  5    21.26     1.96
  12      1.13188417    -0.36866051   -93.28384991    -0.00000000     0.00000002  0.20D-13  0.26D-13  6  6    23.02     1.97
  13      1.13188414    -0.36866052   -93.28384991    -0.00000000     0.00000001  0.25D-14  0.57D-14  6  1    24.79     1.97
  14      1.13188412    -0.36866052   -93.28384991    -0.00000000     0.00000001  0.30D-15  0.63D-15  6  3    26.53     1.97
  15      1.13188412    -0.36866052   -93.28384991    -0.00000000     0.00000000  0.46D-16  0.41D-16  6  2    28.26     1.98
  16      1.13188412    -0.36866052   -93.28384991     0.00000000     0.00000000  0.13D-16  0.59D-17  6  4    30.07     1.98
  17      1.13188412    -0.36866052   -93.28384991    -0.00000000     0.00000000  0.31D-17  0.11D-17  6  5    31.88     1.99
  18      1.13188412    -0.36866052   -93.28384991     0.00000000     0.00000000  0.42D-18  0.22D-18  6  6    33.64     1.99
  19      1.13188412    -0.36866052   -93.28384991     0.00000000    -0.00000000  0.48D-19  0.39D-19  6  1    35.40     1.99
  20      1.13188412    -0.36866052   -93.28384991     0.00000000    -0.00000000  0.11D-19  0.11D-19  6  3    37.18     1.99

 Norm of t1 vector:      0.06371520      S-energy:    -0.00000000      T1 diagnostic:  0.01424715
                                                                       D1 diagnostic:  0.02855843


 Total CPU time for triples:     16.42 sec


 RESULTS
 =======

  Reference energy                    -92.915189394358
  CCSD singlet pair energy             -0.258279594103
  CCSD triplet pair energy             -0.110380922713
  CCSD correlation energy              -0.368660516816

  Triples (T) contribution             -0.019426036009
  Total correlation energy             -0.388086552825

  CCSD total energy                   -93.283849911174
  CCSD[T] energy                      -93.304089817869
  CCSD-T energy                       -93.302904291458
 !CCSD(T) total energy                -93.303275947183

 Timing summary (sec):

 STEP                 CPU(USER)    SYS     CPU(TOT)    WALL
 Transformation          2.14      0.33      2.47      2.47
 CCSD iterations        35.04      4.61     39.65     39.83
 Triples                16.42      0.34     16.76     16.76

 Program statistics:

 Available memory in ccsd:               994999800
 Min. memory needed in ccsd:               1003324
 Max. memory used in ccsd:                 1199476
 Max. memory used in cckext:               2145959 (20 integral passes)



 **********************************************************************************************************************************
 DATASETS  * FILE   NREC   LENGTH (MB)   RECORD NAMES
              1      20     1028.32       500      610      700      900      950      970     1000      129      960     1100   
                                          VAR    BASINP    GEOM    SYMINP    ZMAT    AOBASIS   BASIS     P2S    ABASIS      S 
                                         1400     1410     1200     1210     1080     1600     1650     1300     1700     1380   
                                           T        V       H0       H01     AOSYM     SMH    MOLCAS    ERIS     OPER     JKOP   

              2       4        3.27       700     1000      520     2100   
                                         GEOM     BASIS   MCVARS     RHF  

 PROGRAMS   *        TOTAL   CCSD(T)        HF       INT
 CPU TIMES  *        86.12     53.62     13.06     19.34
 REAL TIME  *        99.14 SEC
 DISK USED  *         3.13 GB      
 **********************************************************************************************************************************

 CCSD(T)/aug-cc-pVQZ energy=    -93.303275947183

        CCSD(T)         HF-SCF  
    -93.30327595    -92.91518939
 **********************************************************************************************************************************
 Molpro calculation terminated
 Variable memory released
