
 Primary working directories    : /tmp/r2666/232483.maple
 Secondary working directories  : /tmp/r2666/232483.maple
 Wavefunction directory         : /ddn/home4/r2666/wfu/
 Main file repository           : /tmp/r2666/232483.maple/

 SHA1      : d5ffa45e93fdbca01ffc919aa182cfdae0147319
 NAME      : 2015.1.35
 ARCHNAME  : linux/x86_64
 FC        : /opt/intel/composer_xe_2015.1.133/bin/intel64/ifort
 BLASLIB   : -Wl,-_start-group /opt/intel/mkl/lib/intel64/libmkl_intel_ilp64.a /opt/intel/mkl/lib/intel64/libmkl_intel_thread.a /opt/intel/mkl/lib/intel64/libmkl_core.a -Wl,-_end-group
 id        : olemiss

 Nodes     nprocs
 cn088        1

 Using customized tuning parameters: mindgm=1; mindgv=20; mindgc=4; mindgr=1; noblas=0; minvec=7
 default implementation of scratch files=df  

 ***,hcn CCSD(T)/TZ-F12 QFF
 memory, 995, m;
 gthresh,energy=1.d-12,zero=1.d-22,oneint=1.d-22,twoint=1.d-22;
 gthresh,optgrad=1.d-8,optstep=1.d-8;
 nocompress;
 geomtyp=xyz
 bohr
 geometry={
 3
         37        37
 N        0.0000000000        0.0000000000        1.1247013910
 C        0.0000000000        0.0000000000       -1.0635969059
 H        0.0000000000        0.0000000000       -3.0581744671
 }
 
 basis=avqz
   {hf,maxit=500;accu,20;}
 {ccsd(t),nocheck,maxit=250;orbital,IGNORE_ERROR;}

 Variables initialized (889), CPU time= 0.01 sec
 Commands  initialized (702), CPU time= 0.01 sec, 572 directives.
 Default parameters read. Elapsed time= 0.04 sec

 Checking input...
 Passed
1


                                         ***  PROGRAM SYSTEM MOLPRO  ***
                                       Copyright, TTI GmbH Stuttgart, 2015
                                    Version 2015.1 linked Jul  9 2018 13:16:40


 **********************************************************************************************************************************
 LABEL *   hcn CCSD(T)/TZ-F12 QFF                                                        
  64 bit serial version                                                                  DATE: 06-Feb-20          TIME: 09:53:24  
 **********************************************************************************************************************************

 SHA1:             d5ffa45e93fdbca01ffc919aa182cfdae0147319
 **********************************************************************************************************************************

 THRESHOLDS:

 ZERO    =  1.00D-22  ONEINT  =  1.00D-22  TWOINT  =  1.00D-22  PREFAC  =  1.00D-14  LOCALI  =  1.00D-09  EORDER  =  1.00D-04
 ENERGY  =  1.00D-12  ETEST   =  0.00D+00  EDENS   =  0.00D+00  THRDEDEF=  1.00D-06  GRADIENT=  1.00D-02  STEP    =  1.00D-03
 ORBITAL =  1.00D-05  CIVEC   =  1.00D-05  COEFF   =  1.00D-04  PRINTCI =  5.00D-02  PUNCHCI =  9.90D+01  OPTGRAD =  3.00D-04
 OPTENERG=  1.00D-06  OPTSTEP =  3.00D-04  THRGRAD =  1.00D-10  COMPRESS=  1.00D-11  VARMIN  =  1.00D-07  VARMAX  =  1.00D-03
 THRDOUB =  0.00D+00  THRDIV  =  1.00D-05  THRRED  =  1.00D-07  THRPSP  =  1.00D+00  THRDC   =  1.00D-10  THRCS   =  1.00D-10
 THRNRM  =  1.00D-08  THREQ   =  0.00D+00  THRDE   =  1.00D+00  THRREF  =  1.00D-05  SPARFAC =  1.00D+00  THRDLP  =  1.00D-07
 THRDIA  =  1.00D-10  THRDLS  =  1.00D-07  THRGPS  =  0.00D+00  THRKEX  =  0.00D+00  THRDIS  =  2.00D-01  THRVAR  =  1.00D-10
 THRLOC  =  1.00D-06  THRGAP  =  1.00D-06  THRLOCT = -1.00D+00  THRGAPT = -1.00D+00  THRORB  =  1.00D-06  THRMLTP =  0.00D+00
 THRCPQCI=  1.00D-10  KEXTA   =  0.00D+00  THRCOARS=  0.00D+00  SYMTOL  =  1.00D-06  GRADTOL =  1.00D-06  THROVL  =  1.00D-08
 THRORTH =  1.00D-08  GRID    =  1.00D-06  GRIDMAX =  1.00D-03  DTMAX   =  0.00D+00  THROCCDE=  1.00D-01  THROCCDE=  1.00D-01



 THRESHOLDS:

 ZERO    =  1.00D-22  ONEINT  =  1.00D-22  TWOINT  =  1.00D-22  PREFAC  =  1.00D-14  LOCALI  =  1.00D-09  EORDER  =  1.00D-04
 ENERGY  =  1.00D-12  ETEST   =  0.00D+00  EDENS   =  0.00D+00  THRDEDEF=  1.00D-06  GRADIENT=  1.00D-02  STEP    =  1.00D-03
 ORBITAL =  1.00D-05  CIVEC   =  1.00D-05  COEFF   =  1.00D-04  PRINTCI =  5.00D-02  PUNCHCI =  9.90D+01  OPTGRAD =  1.00D-08
 OPTENERG=  1.00D-06  OPTSTEP =  1.00D-08  THRGRAD =  1.00D-10  COMPRESS=  1.00D-11  VARMIN  =  1.00D-07  VARMAX  =  1.00D-03
 THRDOUB =  0.00D+00  THRDIV  =  1.00D-05  THRRED  =  1.00D-07  THRPSP  =  1.00D+00  THRDC   =  1.00D-10  THRCS   =  1.00D-10
 THRNRM  =  1.00D-08  THREQ   =  0.00D+00  THRDE   =  1.00D+00  THRREF  =  1.00D-05  SPARFAC =  1.00D+00  THRDLP  =  1.00D-07
 THRDIA  =  1.00D-10  THRDLS  =  1.00D-07  THRGPS  =  0.00D+00  THRKEX  =  0.00D+00  THRDIS  =  2.00D-01  THRVAR  =  1.00D-10
 THRLOC  =  1.00D-06  THRGAP  =  1.00D-06  THRLOCT = -1.00D+00  THRGAPT = -1.00D+00  THRORB  =  1.00D-06  THRMLTP =  0.00D+00
 THRCPQCI=  1.00D-10  KEXTA   =  0.00D+00  THRCOARS=  0.00D+00  SYMTOL  =  1.00D-06  GRADTOL =  1.00D-06  THROVL  =  1.00D-08
 THRORTH =  1.00D-08  GRID    =  1.00D-06  GRIDMAX =  1.00D-03  DTMAX   =  0.00D+00  THROCCDE=  1.00D-01  THROCCDE=  1.00D-01



 Input parameters for SORTINT:

 COMPRESS =    0.000000
 C_FINAL  =    1.000000
 DEBUG    =   -1.000000
 C_SORT1  =    0.000000
 C_SEWARD =    0.000000
 THRESH   =    0.000000
 IO       =  molpro                                                          
 SPRI     =    0.000000
 SETTING GEOMTYP        =    XYZ
 ZUNIT=BOHR
 

 Variable memory set to  995000000 words,  buffer space   230000 words

 SETTING BASIS          =    AVQZ


 Recomputing integrals since basis changed


 Using spherical harmonics

 Library entry N      S aug-cc-pVQZ          selected for orbital group  1
 Library entry N      P aug-cc-pVQZ          selected for orbital group  1
 Library entry N      D aug-cc-pVQZ          selected for orbital group  1
 Library entry N      F aug-cc-pVQZ          selected for orbital group  1
 Library entry N      G aug-cc-pVQZ          selected for orbital group  1
 Library entry C      S aug-cc-pVQZ          selected for orbital group  2
 Library entry C      P aug-cc-pVQZ          selected for orbital group  2
 Library entry C      D aug-cc-pVQZ          selected for orbital group  2
 Library entry C      F aug-cc-pVQZ          selected for orbital group  2
 Library entry C      G aug-cc-pVQZ          selected for orbital group  2
 Library entry H      S aug-cc-pVQZ          selected for orbital group  3
 Library entry H      P aug-cc-pVQZ          selected for orbital group  3
 Library entry H      D aug-cc-pVQZ          selected for orbital group  3
 Library entry H      F aug-cc-pVQZ          selected for orbital group  3


 PROGRAM * SEWARD (Integral evaluation for generally contracted gaussian basis sets)     Author: Roland Lindh, 1990

 Geometry written to block  1 of record 700


 Point group  C2v 



 ATOMIC COORDINATES

 NR  ATOM    CHARGE       X              Y              Z

   1  N       7.00    0.000000000    0.000000000    1.124701391
   2  C       6.00    0.000000000    0.000000000   -1.063596906
   3  H       1.00    0.000000000    0.000000000   -3.058174467

 Bond lengths in Bohr (Angstrom)

 1-2  2.188298297  2-3  1.994577561
     ( 1.157997589)     ( 1.055484991)

 Bond angles

  1-2-3  179.99999829

 NUCLEAR CHARGE:                   14
 NUMBER OF PRIMITIVE AOS:         293
 NUMBER OF SYMMETRY AOS:          234
 NUMBER OF CONTRACTIONS:          206   (  81A1  +  49B1  +  49B2  +  27A2  )
 NUMBER OF CORE ORBITALS:           2   (   2A1  +   0B1  +   0B2  +   0A2  )
 NUMBER OF VALENCE ORBITALS:        9   (   5A1  +   2B1  +   2B2  +   0A2  )


 NUCLEAR REPULSION ENERGY   23.87464134

 EXTRA SYMMETRY OF AOS IN SYMMETRY 1:   1 1 1 1 1 1 1 1 1 1   1 1 2 1 2 1 2 1 2 1   2 1 2 1 2 1 3 2 1 3   2 1 1 1 1 1 1 1 1 1
                                        1 1 1 2 1 2 1 2 1 2   1 2 1 2 1 2 1 3 2 1   3 2 1 1 1 1 1 1 1 1   1 1 2 1 2 1 2 1 2 1
                                        2
 EXTRA SYMMETRY OF AOS IN SYMMETRY 2:   1 1 1 1 1 1 1 1 1 1   2 1 2 1 2 1 2 1 2 1   1 1 1 1 1 1 1 1 1 2   1 2 1 2 1 2 1 2 1 1
                                        1 1 1 1 1 1 2 1 2
 EXTRA SYMMETRY OF AOS IN SYMMETRY 3:   1 1 1 1 1 1 1 1 1 1   2 1 2 1 2 1 2 1 2 1   1 1 1 1 1 1 1 1 1 2   1 2 1 2 1 2 1 2 1 1
                                        1 1 1 1 1 1 2 1 2
 EXTRA SYMMETRY OF AOS IN SYMMETRY 4:   1 1 1 1 1 1 1 1 2 1   2 1 1 1 1 1 1 1 1 2   1 2 1 1 1 1 1

 Eigenvalues of metric

         1 0.167E-04 0.388E-04 0.688E-04 0.278E-03 0.397E-03 0.438E-03 0.521E-03 0.794E-03
         2 0.404E-03 0.916E-03 0.296E-02 0.344E-02 0.472E-02 0.636E-02 0.866E-02 0.106E-01
         3 0.404E-03 0.916E-03 0.296E-02 0.344E-02 0.472E-02 0.636E-02 0.866E-02 0.106E-01
         4 0.464E-02 0.123E-01 0.321E-01 0.556E-01 0.887E-01 0.140E+00 0.197E+00 0.229E+00


 Contracted 2-electron integrals neglected if value below      1.0D-22

       51231224. INTEGRALS WRITTEN OUT IN   12511 BLOCKS ON RECORD 1290 OF FILE 1


 NUMBER OF SORTED TWO-ELECTRON INTEGRALS:   58298162.     BUFFER LENGTH:  32768
 NUMBER OF SEGMENTS:   4  SEGMENT LENGTH:   15999501      RECORD LENGTH: 524288

 Memory used in sort:      16.56 MW

 SORT1 READ    51231224. AND WROTE    51986698. INTEGRALS IN    150 RECORDS. CPU TIME:     1.22 SEC, REAL TIME:     1.58 SEC
 SORT2 READ    51986698. AND WROTE    58298162. INTEGRALS IN      4 RECORDS. CPU TIME:     0.76 SEC, REAL TIME:     1.02 SEC

 FILE SIZES:   FILE 1:   840.8 MBYTE,  FILE 4:   629.2 MBYTE,   TOTAL:   1470.0 MBYTE

 OPERATOR DM      FOR CENTER  0  COORDINATES:    0.000000    0.000000    0.000000


 **********************************************************************************************************************************
 DATASETS  * FILE   NREC   LENGTH (MB)   RECORD NAMES
              1      19      461.89       500      610      700      900      950      970     1000      129      960     1100   
                                          VAR    BASINP    GEOM    SYMINP    ZMAT    AOBASIS   BASIS     P2S    ABASIS      S 
                                         1400     1410     1200     1210     1080     1600     1650     1300     1700   
                                           T        V       H0       H01     AOSYM     SMH    MOLCAS    ERIS     OPER   

 PROGRAMS   *        TOTAL       INT
 CPU TIMES  *         8.43      8.33
 REAL TIME  *        10.63 SEC
 DISK USED  *         1.47 GB      
 **********************************************************************************************************************************


 PROGRAM * RHF-SCF (CLOSED SHELL)       Authors: W. Meyer, H.-J. Werner


 NUMBER OF ELECTRONS:       7+    7-
 CONVERGENCE THRESHOLDS:    1.00E-10 (Density)    1.00E-13 (Energy)
 MAX. NUMBER OF ITERATIONS:      500
 INTERPOLATION TYPE:            DIIS
 INTERPOLATION STEPS:              2 (START)      1 (STEP)
 LEVEL SHIFTS:                  0.00 (CLOSED)  0.00 (OPEN) 



 Orbital guess generated from atomic densities. Full valence occupancy:    7   2   2   0

 Molecular orbital dump at record        2100.2

 Initial occupancy:   5   1   1   0

 ITERATION    DDIFF          GRAD             ENERGY        2-EL.EN.            DIPOLE MOMENTS         DIIS   ORB.
    1      0.000D+00      0.000D+00       -92.88975431    111.836855    0.00000    0.00000   -1.77310    0    start
    2      0.000D+00      0.697D-02       -92.89852328    111.002547    0.00000    0.00000   -0.89331    1    diag
    3      0.715D-02      0.623D-02       -92.91357610    111.535080    0.00000    0.00000   -1.30369    2    diag
    4      0.353D-02      0.530D-03       -92.91380998    111.493533    0.00000    0.00000   -1.29236    3    diag
    5      0.645D-03      0.115D-03       -92.91382348    111.504325    0.00000    0.00000   -1.29093    4    diag
    6      0.153D-03      0.310D-04       -92.91382433    111.499093    0.00000    0.00000   -1.29094    5    diag
    7      0.344D-04      0.111D-04       -92.91382441    111.500237    0.00000    0.00000   -1.29100    6    diag
    8      0.114D-04      0.235D-05       -92.91382442    111.500189    0.00000    0.00000   -1.29097    7    diag
    9      0.245D-05      0.271D-06       -92.91382442    111.500199    0.00000    0.00000   -1.29096    8    diag
   10      0.352D-06      0.334D-07       -92.91382442    111.500200    0.00000    0.00000   -1.29096    9    orth
   11      0.384D-07      0.475D-08       -92.91382442    111.500200    0.00000    0.00000   -1.29096    9    diag
   12      0.604D-08      0.438D-09       -92.91382442    111.500200    0.00000    0.00000   -1.29096    9    diag
   13      0.114D-08      0.564D-10       -92.91382442    111.500200    0.00000    0.00000   -1.29096    9    diag
   14      0.905D-10      0.696D-11       -92.91382442    111.500200    0.00000    0.00000   -1.29096    9    diag
   15      0.176D-10      0.274D-11       -92.91382442    111.500200    0.00000    0.00000   -1.29096    0    orth

 Final occupancy:   5   1   1   0

 !RHF STATE 1.1 Energy                -92.913824417843
 Nuclear energy                        23.87464134
 One-electron energy                 -172.53856568
 Two-electron energy                   55.75009992
 Virial quotient                       -1.00217364
 !RHF STATE 1.1 Dipole moment           0.00000000     0.00000000    -1.29096172
 Dipole moment /Debye                   0.00000000     0.00000000    -3.28108249

 Orbital energies:

         1.1          2.1          3.1          4.1          5.1          6.1          7.1
    -15.600377   -11.292231    -1.234424    -0.817911    -0.582887     0.020544     0.062644

         1.2          2.2          3.2
     -0.495677     0.063579     0.119238

         1.3          2.3          3.3
     -0.495677     0.063579     0.119238

         1.4          2.4
      0.225822     0.394532

 HOMO      1.2    -0.495677 =     -13.4881eV
 LUMO      6.1     0.020544 =       0.5590eV
 LUMO-HOMO         0.516221 =      14.0471eV


 **********************************************************************************************************************************
 DATASETS  * FILE   NREC   LENGTH (MB)   RECORD NAMES
              1      19      461.89       500      610      700      900      950      970     1000      129      960     1100   
                                          VAR    BASINP    GEOM    SYMINP    ZMAT    AOBASIS   BASIS     P2S    ABASIS      S 
                                         1400     1410     1200     1210     1080     1600     1650     1300     1700   
                                           T        V       H0       H01     AOSYM     SMH    MOLCAS    ERIS     OPER   

              2       4        3.06       700     1000      520     2100   
                                         GEOM     BASIS   MCVARS     RHF  

 PROGRAMS   *        TOTAL        HF       INT
 CPU TIMES  *        11.09      2.66      8.33
 REAL TIME  *        14.13 SEC
 DISK USED  *         1.47 GB      
 **********************************************************************************************************************************


 PROGRAM * CCSD (Closed-shell coupled cluster)     Authors: C. Hampel, H.-J. Werner, 1991, M. Deegan, P.J. Knowles, 1992


 Convergence thresholds:  THRVAR = 1.00D-08  THRDEN = 1.00D-12

 CCSD(T)     terms to be evaluated (factor= 1.000)


 Number of core orbitals:           2 (   2   0   0   0 )
 Number of closed-shell orbitals:   5 (   3   1   1   0 )
 Number of external orbitals:     199 (  76  48  48  27 )

 Molecular orbitals read from record     2100.2  Type=RHF/CANONICAL (state 1.1)

 Number of N-1 electron functions:               5
 Number of N-2 electron functions:              15
 Number of singly external CSFs:               324
 Number of doubly external CSFs:            129659
 Total number of CSFs:                      129984

 Length of J-op  integral file:               0.00 MB
 Length of K-op  integral file:               0.86 MB
 Length of 3-ext integral record:             0.00 MB

 Memory could be reduced to 15.89 Mwords without degradation in triples

 Integral transformation finished. Total CPU:   0.41 sec, npass=  1  Memory used:   1.90 MW

 Reference energy:                    -92.91382442

 MP2 singlet pair energy:              -0.23849438
 MP2 triplet pair energy:              -0.13231173
 MP2 correlation energy:               -0.37080611
 MP2 total energy:                    -93.28463053

 SCS-MP2 correlation energy:           -0.36852056   (PS=  1.200000  PT=  0.333333)
 SCS-MP2 total energy:                -93.28234497

 ITER.      SQ.NORM     CORR.ENERGY   TOTAL ENERGY   ENERGY CHANGE        DEN1      VAR(S)    VAR(P)  DIIS     TIME  TIME/IT
   1      1.11608202    -0.36935505   -93.28317947     0.00145106     0.01476874  0.26D-02  0.32D-02  1  1     0.89     0.51
   2      1.12540376    -0.36951075   -93.28333517    -0.00015570    -0.01022072  0.64D-04  0.41D-03  2  2     1.34     0.52
   3      1.13050150    -0.36973626   -93.28356067    -0.00022550    -0.00262300  0.14D-04  0.45D-04  3  3     1.78     0.52
   4      1.13263313    -0.36981580   -93.28364022    -0.00007955    -0.00074970  0.59D-06  0.51D-05  4  4     2.21     0.52
   5      1.13318263    -0.36981919   -93.28364360    -0.00000338    -0.00015655  0.75D-07  0.46D-06  5  5     2.66     0.52
   6      1.13329797    -0.36981662   -93.28364104     0.00000257    -0.00003038  0.10D-07  0.36D-07  6  6     3.11     0.52
   7      1.13330574    -0.36981833   -93.28364274    -0.00000171    -0.00000091  0.90D-09  0.31D-08  6  1     3.57     0.52
   8      1.13330743    -0.36981883   -93.28364325    -0.00000051    -0.00000043  0.10D-09  0.27D-09  6  2     4.00     0.52
   9      1.13330759    -0.36981890   -93.28364332    -0.00000007    -0.00000009  0.12D-10  0.17D-10  6  3     4.44     0.52
  10      1.13330745    -0.36981895   -93.28364337    -0.00000004     0.00000012  0.12D-11  0.17D-11  6  4     4.90     0.52
  11      1.13330738    -0.36981896   -93.28364338    -0.00000001     0.00000003  0.21D-12  0.14D-12  6  5     5.33     0.52
  12      1.13330732    -0.36981897   -93.28364339    -0.00000001     0.00000003  0.33D-13  0.25D-13  6  6     5.80     0.52
  13      1.13330728    -0.36981897   -93.28364339    -0.00000000     0.00000001  0.34D-14  0.62D-14  6  1     6.25     0.52
  14      1.13330726    -0.36981897   -93.28364339    -0.00000000     0.00000001  0.45D-15  0.58D-15  6  3     6.71     0.52
  15      1.13330726    -0.36981897   -93.28364339    -0.00000000     0.00000000  0.15D-16  0.40D-16  6  2     7.14     0.52
  16      1.13330726    -0.36981897   -93.28364339     0.00000000     0.00000000  0.31D-17  0.43D-17  6  4     7.57     0.52
  17      1.13330725    -0.36981897   -93.28364339    -0.00000000     0.00000000  0.59D-18  0.60D-18  6  5     8.03     0.52
  18      1.13330725    -0.36981897   -93.28364339    -0.00000000     0.00000000  0.53D-19  0.54D-19  6  6     8.45     0.52
  19      1.13330725    -0.36981897   -93.28364339    -0.00000000    -0.00000000  0.10D-19  0.71D-20  6  1     8.89     0.51

 Norm of t1 vector:      0.06498421      S-energy:    -0.00000000      T1 diagnostic:  0.01453091
                                                                       D1 diagnostic:  0.02926659

 Doubles amplitudes (print threshold =  0.500E-01):

         I         J         SYM. A    SYM. B    A         B      T(IJ, AB)

         4         4         2         2         3         3     -0.05111340
         5         5         3         3         3         3     -0.05111340


 Total CPU time for triples:      2.58 sec


 RESULTS
 =======

  Reference energy                    -92.913824417843
  CCSD singlet pair energy             -0.259203550660
  CCSD triplet pair energy             -0.110615418769
  CCSD correlation energy              -0.369818969430

  Triples (T) contribution             -0.019711541411
  Total correlation energy             -0.389530510841

  CCSD total energy                   -93.283643387273
  CCSD[T] energy                      -93.304205340870
  CCSD-T energy                       -93.302968145864
 !CCSD(T) total energy                -93.303354928684

 Timing summary (sec):

 STEP                 CPU(USER)    SYS     CPU(TOT)    WALL
 Transformation          0.42      0.16      0.58      0.77
 CCSD iterations         8.47      1.32      9.79      9.81
 Triples                 2.58      0.10      2.68      2.68

 Program statistics:

 Available memory in ccsd:               994999800
 Min. memory needed in ccsd:                524097
 Max. memory used in ccsd:                  626326
 Max. memory used in cckext:                818237 (19 integral passes)



 **********************************************************************************************************************************
 DATASETS  * FILE   NREC   LENGTH (MB)   RECORD NAMES
              1      20      504.87       500      610      700      900      950      970     1000      129      960     1100   
                                          VAR    BASINP    GEOM    SYMINP    ZMAT    AOBASIS   BASIS     P2S    ABASIS      S 
                                         1400     1410     1200     1210     1080     1600     1650     1300     1700     1380   
                                           T        V       H0       H01     AOSYM     SMH    MOLCAS    ERIS     OPER     JKOP   

              2       4        3.06       700     1000      520     2100   
                                         GEOM     BASIS   MCVARS     RHF  

 PROGRAMS   *        TOTAL   CCSD(T)        HF       INT
 CPU TIMES  *        22.62     11.52      2.66      8.33
 REAL TIME  *        28.72 SEC
 DISK USED  *         1.47 GB      
 **********************************************************************************************************************************

 CCSD(T)/aug-cc-pVQZ energy=    -93.303354928684

        CCSD(T)         HF-SCF  
    -93.30335493    -92.91382442
 **********************************************************************************************************************************
 Molpro calculation terminated
 Variable memory released
