
 Primary working directories    : /tmp/r2666/232478.maple
 Secondary working directories  : /tmp/r2666/232478.maple
 Wavefunction directory         : /ddn/home4/r2666/wfu/
 Main file repository           : /tmp/r2666/232478.maple/

 SHA1      : d5ffa45e93fdbca01ffc919aa182cfdae0147319
 NAME      : 2015.1.35
 ARCHNAME  : linux/x86_64
 FC        : /opt/intel/composer_xe_2015.1.133/bin/intel64/ifort
 BLASLIB   : -Wl,-_start-group /opt/intel/mkl/lib/intel64/libmkl_intel_ilp64.a /opt/intel/mkl/lib/intel64/libmkl_intel_thread.a /opt/intel/mkl/lib/intel64/libmkl_core.a -Wl,-_end-group
 id        : olemiss

 Nodes     nprocs
 cn064        1

 Using customized tuning parameters: mindgm=1; mindgv=20; mindgc=4; mindgr=1; noblas=0; minvec=7
 default implementation of scratch files=df  

 ***,hcn CCSD(T)/TZ-F12 QFF
 memory, 995, m;
 gthresh,energy=1.d-12,zero=1.d-22,oneint=1.d-22,twoint=1.d-22;
 gthresh,optgrad=1.d-8,optstep=1.d-8;
 nocompress;
 geomtyp=xyz
 bohr
 geometry={
 3
         32        32
 N        0.0000000000        0.0000000000        1.1310004776
 C        0.0000000000        0.0000000000       -1.0478491894
 H        0.0000000000        0.0000000000       -3.0802212703
 }
 
 basis=avqz
   {hf,maxit=500;accu,20;}
 {ccsd(t),nocheck,maxit=250;orbital,IGNORE_ERROR;}

 Variables initialized (889), CPU time= 0.00 sec
 Commands  initialized (702), CPU time= 0.00 sec, 572 directives.
 Default parameters read. Elapsed time= 0.05 sec

 Checking input...
 Passed
1


                                         ***  PROGRAM SYSTEM MOLPRO  ***
                                       Copyright, TTI GmbH Stuttgart, 2015
                                    Version 2015.1 linked Jul  9 2018 13:16:40


 **********************************************************************************************************************************
 LABEL *   hcn CCSD(T)/TZ-F12 QFF                                                        
  64 bit serial version                                                                  DATE: 06-Feb-20          TIME: 09:53:13  
 **********************************************************************************************************************************

 SHA1:             d5ffa45e93fdbca01ffc919aa182cfdae0147319
 **********************************************************************************************************************************

 THRESHOLDS:

 ZERO    =  1.00D-22  ONEINT  =  1.00D-22  TWOINT  =  1.00D-22  PREFAC  =  1.00D-14  LOCALI  =  1.00D-09  EORDER  =  1.00D-04
 ENERGY  =  1.00D-12  ETEST   =  0.00D+00  EDENS   =  0.00D+00  THRDEDEF=  1.00D-06  GRADIENT=  1.00D-02  STEP    =  1.00D-03
 ORBITAL =  1.00D-05  CIVEC   =  1.00D-05  COEFF   =  1.00D-04  PRINTCI =  5.00D-02  PUNCHCI =  9.90D+01  OPTGRAD =  3.00D-04
 OPTENERG=  1.00D-06  OPTSTEP =  3.00D-04  THRGRAD =  1.00D-10  COMPRESS=  1.00D-11  VARMIN  =  1.00D-07  VARMAX  =  1.00D-03
 THRDOUB =  0.00D+00  THRDIV  =  1.00D-05  THRRED  =  1.00D-07  THRPSP  =  1.00D+00  THRDC   =  1.00D-10  THRCS   =  1.00D-10
 THRNRM  =  1.00D-08  THREQ   =  0.00D+00  THRDE   =  1.00D+00  THRREF  =  1.00D-05  SPARFAC =  1.00D+00  THRDLP  =  1.00D-07
 THRDIA  =  1.00D-10  THRDLS  =  1.00D-07  THRGPS  =  0.00D+00  THRKEX  =  0.00D+00  THRDIS  =  2.00D-01  THRVAR  =  1.00D-10
 THRLOC  =  1.00D-06  THRGAP  =  1.00D-06  THRLOCT = -1.00D+00  THRGAPT = -1.00D+00  THRORB  =  1.00D-06  THRMLTP =  0.00D+00
 THRCPQCI=  1.00D-10  KEXTA   =  0.00D+00  THRCOARS=  0.00D+00  SYMTOL  =  1.00D-06  GRADTOL =  1.00D-06  THROVL  =  1.00D-08
 THRORTH =  1.00D-08  GRID    =  1.00D-06  GRIDMAX =  1.00D-03  DTMAX   =  0.00D+00  THROCCDE=  1.00D-01  THROCCDE=  1.00D-01



 THRESHOLDS:

 ZERO    =  1.00D-22  ONEINT  =  1.00D-22  TWOINT  =  1.00D-22  PREFAC  =  1.00D-14  LOCALI  =  1.00D-09  EORDER  =  1.00D-04
 ENERGY  =  1.00D-12  ETEST   =  0.00D+00  EDENS   =  0.00D+00  THRDEDEF=  1.00D-06  GRADIENT=  1.00D-02  STEP    =  1.00D-03
 ORBITAL =  1.00D-05  CIVEC   =  1.00D-05  COEFF   =  1.00D-04  PRINTCI =  5.00D-02  PUNCHCI =  9.90D+01  OPTGRAD =  1.00D-08
 OPTENERG=  1.00D-06  OPTSTEP =  1.00D-08  THRGRAD =  1.00D-10  COMPRESS=  1.00D-11  VARMIN  =  1.00D-07  VARMAX  =  1.00D-03
 THRDOUB =  0.00D+00  THRDIV  =  1.00D-05  THRRED  =  1.00D-07  THRPSP  =  1.00D+00  THRDC   =  1.00D-10  THRCS   =  1.00D-10
 THRNRM  =  1.00D-08  THREQ   =  0.00D+00  THRDE   =  1.00D+00  THRREF  =  1.00D-05  SPARFAC =  1.00D+00  THRDLP  =  1.00D-07
 THRDIA  =  1.00D-10  THRDLS  =  1.00D-07  THRGPS  =  0.00D+00  THRKEX  =  0.00D+00  THRDIS  =  2.00D-01  THRVAR  =  1.00D-10
 THRLOC  =  1.00D-06  THRGAP  =  1.00D-06  THRLOCT = -1.00D+00  THRGAPT = -1.00D+00  THRORB  =  1.00D-06  THRMLTP =  0.00D+00
 THRCPQCI=  1.00D-10  KEXTA   =  0.00D+00  THRCOARS=  0.00D+00  SYMTOL  =  1.00D-06  GRADTOL =  1.00D-06  THROVL  =  1.00D-08
 THRORTH =  1.00D-08  GRID    =  1.00D-06  GRIDMAX =  1.00D-03  DTMAX   =  0.00D+00  THROCCDE=  1.00D-01  THROCCDE=  1.00D-01



 Input parameters for SORTINT:

 COMPRESS =    0.000000
 C_FINAL  =    1.000000
 DEBUG    =   -1.000000
 C_SORT1  =    0.000000
 C_SEWARD =    0.000000
 THRESH   =    0.000000
 IO       =  molpro                                                          
 SPRI     =    0.000000
 SETTING GEOMTYP        =    XYZ
 ZUNIT=BOHR
 

 Variable memory set to  995000000 words,  buffer space   230000 words

 SETTING BASIS          =    AVQZ


 Recomputing integrals since basis changed


 Using spherical harmonics

 Library entry N      S aug-cc-pVQZ          selected for orbital group  1
 Library entry N      P aug-cc-pVQZ          selected for orbital group  1
 Library entry N      D aug-cc-pVQZ          selected for orbital group  1
 Library entry N      F aug-cc-pVQZ          selected for orbital group  1
 Library entry N      G aug-cc-pVQZ          selected for orbital group  1
 Library entry C      S aug-cc-pVQZ          selected for orbital group  2
 Library entry C      P aug-cc-pVQZ          selected for orbital group  2
 Library entry C      D aug-cc-pVQZ          selected for orbital group  2
 Library entry C      F aug-cc-pVQZ          selected for orbital group  2
 Library entry C      G aug-cc-pVQZ          selected for orbital group  2
 Library entry H      S aug-cc-pVQZ          selected for orbital group  3
 Library entry H      P aug-cc-pVQZ          selected for orbital group  3
 Library entry H      D aug-cc-pVQZ          selected for orbital group  3
 Library entry H      F aug-cc-pVQZ          selected for orbital group  3


 PROGRAM * SEWARD (Integral evaluation for generally contracted gaussian basis sets)     Author: Roland Lindh, 1990

 Geometry written to block  1 of record 700


 Point group  C2v 



 ATOMIC COORDINATES

 NR  ATOM    CHARGE       X              Y              Z

   1  N       7.00    0.000000000    0.000000000    1.131000478
   2  C       6.00    0.000000000    0.000000000   -1.047849189
   3  H       1.00    0.000000000    0.000000000   -3.080221270

 Bond lengths in Bohr (Angstrom)

 1-2  2.178849667  2-3  2.032372081
     ( 1.152997590)     ( 1.075484989)

 Bond angles

  1-2-3  180.00000000

 NUCLEAR CHARGE:                   14
 NUMBER OF PRIMITIVE AOS:         293
 NUMBER OF SYMMETRY AOS:          234
 NUMBER OF CONTRACTIONS:          206   (  81A1  +  49B1  +  49B2  +  27A2  )
 NUMBER OF CORE ORBITALS:           2   (   2A1  +   0B1  +   0B2  +   0A2  )
 NUMBER OF VALENCE ORBITALS:        9   (   5A1  +   2B1  +   2B2  +   0A2  )


 NUCLEAR REPULSION ENERGY   23.89066742

 EXTRA SYMMETRY OF AOS IN SYMMETRY 1:   1 1 1 1 1 1 1 1 1 1   1 1 2 1 2 1 2 1 2 1   2 1 2 1 2 1 3 2 1 3   2 1 1 1 1 1 1 1 1 1
                                        1 1 1 2 1 2 1 2 1 2   1 2 1 2 1 2 1 3 2 1   3 2 1 1 1 1 1 1 1 1   1 1 2 1 2 1 2 1 2 1
                                        2
 EXTRA SYMMETRY OF AOS IN SYMMETRY 2:   1 1 1 1 1 1 1 1 1 1   2 1 2 1 2 1 2 1 2 1   1 1 1 1 1 1 1 1 1 2   1 2 1 2 1 2 1 2 1 1
                                        1 1 1 1 1 1 2 1 2
 EXTRA SYMMETRY OF AOS IN SYMMETRY 3:   1 1 1 1 1 1 1 1 1 1   2 1 2 1 2 1 2 1 2 1   1 1 1 1 1 1 1 1 1 2   1 2 1 2 1 2 1 2 1 1
                                        1 1 1 1 1 1 2 1 2
 EXTRA SYMMETRY OF AOS IN SYMMETRY 4:   1 1 1 1 1 1 1 1 2 1   2 1 1 1 1 1 1 1 1 2   1 2 1 1 1 1 1

 Eigenvalues of metric

         1 0.180E-04 0.394E-04 0.758E-04 0.280E-03 0.401E-03 0.435E-03 0.527E-03 0.824E-03
         2 0.400E-03 0.968E-03 0.304E-02 0.363E-02 0.484E-02 0.651E-02 0.875E-02 0.107E-01
         3 0.400E-03 0.968E-03 0.304E-02 0.363E-02 0.484E-02 0.651E-02 0.875E-02 0.107E-01
         4 0.458E-02 0.129E-01 0.320E-01 0.580E-01 0.893E-01 0.142E+00 0.198E+00 0.230E+00


 Contracted 2-electron integrals neglected if value below      1.0D-22

       51224264. INTEGRALS WRITTEN OUT IN   12509 BLOCKS ON RECORD 1290 OF FILE 1


 NUMBER OF SORTED TWO-ELECTRON INTEGRALS:   58298162.     BUFFER LENGTH:  32768
 NUMBER OF SEGMENTS:   4  SEGMENT LENGTH:   15999501      RECORD LENGTH: 524288

 Memory used in sort:      16.56 MW

 SORT1 READ    51224264. AND WROTE    51979554. INTEGRALS IN    150 RECORDS. CPU TIME:     2.02 SEC, REAL TIME:     2.53 SEC
 SORT2 READ    51979554. AND WROTE    58298162. INTEGRALS IN      4 RECORDS. CPU TIME:     1.20 SEC, REAL TIME:     1.58 SEC

 FILE SIZES:   FILE 1:   840.7 MBYTE,  FILE 4:   629.2 MBYTE,   TOTAL:   1469.8 MBYTE

 OPERATOR DM      FOR CENTER  0  COORDINATES:    0.000000    0.000000    0.000000


 **********************************************************************************************************************************
 DATASETS  * FILE   NREC   LENGTH (MB)   RECORD NAMES
              1      19      461.86       500      610      700      900      950      970     1000      129      960     1100   
                                          VAR    BASINP    GEOM    SYMINP    ZMAT    AOBASIS   BASIS     P2S    ABASIS      S 
                                         1400     1410     1200     1210     1080     1600     1650     1300     1700   
                                           T        V       H0       H01     AOSYM     SMH    MOLCAS    ERIS     OPER   

 PROGRAMS   *        TOTAL       INT
 CPU TIMES  *        13.59     13.51
 REAL TIME  *        15.88 SEC
 DISK USED  *         1.47 GB      
 **********************************************************************************************************************************


 PROGRAM * RHF-SCF (CLOSED SHELL)       Authors: W. Meyer, H.-J. Werner


 NUMBER OF ELECTRONS:       7+    7-
 CONVERGENCE THRESHOLDS:    1.00E-10 (Density)    1.00E-13 (Energy)
 MAX. NUMBER OF ITERATIONS:      500
 INTERPOLATION TYPE:            DIIS
 INTERPOLATION STEPS:              2 (START)      1 (STEP)
 LEVEL SHIFTS:                  0.00 (CLOSED)  0.00 (OPEN) 



 Orbital guess generated from atomic densities. Full valence occupancy:    7   2   2   0

 Molecular orbital dump at record        2100.2

 Initial occupancy:   5   1   1   0

 ITERATION    DDIFF          GRAD             ENERGY        2-EL.EN.            DIPOLE MOMENTS         DIIS   ORB.
    1      0.000D+00      0.000D+00       -92.88957742    111.938700    0.00000    0.00000   -1.79550    0    start
    2      0.000D+00      0.711D-02       -92.89860581    111.047793    0.00000    0.00000   -0.90139    1    diag
    3      0.723D-02      0.634D-02       -92.91415438    111.594665    0.00000    0.00000   -1.31333    2    diag
    4      0.358D-02      0.518D-03       -92.91438183    111.558031    0.00000    0.00000   -1.30214    3    diag
    5      0.626D-03      0.113D-03       -92.91439533    111.567403    0.00000    0.00000   -1.30064    4    diag
    6      0.152D-03      0.307D-04       -92.91439615    111.562530    0.00000    0.00000   -1.30071    5    diag
    7      0.335D-04      0.109D-04       -92.91439622    111.563747    0.00000    0.00000   -1.30076    6    diag
    8      0.112D-04      0.231D-05       -92.91439623    111.563691    0.00000    0.00000   -1.30073    7    diag
    9      0.235D-05      0.264D-06       -92.91439623    111.563700    0.00000    0.00000   -1.30072    8    diag
   10      0.339D-06      0.323D-07       -92.91439623    111.563701    0.00000    0.00000   -1.30072    9    orth
   11      0.371D-07      0.459D-08       -92.91439623    111.563701    0.00000    0.00000   -1.30072    9    diag
   12      0.584D-08      0.436D-09       -92.91439623    111.563701    0.00000    0.00000   -1.30072    9    diag
   13      0.110D-08      0.570D-10       -92.91439623    111.563701    0.00000    0.00000   -1.30072    9    diag
   14      0.884D-10      0.692D-11       -92.91439623    111.563701    0.00000    0.00000   -1.30072    0    orth

 Final occupancy:   5   1   1   0

 !RHF STATE 1.1 Energy                -92.914396226795
 Nuclear energy                        23.89066742
 One-electron energy                 -172.58691403
 Two-electron energy                   55.78185038
 Virial quotient                       -1.00222097
 !RHF STATE 1.1 Dipole moment           0.00000000     0.00000000    -1.30072490
 Dipole moment /Debye                   0.00000000     0.00000000    -3.30589640

 Orbital energies:

         1.1          2.1          3.1          4.1          5.1          6.1          7.1
    -15.598185   -11.291892    -1.236497    -0.809339    -0.581944     0.020494     0.062601

         1.2          2.2          3.2
     -0.496875     0.063591     0.119776

         1.3          2.3          3.3
     -0.496875     0.063591     0.119776

         1.4          2.4
      0.225925     0.394819

 HOMO      1.2    -0.496875 =     -13.5207eV
 LUMO      6.1     0.020494 =       0.5577eV
 LUMO-HOMO         0.517369 =      14.0783eV


 **********************************************************************************************************************************
 DATASETS  * FILE   NREC   LENGTH (MB)   RECORD NAMES
              1      19      461.86       500      610      700      900      950      970     1000      129      960     1100   
                                          VAR    BASINP    GEOM    SYMINP    ZMAT    AOBASIS   BASIS     P2S    ABASIS      S 
                                         1400     1410     1200     1210     1080     1600     1650     1300     1700   
                                           T        V       H0       H01     AOSYM     SMH    MOLCAS    ERIS     OPER   

              2       4        3.06       700     1000      520     2100   
                                         GEOM     BASIS   MCVARS     RHF  

 PROGRAMS   *        TOTAL        HF       INT
 CPU TIMES  *        16.47      2.88     13.51
 REAL TIME  *        19.67 SEC
 DISK USED  *         1.47 GB      
 **********************************************************************************************************************************


 PROGRAM * CCSD (Closed-shell coupled cluster)     Authors: C. Hampel, H.-J. Werner, 1991, M. Deegan, P.J. Knowles, 1992


 Convergence thresholds:  THRVAR = 1.00D-08  THRDEN = 1.00D-12

 CCSD(T)     terms to be evaluated (factor= 1.000)


 Number of core orbitals:           2 (   2   0   0   0 )
 Number of closed-shell orbitals:   5 (   3   1   1   0 )
 Number of external orbitals:     199 (  76  48  48  27 )

 Molecular orbitals read from record     2100.2  Type=RHF/CANONICAL (state 1.1)

 Number of N-1 electron functions:               5
 Number of N-2 electron functions:              15
 Number of singly external CSFs:               324
 Number of doubly external CSFs:            129659
 Total number of CSFs:                      129984

 Length of J-op  integral file:               0.00 MB
 Length of K-op  integral file:               0.86 MB
 Length of 3-ext integral record:             0.00 MB

 Memory could be reduced to 15.89 Mwords without degradation in triples

 Integral transformation finished. Total CPU:   0.63 sec, npass=  1  Memory used:   1.90 MW

 Reference energy:                    -92.91439623

 MP2 singlet pair energy:              -0.23809815
 MP2 triplet pair energy:              -0.13193217
 MP2 correlation energy:               -0.37003032
 MP2 total energy:                    -93.28442655

 SCS-MP2 correlation energy:           -0.36780891   (PS=  1.200000  PT=  0.333333)
 SCS-MP2 total energy:                -93.28220514

 ITER.      SQ.NORM     CORR.ENERGY   TOTAL ENERGY   ENERGY CHANGE        DEN1      VAR(S)    VAR(P)  DIIS     TIME  TIME/IT
   1      1.11583262    -0.36885702   -93.28325325     0.00117330     0.01433281  0.26D-02  0.31D-02  1  1     1.23     0.70
   2      1.12509536    -0.36906926   -93.28346548    -0.00021223    -0.01013658  0.62D-04  0.41D-03  2  2     1.88     0.72
   3      1.13016639    -0.36929686   -93.28369309    -0.00022760    -0.00261839  0.14D-04  0.44D-04  3  3     2.53     0.73
   4      1.13226010    -0.36937454   -93.28377076    -0.00007768    -0.00074099  0.60D-06  0.50D-05  4  4     3.17     0.73
   5      1.13279591    -0.36937854   -93.28377477    -0.00000400    -0.00015271  0.85D-07  0.45D-06  5  5     3.83     0.73
   6      1.13291102    -0.36937592   -93.28377215     0.00000262    -0.00003049  0.96D-08  0.36D-07  6  6     4.47     0.73
   7      1.13291913    -0.36937748   -93.28377371    -0.00000156    -0.00000105  0.89D-09  0.29D-08  6  1     5.14     0.73
   8      1.13292088    -0.36937795   -93.28377418    -0.00000047    -0.00000045  0.11D-09  0.26D-09  6  2     5.76     0.73
   9      1.13292108    -0.36937802   -93.28377425    -0.00000007    -0.00000010  0.11D-10  0.17D-10  6  3     6.38     0.73
  10      1.13292094    -0.36937806   -93.28377429    -0.00000004     0.00000012  0.11D-11  0.16D-11  6  4     7.01     0.73
  11      1.13292088    -0.36937808   -93.28377430    -0.00000001     0.00000003  0.15D-12  0.15D-12  6  5     7.67     0.74
  12      1.13292082    -0.36937808   -93.28377431    -0.00000000     0.00000003  0.18D-13  0.25D-13  6  6     8.34     0.74
  13      1.13292078    -0.36937808   -93.28377431    -0.00000000     0.00000001  0.17D-14  0.57D-14  6  1     8.99     0.74
  14      1.13292076    -0.36937809   -93.28377431    -0.00000000     0.00000001  0.18D-15  0.62D-15  6  3     9.62     0.74
  15      1.13292076    -0.36937809   -93.28377431    -0.00000000     0.00000000  0.11D-16  0.39D-16  6  2    10.26     0.74
  16      1.13292076    -0.36937809   -93.28377431     0.00000000     0.00000000  0.13D-17  0.43D-17  6  4    10.87     0.74
  17      1.13292076    -0.36937809   -93.28377431    -0.00000000     0.00000000  0.32D-18  0.59D-18  6  5    11.51     0.74
  18      1.13292076    -0.36937809   -93.28377431    -0.00000000     0.00000000  0.31D-19  0.46D-19  6  6    12.12     0.74
  19      1.13292076    -0.36937809   -93.28377431    -0.00000000     0.00000000  0.37D-20  0.50D-20  6  1    12.78     0.74
  20      1.13292076    -0.36937809   -93.28377431     0.00000000     0.00000000  0.10D-20  0.12D-20  6  3    13.41     0.74

 Norm of t1 vector:      0.06443284      S-energy:    -0.00000000      T1 diagnostic:  0.01440762
                                                                       D1 diagnostic:  0.02889144

 Doubles amplitudes (print threshold =  0.500E-01):

         I         J         SYM. A    SYM. B    A         B      T(IJ, AB)

         4         4         2         2         3         3     -0.05050342
         5         5         3         3         3         3     -0.05050342


 Total CPU time for triples:      4.60 sec


 RESULTS
 =======

  Reference energy                    -92.914396226795
  CCSD singlet pair energy             -0.258889250867
  CCSD triplet pair energy             -0.110488834298
  CCSD correlation energy              -0.369378085166

  Triples (T) contribution             -0.019601396041
  Total correlation energy             -0.388979481207

  CCSD total energy                   -93.283774311961
  CCSD[T] energy                      -93.304209609617
  CCSD-T energy                       -93.302996015268
 !CCSD(T) total energy                -93.303375708001

 Timing summary (sec):

 STEP                 CPU(USER)    SYS     CPU(TOT)    WALL
 Transformation          0.64      0.16      0.80      0.79
 CCSD iterations        12.77      1.97     14.74     14.76
 Triples                 4.60      0.13      4.73      4.72

 Program statistics:

 Available memory in ccsd:               994999800
 Min. memory needed in ccsd:                524097
 Max. memory used in ccsd:                  626326
 Max. memory used in cckext:                818237 (20 integral passes)



 **********************************************************************************************************************************
 DATASETS  * FILE   NREC   LENGTH (MB)   RECORD NAMES
              1      20      504.85       500      610      700      900      950      970     1000      129      960     1100   
                                          VAR    BASINP    GEOM    SYMINP    ZMAT    AOBASIS   BASIS     P2S    ABASIS      S 
                                         1400     1410     1200     1210     1080     1600     1650     1300     1700     1380   
                                           T        V       H0       H01     AOSYM     SMH    MOLCAS    ERIS     OPER     JKOP   

              2       4        3.06       700     1000      520     2100   
                                         GEOM     BASIS   MCVARS     RHF  

 PROGRAMS   *        TOTAL   CCSD(T)        HF       INT
 CPU TIMES  *        34.50     18.02      2.88     13.51
 REAL TIME  *        39.99 SEC
 DISK USED  *         1.47 GB      
 **********************************************************************************************************************************

 CCSD(T)/aug-cc-pVQZ energy=    -93.303375708001

        CCSD(T)         HF-SCF  
    -93.30337571    -92.91439623
 **********************************************************************************************************************************
 Molpro calculation terminated
 Variable memory released
