
 Primary working directories    : /tmp/r2666/232721.maple
 Secondary working directories  : /tmp/r2666/232721.maple
 Wavefunction directory         : /ddn/home4/r2666/wfu/
 Main file repository           : /tmp/r2666/232721.maple/

 SHA1      : d5ffa45e93fdbca01ffc919aa182cfdae0147319
 NAME      : 2015.1.35
 ARCHNAME  : linux/x86_64
 FC        : /opt/intel/composer_xe_2015.1.133/bin/intel64/ifort
 BLASLIB   : -Wl,-_start-group /opt/intel/mkl/lib/intel64/libmkl_intel_ilp64.a /opt/intel/mkl/lib/intel64/libmkl_intel_thread.a /opt/intel/mkl/lib/intel64/libmkl_core.a -Wl,-_end-group
 id        : olemiss

 Nodes     nprocs
 cn078        1

 Using customized tuning parameters: mindgm=1; mindgv=20; mindgc=4; mindgr=1; noblas=0; minvec=7
 default implementation of scratch files=df  

 ***,hcn CCSD(T)/TZ-F12 QFF
 memory, 995, m;
 gthresh,energy=1.d-12,zero=1.d-22,oneint=1.d-22,twoint=1.d-22;
 gthresh,optgrad=1.d-8,optstep=1.d-8;
 nocompress;
 geomtyp=xyz
 bohr
 geometry={
 3
         55        55
 N        0.0000000000        0.0000000000        1.1498977375
 C        0.0000000000        0.0000000000       -1.0667464493
 H        0.0000000000        0.0000000000       -3.0802212703
 }
 
 basis={
 default=aug-cc-pvtz
 s,C,8236.0,1235.0,280.8, 79.27,25.59, 8.997,3.319
 s,C,0.9059,0.3643,0.1285000
 p,C,56.0,18.71,4.133,0.2827,0.3827,0.1209
 d,C,30.0,10.0,3.3,1.097,0.318
 f,C,7.0,2.3,0.7610
 s,N,11420.0,1712.0,389.3,110.0,35.57,12.54,4.644
 s,N,1.293,0.5118,0.1787
 p,N,79.89,26.63,5.948,1.742,0.555,0.1725
 d,N,45.0,15.0,5.0,1.654,0.469
 f,N,9.9,3.3,1.093
 s,O,15330.0,2299.0,522.4,147.3,47.55,16.76,6.207
 s,O,1.752,0.6882,0.2384
 p,O,103.5,34.46,7.749,2.28,0.7156,0.214
 d,O,63.0,21.0,7.0,2.314,0.645
 f,O,12.9,4.3,1.428
 s,mg,164900.0,24710.0,5628.0,1596.0,521.0;
 s,mg,188.0,73.01,29.90,12.54,4.306,1.826;
 s,mg,0.7417,0.0761,0.145,0.033,0.0129;
 p,mg,950.70,316.90,74.86,23.72,8.669,3.363;
 p,mg,1.310,0.4911,0.2364,0.08733,0.03237,0.00745;
 d,mg,1.601,0.686,0.126,0.294,0.0468;
 f,mg,1.372,0.588,0.094,0.252;
 }
   {hf,maxit=500;accu,20;}
 {ccsd(t),nocheck,maxit=250;orbital,IGNORE_ERROR;}

 Variables initialized (889), CPU time= 0.00 sec
 Commands  initialized (702), CPU time= 0.00 sec, 572 directives.
 Default parameters read. Elapsed time= 0.04 sec

 Checking input...
 Passed
1


                                         ***  PROGRAM SYSTEM MOLPRO  ***
                                       Copyright, TTI GmbH Stuttgart, 2015
                                    Version 2015.1 linked Jul  9 2018 13:16:40


 **********************************************************************************************************************************
 LABEL *   hcn CCSD(T)/TZ-F12 QFF                                                        
  64 bit serial version                                                                  DATE: 06-Feb-20          TIME: 09:55:05  
 **********************************************************************************************************************************

 SHA1:             d5ffa45e93fdbca01ffc919aa182cfdae0147319
 **********************************************************************************************************************************

 THRESHOLDS:

 ZERO    =  1.00D-22  ONEINT  =  1.00D-22  TWOINT  =  1.00D-22  PREFAC  =  1.00D-14  LOCALI  =  1.00D-09  EORDER  =  1.00D-04
 ENERGY  =  1.00D-12  ETEST   =  0.00D+00  EDENS   =  0.00D+00  THRDEDEF=  1.00D-06  GRADIENT=  1.00D-02  STEP    =  1.00D-03
 ORBITAL =  1.00D-05  CIVEC   =  1.00D-05  COEFF   =  1.00D-04  PRINTCI =  5.00D-02  PUNCHCI =  9.90D+01  OPTGRAD =  3.00D-04
 OPTENERG=  1.00D-06  OPTSTEP =  3.00D-04  THRGRAD =  1.00D-10  COMPRESS=  1.00D-11  VARMIN  =  1.00D-07  VARMAX  =  1.00D-03
 THRDOUB =  0.00D+00  THRDIV  =  1.00D-05  THRRED  =  1.00D-07  THRPSP  =  1.00D+00  THRDC   =  1.00D-10  THRCS   =  1.00D-10
 THRNRM  =  1.00D-08  THREQ   =  0.00D+00  THRDE   =  1.00D+00  THRREF  =  1.00D-05  SPARFAC =  1.00D+00  THRDLP  =  1.00D-07
 THRDIA  =  1.00D-10  THRDLS  =  1.00D-07  THRGPS  =  0.00D+00  THRKEX  =  0.00D+00  THRDIS  =  2.00D-01  THRVAR  =  1.00D-10
 THRLOC  =  1.00D-06  THRGAP  =  1.00D-06  THRLOCT = -1.00D+00  THRGAPT = -1.00D+00  THRORB  =  1.00D-06  THRMLTP =  0.00D+00
 THRCPQCI=  1.00D-10  KEXTA   =  0.00D+00  THRCOARS=  0.00D+00  SYMTOL  =  1.00D-06  GRADTOL =  1.00D-06  THROVL  =  1.00D-08
 THRORTH =  1.00D-08  GRID    =  1.00D-06  GRIDMAX =  1.00D-03  DTMAX   =  0.00D+00  THROCCDE=  1.00D-01  THROCCDE=  1.00D-01



 THRESHOLDS:

 ZERO    =  1.00D-22  ONEINT  =  1.00D-22  TWOINT  =  1.00D-22  PREFAC  =  1.00D-14  LOCALI  =  1.00D-09  EORDER  =  1.00D-04
 ENERGY  =  1.00D-12  ETEST   =  0.00D+00  EDENS   =  0.00D+00  THRDEDEF=  1.00D-06  GRADIENT=  1.00D-02  STEP    =  1.00D-03
 ORBITAL =  1.00D-05  CIVEC   =  1.00D-05  COEFF   =  1.00D-04  PRINTCI =  5.00D-02  PUNCHCI =  9.90D+01  OPTGRAD =  1.00D-08
 OPTENERG=  1.00D-06  OPTSTEP =  1.00D-08  THRGRAD =  1.00D-10  COMPRESS=  1.00D-11  VARMIN  =  1.00D-07  VARMAX  =  1.00D-03
 THRDOUB =  0.00D+00  THRDIV  =  1.00D-05  THRRED  =  1.00D-07  THRPSP  =  1.00D+00  THRDC   =  1.00D-10  THRCS   =  1.00D-10
 THRNRM  =  1.00D-08  THREQ   =  0.00D+00  THRDE   =  1.00D+00  THRREF  =  1.00D-05  SPARFAC =  1.00D+00  THRDLP  =  1.00D-07
 THRDIA  =  1.00D-10  THRDLS  =  1.00D-07  THRGPS  =  0.00D+00  THRKEX  =  0.00D+00  THRDIS  =  2.00D-01  THRVAR  =  1.00D-10
 THRLOC  =  1.00D-06  THRGAP  =  1.00D-06  THRLOCT = -1.00D+00  THRGAPT = -1.00D+00  THRORB  =  1.00D-06  THRMLTP =  0.00D+00
 THRCPQCI=  1.00D-10  KEXTA   =  0.00D+00  THRCOARS=  0.00D+00  SYMTOL  =  1.00D-06  GRADTOL =  1.00D-06  THROVL  =  1.00D-08
 THRORTH =  1.00D-08  GRID    =  1.00D-06  GRIDMAX =  1.00D-03  DTMAX   =  0.00D+00  THROCCDE=  1.00D-01  THROCCDE=  1.00D-01



 Input parameters for SORTINT:

 COMPRESS =    0.000000
 C_FINAL  =    1.000000
 DEBUG    =   -1.000000
 C_SORT1  =    0.000000
 C_SEWARD =    0.000000
 THRESH   =    0.000000
 IO       =  molpro                                                          
 SPRI     =    0.000000
 SETTING GEOMTYP        =    XYZ
 ZUNIT=BOHR
 

 Variable memory set to  995000000 words,  buffer space   230000 words

 SETTING BASIS          =    USERDEF


 Recomputing integrals since basis changed


 Using spherical harmonics

 Library entry H      S aug-cc-pVTZ          selected for orbital group  3
 Library entry H      P aug-cc-pVTZ          selected for orbital group  3
 Library entry H      D aug-cc-pVTZ          selected for orbital group  3


 PROGRAM * SEWARD (Integral evaluation for generally contracted gaussian basis sets)     Author: Roland Lindh, 1990

 Geometry written to block  1 of record 700


 Point group  C2v 



 ATOMIC COORDINATES

 NR  ATOM    CHARGE       X              Y              Z

   1  N       7.00    0.000000000    0.000000000    1.149897737
   2  C       6.00    0.000000000    0.000000000   -1.066746449
   3  H       1.00    0.000000000    0.000000000   -3.080221270

 Bond lengths in Bohr (Angstrom)

 1-2  2.216644187  2-3  2.013474821
     ( 1.172997588)     ( 1.065484990)

 Bond angles

  1-2-3  180.00000000

 NUCLEAR CHARGE:                   14
 NUMBER OF PRIMITIVE AOS:         203
 NUMBER OF SYMMETRY AOS:          173
 NUMBER OF CONTRACTIONS:          171   (  75A1  +  39B1  +  39B2  +  18A2  )
 NUMBER OF CORE ORBITALS:           2   (   2A1  +   0B1  +   0B2  +   0A2  )
 NUMBER OF VALENCE ORBITALS:        9   (   5A1  +   2B1  +   2B2  +   0A2  )


 NUCLEAR REPULSION ENERGY   23.58228339

 EXTRA SYMMETRY OF AOS IN SYMMETRY 1:   1 1 1 1 1 1 1 1 1 1   1 1 1 1 1 1 1 2 1 2   1 2 1 2 1 2 1 2 1 2   1 2 1 1 1 1 1 1 1 1
                                        1 1 1 1 1 1 1 1 1 2   1 2 1 2 1 2 1 2 1 2   1 2 1 2 1 1 1 1 1 1   1 1 2 1 2
 EXTRA SYMMETRY OF AOS IN SYMMETRY 2:   1 1 1 1 1 1 1 1 1 1   1 1 2 1 2 1 2 1 1 1   1 1 1 1 1 1 1 1 1 2   1 2 1 2 1 1 1 1 1
 EXTRA SYMMETRY OF AOS IN SYMMETRY 3:   1 1 1 1 1 1 1 1 1 1   1 1 2 1 2 1 2 1 1 1   1 1 1 1 1 1 1 1 1 2   1 2 1 2 1 1 1 1 1

 Eigenvalues of metric

         1 0.248E-03 0.576E-03 0.941E-03 0.139E-02 0.321E-02 0.769E-02 0.101E-01 0.133E-01
         2 0.552E-02 0.162E-01 0.234E-01 0.355E-01 0.967E-01 0.114E+00 0.126E+00 0.189E+00
         3 0.552E-02 0.162E-01 0.234E-01 0.355E-01 0.967E-01 0.114E+00 0.126E+00 0.189E+00
         4 0.125E+00 0.140E+00 0.200E+00 0.257E+00 0.316E+00 0.379E+00 0.486E+00 0.604E+00


 Contracted 2-electron integrals neglected if value below      1.0D-22

       21661293. INTEGRALS WRITTEN OUT IN    5290 BLOCKS ON RECORD 1290 OF FILE 1


 NUMBER OF SORTED TWO-ELECTRON INTEGRALS:   28272141.     BUFFER LENGTH:  32768
 NUMBER OF SEGMENTS:   2  SEGMENT LENGTH:   15998211      RECORD LENGTH: 524288

 Memory used in sort:      16.56 MW

 SORT1 READ    21661293. AND WROTE    22057901. INTEGRALS IN     64 RECORDS. CPU TIME:     0.46 SEC, REAL TIME:     0.60 SEC
 SORT2 READ    22057901. AND WROTE    28272141. INTEGRALS IN      2 RECORDS. CPU TIME:     0.38 SEC, REAL TIME:     0.48 SEC

 FILE SIZES:   FILE 1:   367.3 MBYTE,  FILE 4:   268.5 MBYTE,   TOTAL:    635.8 MBYTE

 OPERATOR DM      FOR CENTER  0  COORDINATES:    0.000000    0.000000    0.000000


 **********************************************************************************************************************************
 DATASETS  * FILE   NREC   LENGTH (MB)   RECORD NAMES
              1      19      212.99       500      610      700      900      950      970     1000      129      960     1100   
                                          VAR    BASINP    GEOM    SYMINP    ZMAT    AOBASIS   BASIS     P2S    ABASIS      S 
                                         1400     1410     1200     1210     1080     1600     1650     1300     1700   
                                           T        V       H0       H01     AOSYM     SMH    MOLCAS    ERIS     OPER   

 PROGRAMS   *        TOTAL       INT
 CPU TIMES  *         3.08      3.01
 REAL TIME  *         4.04 SEC
 DISK USED  *       636.11 MB      
 **********************************************************************************************************************************


 PROGRAM * RHF-SCF (CLOSED SHELL)       Authors: W. Meyer, H.-J. Werner


 NUMBER OF ELECTRONS:       7+    7-
 CONVERGENCE THRESHOLDS:    1.00E-10 (Density)    1.00E-13 (Energy)
 MAX. NUMBER OF ITERATIONS:      500
 INTERPOLATION TYPE:            DIIS
 INTERPOLATION STEPS:              2 (START)      1 (STEP)
 LEVEL SHIFTS:                  0.00 (CLOSED)  0.00 (OPEN) 



 Orbital guess generated from atomic densities. Full valence occupancy:    7   2   2   0

 Molecular orbital dump at record        2100.2

 Initial occupancy:   5   1   1   0

 ITERATION    DDIFF          GRAD             ENERGY        2-EL.EN.            DIPOLE MOMENTS         DIIS   ORB.
    1      0.000D+00      0.000D+00       -92.76916694    110.965980    0.00000    0.00000   -2.04135    0    start
    2      0.000D+00      0.902D-02       -92.78016429    109.360332    0.00000    0.00000   -0.91947    1    diag
    3      0.353D-01      0.804D-02       -92.80332317    110.281039    0.00000    0.00000   -1.45287    2    diag
    4      0.122D-01      0.581D-03       -92.80358394    110.222318    0.00000    0.00000   -1.44559    3    diag
    5      0.192D-02      0.135D-03       -92.80359940    110.233908    0.00000    0.00000   -1.44423    4    diag
    6      0.562D-03      0.352D-04       -92.80360042    110.228940    0.00000    0.00000   -1.44434    5    diag
    7      0.564D-04      0.127D-04       -92.80360053    110.229846    0.00000    0.00000   -1.44444    6    diag
    8      0.176D-04      0.260D-05       -92.80360053    110.229838    0.00000    0.00000   -1.44442    7    diag
    9      0.954D-05      0.283D-06       -92.80360053    110.229847    0.00000    0.00000   -1.44442    8    diag
   10      0.160D-05      0.300D-07       -92.80360053    110.229848    0.00000    0.00000   -1.44442    9    orth
   11      0.152D-06      0.395D-08       -92.80360053    110.229848    0.00000    0.00000   -1.44442    9    diag
   12      0.126D-07      0.417D-09       -92.80360053    110.229848    0.00000    0.00000   -1.44442    9    diag
   13      0.123D-08      0.543D-10       -92.80360053    110.229848    0.00000    0.00000   -1.44442    9    diag
   14      0.184D-09      0.791D-11       -92.80360053    110.229848    0.00000    0.00000   -1.44442    9    diag
   15      0.291D-10      0.163D-11       -92.80360053    110.229848    0.00000    0.00000   -1.44442    9    diag
   16      0.706D-11      0.461D-12       -92.80360053    110.229848    0.00000    0.00000   -1.44442    0    orth

 Final occupancy:   5   1   1   0

 !RHF STATE 1.1 Energy                -92.803600529290
 Nuclear energy                        23.58228339
 One-electron energy                 -171.50080781
 Two-electron energy                   55.11492389
 Virial quotient                       -1.00352299
 !RHF STATE 1.1 Dipole moment           0.00000000     0.00000000    -1.44442277
 Dipole moment /Debye                   0.00000000     0.00000000    -3.67111603

 Orbital energies:

         1.1          2.1          3.1          4.1          5.1          6.1          7.1
    -15.597939   -11.406411    -1.244034    -0.838654    -0.578991     0.032533     0.151139

         1.2          2.2          3.2
     -0.484726     0.129634     0.301871

         1.3          2.3          3.3
     -0.484726     0.129634     0.301871

         1.4          2.4
      0.682078     0.962979

 HOMO      1.2    -0.484726 =     -13.1901eV
 LUMO      6.1     0.032533 =       0.8853eV
 LUMO-HOMO         0.517258 =      14.0753eV


 **********************************************************************************************************************************
 DATASETS  * FILE   NREC   LENGTH (MB)   RECORD NAMES
              1      19      212.99       500      610      700      900      950      970     1000      129      960     1100   
                                          VAR    BASINP    GEOM    SYMINP    ZMAT    AOBASIS   BASIS     P2S    ABASIS      S 
                                         1400     1410     1200     1210     1080     1600     1650     1300     1700   
                                           T        V       H0       H01     AOSYM     SMH    MOLCAS    ERIS     OPER   

              2       4        2.98       700     1000      520     2100   
                                         GEOM     BASIS   MCVARS     RHF  

 PROGRAMS   *        TOTAL        HF       INT
 CPU TIMES  *         4.68      1.60      3.01
 REAL TIME  *         5.97 SEC
 DISK USED  *       636.11 MB      
 **********************************************************************************************************************************


 PROGRAM * CCSD (Closed-shell coupled cluster)     Authors: C. Hampel, H.-J. Werner, 1991, M. Deegan, P.J. Knowles, 1992


 Convergence thresholds:  THRVAR = 1.00D-08  THRDEN = 1.00D-12

 CCSD(T)     terms to be evaluated (factor= 1.000)


 Number of core orbitals:           2 (   2   0   0   0 )
 Number of closed-shell orbitals:   5 (   3   1   1   0 )
 Number of external orbitals:     164 (  70  38  38  18 )

 Molecular orbitals read from record     2100.2  Type=RHF/CANONICAL (state 1.1)

 Number of N-1 electron functions:               5
 Number of N-2 electron functions:              15
 Number of singly external CSFs:               286
 Number of doubly external CSFs:             90562
 Total number of CSFs:                       90849

 Length of J-op  integral file:               0.00 MB
 Length of K-op  integral file:               0.65 MB
 Length of 3-ext integral record:             0.00 MB

 Memory could be reduced to 9.35 Mwords without degradation in triples

 Integral transformation finished. Total CPU:   0.21 sec, npass=  1  Memory used:   1.25 MW

 Reference energy:                    -92.80360053

 MP2 singlet pair energy:              -0.21865631
 MP2 triplet pair energy:              -0.12563925
 MP2 correlation energy:               -0.34429556
 MP2 total energy:                    -93.14789609

 SCS-MP2 correlation energy:           -0.34056311   (PS=  1.200000  PT=  0.333333)
 SCS-MP2 total energy:                -93.14416364

 ITER.      SQ.NORM     CORR.ENERGY   TOTAL ENERGY   ENERGY CHANGE        DEN1      VAR(S)    VAR(P)  DIIS     TIME  TIME/IT
   1      1.11278461    -0.34662839   -93.15022892    -0.00233283     0.01016931  0.25D-02  0.29D-02  1  1     0.44     0.24
   2      1.12162268    -0.34688745   -93.15048798    -0.00025906    -0.00943714  0.83D-04  0.39D-03  2  2     0.67     0.25
   3      1.12670776    -0.34709570   -93.15069623    -0.00020825    -0.00275835  0.11D-04  0.46D-04  3  3     0.90     0.25
   4      1.12869498    -0.34717525   -93.15077578    -0.00007955    -0.00064979  0.94D-06  0.53D-05  4  4     1.12     0.25
   5      1.12928483    -0.34717405   -93.15077458     0.00000120    -0.00017586  0.14D-06  0.44D-06  5  5     1.35     0.25
   6      1.12938878    -0.34717157   -93.15077210     0.00000248    -0.00002574  0.92D-08  0.36D-07  6  6     1.58     0.25
   7      1.12939716    -0.34717330   -93.15077383    -0.00000174     0.00000019  0.11D-08  0.29D-08  6  1     1.79     0.25
   8      1.12940028    -0.34717369   -93.15077422    -0.00000039    -0.00000123  0.20D-09  0.22D-09  6  2     2.01     0.25
   9      1.12940011    -0.34717378   -93.15077431    -0.00000009     0.00000024  0.11D-10  0.17D-10  6  3     2.23     0.25
  10      1.12940015    -0.34717380   -93.15077433    -0.00000002     0.00000006  0.27D-11  0.17D-11  6  4     2.44     0.25
  11      1.12940016    -0.34717381   -93.15077434    -0.00000001     0.00000000  0.36D-12  0.27D-12  6  5     2.66     0.25
  12      1.12940011    -0.34717381   -93.15077434    -0.00000000     0.00000003  0.46D-13  0.75D-13  6  6     2.89     0.25
  13      1.12940007    -0.34717381   -93.15077434    -0.00000000     0.00000001  0.31D-14  0.96D-14  6  1     3.12     0.25
  14      1.12940005    -0.34717381   -93.15077434    -0.00000000     0.00000001  0.23D-15  0.12D-14  6  2     3.35     0.25
  15      1.12940005    -0.34717381   -93.15077434     0.00000000     0.00000000  0.34D-16  0.18D-15  6  3     3.59     0.25
  16      1.12940004    -0.34717381   -93.15077434     0.00000000     0.00000000  0.17D-16  0.17D-16  6  4     3.79     0.25
  17      1.12940004    -0.34717381   -93.15077434     0.00000000     0.00000000  0.15D-17  0.15D-17  6  5     4.01     0.25
  18      1.12940004    -0.34717381   -93.15077434     0.00000000    -0.00000000  0.98D-19  0.16D-18  6  1     4.23     0.25
  19      1.12940004    -0.34717381   -93.15077434    -0.00000000     0.00000000  0.15D-19  0.73D-20  6  6     4.46     0.25
  20      1.12940004    -0.34717381   -93.15077434    -0.00000000     0.00000000  0.26D-20  0.15D-20  6  2     4.68     0.25
  21      1.12940004    -0.34717381   -93.15077434    -0.00000000     0.00000000  0.24D-21  0.14D-21  6  5     4.90     0.25

 Norm of t1 vector:      0.06424441      S-energy:     0.00000000      T1 diagnostic:  0.01436549
                                                                       D1 diagnostic:  0.02801965

 Doubles amplitudes (print threshold =  0.500E-01):

         I         J         SYM. A    SYM. B    A         B      T(IJ, AB)

         4         4         2         2         1         1     -0.06278564
         5         5         3         3         1         1     -0.06278564


 Total CPU time for triples:      1.54 sec


 RESULTS
 =======

  Reference energy                    -92.803600529290
  CCSD singlet pair energy             -0.240973546047
  CCSD triplet pair energy             -0.106200264724
  CCSD correlation energy              -0.347173810770

  Triples (T) contribution             -0.017583465767
  Total correlation energy             -0.364757276537

  CCSD total energy                   -93.150774340060
  CCSD[T] energy                      -93.169118510531
  CCSD-T energy                       -93.167984331324
 !CCSD(T) total energy                -93.168357805827

 Timing summary (sec):

 STEP                 CPU(USER)    SYS     CPU(TOT)    WALL
 Transformation          0.22      0.06      0.28      0.28
 CCSD iterations         4.69      0.64      5.33      5.32
 Triples                 1.54      0.06      1.60      1.60

 Program statistics:

 Available memory in ccsd:               994999800
 Min. memory needed in ccsd:                377822
 Max. memory used in ccsd:                  449387
 Max. memory used in cckext:                547289 (21 integral passes)



 **********************************************************************************************************************************
 DATASETS  * FILE   NREC   LENGTH (MB)   RECORD NAMES
              1      20      238.17       500      610      700      900      950      970     1000      129      960     1100   
                                          VAR    BASINP    GEOM    SYMINP    ZMAT    AOBASIS   BASIS     P2S    ABASIS      S 
                                         1400     1410     1200     1210     1080     1600     1650     1300     1700     1380   
                                           T        V       H0       H01     AOSYM     SMH    MOLCAS    ERIS     OPER     JKOP   

              2       4        2.98       700     1000      520     2100   
                                         GEOM     BASIS   MCVARS     RHF  

 PROGRAMS   *        TOTAL   CCSD(T)        HF       INT
 CPU TIMES  *        11.16      6.48      1.60      3.01
 REAL TIME  *        14.05 SEC
 DISK USED  *       636.11 MB      
 **********************************************************************************************************************************

 CCSD(T)/USERDEF energy=    -93.168357805827

        CCSD(T)         HF-SCF  
    -93.16835781    -92.80360053
 **********************************************************************************************************************************
 Molpro calculation terminated
 Variable memory released
