
 Primary working directories    : /tmp/r2666/232690.maple
 Secondary working directories  : /tmp/r2666/232690.maple
 Wavefunction directory         : /ddn/home4/r2666/wfu/
 Main file repository           : /tmp/r2666/232690.maple/

 SHA1      : d5ffa45e93fdbca01ffc919aa182cfdae0147319
 NAME      : 2015.1.35
 ARCHNAME  : linux/x86_64
 FC        : /opt/intel/composer_xe_2015.1.133/bin/intel64/ifort
 BLASLIB   : -Wl,-_start-group /opt/intel/mkl/lib/intel64/libmkl_intel_ilp64.a /opt/intel/mkl/lib/intel64/libmkl_intel_thread.a /opt/intel/mkl/lib/intel64/libmkl_core.a -Wl,-_end-group
 id        : olemiss

 Nodes     nprocs
 cn082        1

 Using customized tuning parameters: mindgm=1; mindgv=20; mindgc=4; mindgr=1; noblas=0; minvec=7
 default implementation of scratch files=df  

 ***,hcn CCSD(T)/TZ-F12 QFF
 memory, 995, m;
 gthresh,energy=1.d-12,zero=1.d-22,oneint=1.d-22,twoint=1.d-22;
 gthresh,optgrad=1.d-8,optstep=1.d-8;
 nocompress;
 geomtyp=xyz
 bohr
 geometry={
 3
         24        24
 N       -0.0045934186       -0.0000001558        1.1183539894
 C        0.0095638540        0.0000000040       -1.0604496830
 H       -0.0049704354        0.0000001518       -3.0549742884
 }
 
 basis={
 default=aug-cc-pvtz
 s,C,8236.0,1235.0,280.8, 79.27,25.59, 8.997,3.319
 s,C,0.9059,0.3643,0.1285000
 p,C,56.0,18.71,4.133,0.2827,0.3827,0.1209
 d,C,30.0,10.0,3.3,1.097,0.318
 f,C,7.0,2.3,0.7610
 s,N,11420.0,1712.0,389.3,110.0,35.57,12.54,4.644
 s,N,1.293,0.5118,0.1787
 p,N,79.89,26.63,5.948,1.742,0.555,0.1725
 d,N,45.0,15.0,5.0,1.654,0.469
 f,N,9.9,3.3,1.093
 s,O,15330.0,2299.0,522.4,147.3,47.55,16.76,6.207
 s,O,1.752,0.6882,0.2384
 p,O,103.5,34.46,7.749,2.28,0.7156,0.214
 d,O,63.0,21.0,7.0,2.314,0.645
 f,O,12.9,4.3,1.428
 s,mg,164900.0,24710.0,5628.0,1596.0,521.0;
 s,mg,188.0,73.01,29.90,12.54,4.306,1.826;
 s,mg,0.7417,0.0761,0.145,0.033,0.0129;
 p,mg,950.70,316.90,74.86,23.72,8.669,3.363;
 p,mg,1.310,0.4911,0.2364,0.08733,0.03237,0.00745;
 d,mg,1.601,0.686,0.126,0.294,0.0468;
 f,mg,1.372,0.588,0.094,0.252;
 }
   {hf,maxit=500;accu,20;}
 {ccsd(t),nocheck,maxit=250;orbital,IGNORE_ERROR;}

 Variables initialized (889), CPU time= 0.00 sec
 Commands  initialized (702), CPU time= 0.01 sec, 572 directives.
 Default parameters read. Elapsed time= 0.06 sec

 Checking input...
 Passed
1


                                         ***  PROGRAM SYSTEM MOLPRO  ***
                                       Copyright, TTI GmbH Stuttgart, 2015
                                    Version 2015.1 linked Jul  9 2018 13:16:40


 **********************************************************************************************************************************
 LABEL *   hcn CCSD(T)/TZ-F12 QFF                                                        
  64 bit serial version                                                                  DATE: 06-Feb-20          TIME: 09:54:47  
 **********************************************************************************************************************************

 SHA1:             d5ffa45e93fdbca01ffc919aa182cfdae0147319
 **********************************************************************************************************************************

 THRESHOLDS:

 ZERO    =  1.00D-22  ONEINT  =  1.00D-22  TWOINT  =  1.00D-22  PREFAC  =  1.00D-14  LOCALI  =  1.00D-09  EORDER  =  1.00D-04
 ENERGY  =  1.00D-12  ETEST   =  0.00D+00  EDENS   =  0.00D+00  THRDEDEF=  1.00D-06  GRADIENT=  1.00D-02  STEP    =  1.00D-03
 ORBITAL =  1.00D-05  CIVEC   =  1.00D-05  COEFF   =  1.00D-04  PRINTCI =  5.00D-02  PUNCHCI =  9.90D+01  OPTGRAD =  3.00D-04
 OPTENERG=  1.00D-06  OPTSTEP =  3.00D-04  THRGRAD =  1.00D-10  COMPRESS=  1.00D-11  VARMIN  =  1.00D-07  VARMAX  =  1.00D-03
 THRDOUB =  0.00D+00  THRDIV  =  1.00D-05  THRRED  =  1.00D-07  THRPSP  =  1.00D+00  THRDC   =  1.00D-10  THRCS   =  1.00D-10
 THRNRM  =  1.00D-08  THREQ   =  0.00D+00  THRDE   =  1.00D+00  THRREF  =  1.00D-05  SPARFAC =  1.00D+00  THRDLP  =  1.00D-07
 THRDIA  =  1.00D-10  THRDLS  =  1.00D-07  THRGPS  =  0.00D+00  THRKEX  =  0.00D+00  THRDIS  =  2.00D-01  THRVAR  =  1.00D-10
 THRLOC  =  1.00D-06  THRGAP  =  1.00D-06  THRLOCT = -1.00D+00  THRGAPT = -1.00D+00  THRORB  =  1.00D-06  THRMLTP =  0.00D+00
 THRCPQCI=  1.00D-10  KEXTA   =  0.00D+00  THRCOARS=  0.00D+00  SYMTOL  =  1.00D-06  GRADTOL =  1.00D-06  THROVL  =  1.00D-08
 THRORTH =  1.00D-08  GRID    =  1.00D-06  GRIDMAX =  1.00D-03  DTMAX   =  0.00D+00  THROCCDE=  1.00D-01  THROCCDE=  1.00D-01



 THRESHOLDS:

 ZERO    =  1.00D-22  ONEINT  =  1.00D-22  TWOINT  =  1.00D-22  PREFAC  =  1.00D-14  LOCALI  =  1.00D-09  EORDER  =  1.00D-04
 ENERGY  =  1.00D-12  ETEST   =  0.00D+00  EDENS   =  0.00D+00  THRDEDEF=  1.00D-06  GRADIENT=  1.00D-02  STEP    =  1.00D-03
 ORBITAL =  1.00D-05  CIVEC   =  1.00D-05  COEFF   =  1.00D-04  PRINTCI =  5.00D-02  PUNCHCI =  9.90D+01  OPTGRAD =  1.00D-08
 OPTENERG=  1.00D-06  OPTSTEP =  1.00D-08  THRGRAD =  1.00D-10  COMPRESS=  1.00D-11  VARMIN  =  1.00D-07  VARMAX  =  1.00D-03
 THRDOUB =  0.00D+00  THRDIV  =  1.00D-05  THRRED  =  1.00D-07  THRPSP  =  1.00D+00  THRDC   =  1.00D-10  THRCS   =  1.00D-10
 THRNRM  =  1.00D-08  THREQ   =  0.00D+00  THRDE   =  1.00D+00  THRREF  =  1.00D-05  SPARFAC =  1.00D+00  THRDLP  =  1.00D-07
 THRDIA  =  1.00D-10  THRDLS  =  1.00D-07  THRGPS  =  0.00D+00  THRKEX  =  0.00D+00  THRDIS  =  2.00D-01  THRVAR  =  1.00D-10
 THRLOC  =  1.00D-06  THRGAP  =  1.00D-06  THRLOCT = -1.00D+00  THRGAPT = -1.00D+00  THRORB  =  1.00D-06  THRMLTP =  0.00D+00
 THRCPQCI=  1.00D-10  KEXTA   =  0.00D+00  THRCOARS=  0.00D+00  SYMTOL  =  1.00D-06  GRADTOL =  1.00D-06  THROVL  =  1.00D-08
 THRORTH =  1.00D-08  GRID    =  1.00D-06  GRIDMAX =  1.00D-03  DTMAX   =  0.00D+00  THROCCDE=  1.00D-01  THROCCDE=  1.00D-01



 Input parameters for SORTINT:

 COMPRESS =    0.000000
 C_FINAL  =    1.000000
 DEBUG    =   -1.000000
 C_SORT1  =    0.000000
 C_SEWARD =    0.000000
 THRESH   =    0.000000
 IO       =  molpro                                                          
 SPRI     =    0.000000
 SETTING GEOMTYP        =    XYZ
 ZUNIT=BOHR
 

 Variable memory set to  995000000 words,  buffer space   230000 words

 SETTING BASIS          =    USERDEF


 Recomputing integrals since basis changed


 Using spherical harmonics

 Library entry H      S aug-cc-pVTZ          selected for orbital group  3
 Library entry H      P aug-cc-pVTZ          selected for orbital group  3
 Library entry H      D aug-cc-pVTZ          selected for orbital group  3


 PROGRAM * SEWARD (Integral evaluation for generally contracted gaussian basis sets)     Author: Roland Lindh, 1990

 Geometry written to block  1 of record 700


 Point group  Cs  



 ATOMIC COORDINATES

 NR  ATOM    CHARGE       X              Y              Z

   1  N       7.00   -0.004593419    0.000000000    1.118353989
   2  C       6.00    0.009563854    0.000000000   -1.060449683
   3  H       1.00   -0.004970435    0.000000000   -3.054974288

 Bond lengths in Bohr (Angstrom)

 1-2  2.178849667  2-3  1.994577561
     ( 1.152997590)     ( 1.055484991)

 Bond angles

  1-2-3  179.21020050

 NUCLEAR CHARGE:                   14
 NUMBER OF PRIMITIVE AOS:         203
 NUMBER OF SYMMETRY AOS:          173
 NUMBER OF CONTRACTIONS:          171   ( 114A'  +  57A"  )
 NUMBER OF CORE ORBITALS:           2   (   2A'  +   0A"  )
 NUMBER OF VALENCE ORBITALS:        9   (   7A'  +   2A"  )


 NUCLEAR REPULSION ENERGY   23.96170073


 Eigenvalues of metric

         1 0.234E-03 0.518E-03 0.887E-03 0.135E-02 0.316E-02 0.539E-02 0.734E-02 0.980E-02
         2 0.539E-02 0.155E-01 0.214E-01 0.339E-01 0.957E-01 0.112E+00 0.124E+00 0.125E+00


 Contracted 2-electron integrals neglected if value below      1.0D-22

       48004347. INTEGRALS WRITTEN OUT IN   11723 BLOCKS ON RECORD 1290 OF FILE 1


 NUMBER OF SORTED TWO-ELECTRON INTEGRALS:   55360566.     BUFFER LENGTH:  32768
 NUMBER OF SEGMENTS:   4  SEGMENT LENGTH:   15997996      RECORD LENGTH: 524288

 Memory used in sort:      16.56 MW

 SORT1 READ    48004347. AND WROTE    48459706. INTEGRALS IN    141 RECORDS. CPU TIME:     0.75 SEC, REAL TIME:     1.13 SEC
 SORT2 READ    48459706. AND WROTE    55360566. INTEGRALS IN      4 RECORDS. CPU TIME:     0.69 SEC, REAL TIME:     0.89 SEC

 FILE SIZES:   FILE 1:   789.0 MBYTE,  FILE 4:   591.4 MBYTE,   TOTAL:   1380.4 MBYTE

 OPERATOR DM      FOR CENTER  0  COORDINATES:    0.000000    0.000000    0.000000


 **********************************************************************************************************************************
 DATASETS  * FILE   NREC   LENGTH (MB)   RECORD NAMES
              1      19      432.73       500      610      700      900      950      970     1000      129      960     1100   
                                          VAR    BASINP    GEOM    SYMINP    ZMAT    AOBASIS   BASIS     P2S    ABASIS      S 
                                         1400     1410     1200     1210     1080     1600     1650     1300     1700   
                                           T        V       H0       H01     AOSYM     SMH    MOLCAS    ERIS     OPER   

 PROGRAMS   *        TOTAL       INT
 CPU TIMES  *         4.14      4.04
 REAL TIME  *         5.69 SEC
 DISK USED  *         1.38 GB      
 **********************************************************************************************************************************


 PROGRAM * RHF-SCF (CLOSED SHELL)       Authors: W. Meyer, H.-J. Werner


 NUMBER OF ELECTRONS:       7+    7-
 CONVERGENCE THRESHOLDS:    1.00E-10 (Density)    1.00E-13 (Energy)
 MAX. NUMBER OF ITERATIONS:      500
 INTERPOLATION TYPE:            DIIS
 INTERPOLATION STEPS:              2 (START)      1 (STEP)
 LEVEL SHIFTS:                  0.00 (CLOSED)  0.00 (OPEN) 



 Orbital guess generated from atomic densities. Full valence occupancy:    9   2

 Molecular orbital dump at record        2100.2

 Initial occupancy:   6   1

 ITERATION    DDIFF          GRAD             ENERGY        2-EL.EN.            DIPOLE MOMENTS         DIIS   ORB.
    1      0.000D+00      0.000D+00       -92.77160008    111.780166    0.00833    0.00000   -2.01246    0    start
    2      0.000D+00      0.705D-02       -92.78388613    110.081523   -0.00318    0.00000   -0.94381    1    diag
    3      0.253D-01      0.609D-02       -92.80552890    111.004104    0.00162    0.00000   -1.44399    2    diag
    4      0.870D-02      0.442D-03       -92.80577998    110.953813    0.00125    0.00000   -1.43686    3    diag
    5      0.141D-02      0.981D-04       -92.80579439    110.961895    0.00114    0.00000   -1.43557    4    diag
    6      0.385D-03      0.254D-04       -92.80579516    110.957717    0.00112    0.00000   -1.43583    5    diag
    7      0.310D-04      0.902D-05       -92.80579525    110.958681    0.00112    0.00000   -1.43590    6    diag
    8      0.117D-04      0.181D-05       -92.80579525    110.958664    0.00112    0.00000   -1.43588    7    diag
    9      0.600D-05      0.199D-06       -92.80579525    110.958672    0.00112    0.00000   -1.43587    8    diag
   10      0.101D-05      0.231D-07       -92.80579525    110.958673    0.00112    0.00000   -1.43587    9    orth
   11      0.101D-06      0.415D-08       -92.80579525    110.958673    0.00112    0.00000   -1.43587    9    diag
   12      0.138D-07      0.153D-08       -92.80579525    110.958673    0.00112    0.00000   -1.43587    9    diag
   13      0.658D-08      0.695D-09       -92.80579525    110.958673    0.00112    0.00000   -1.43587    9    diag
   14      0.447D-08      0.182D-09       -92.80579525    110.958673    0.00112    0.00000   -1.43587    9    diag
   15      0.112D-08      0.690D-10       -92.80579525    110.958673    0.00112    0.00000   -1.43587    9    diag
   16      0.351D-09      0.150D-10       -92.80579525    110.958673    0.00112    0.00000   -1.43587    9    diag
   17      0.793D-10      0.316D-11       -92.80579525    110.958673    0.00112    0.00000   -1.43587    9    diag
   18      0.100D-10      0.918D-12       -92.80579525    110.958673    0.00112    0.00000   -1.43587    9    diag
   19      0.307D-11      0.239D-12       -92.80579525    110.958673    0.00112    0.00000   -1.43587    9    fixocc
   20      0.136D-11      0.250D-12       -92.80579525    110.958673    0.00112    0.00000   -1.43587    9    orth
   21      0.717D-12      0.318D-12       -92.80579525    110.958673    0.00112    0.00000   -1.43587    9    diag
   22      0.338D-12      0.191D-12       -92.80579525    110.958673    0.00112    0.00000   -1.43587    9    diag
   23      0.134D-11      0.298D-12       -92.80579525    110.958673    0.00112    0.00000   -1.43587    9    diag
   24      0.628D-12      0.275D-12       -92.80579525    110.958673    0.00112    0.00000   -1.43587    9    diag
   25      0.456D-12      0.250D-12       -92.80579525    110.958673    0.00112    0.00000   -1.43587    9    diag
   26      0.522D-12      0.225D-12       -92.80579525    110.958673    0.00112    0.00000   -1.43587    0    orth

 Final occupancy:   6   1

 !RHF STATE 1.1 Energy                -92.805795253880
 Nuclear energy                        23.96170073
 One-electron energy                 -172.24683256
 Two-electron energy                   55.47933658
 Virial quotient                       -1.00221825
 !RHF STATE 1.1 Dipole moment           0.00111727     0.00000000    -1.43587488
 Dipole moment /Debye                   0.00283964     0.00000000    -3.64939087

 Orbital energies:

         1.1          2.1          3.1          4.1          5.1          6.1          7.1          8.1
    -15.591291   -11.399040    -1.254039    -0.839891    -0.578394    -0.490711     0.032707     0.133539

         1.2          2.2          3.2
     -0.490713     0.133597     0.306423

 HOMO      6.1    -0.490711 =     -13.3529eV
 LUMO      7.1     0.032707 =       0.8900eV
 LUMO-HOMO         0.523419 =      14.2429eV


 **********************************************************************************************************************************
 DATASETS  * FILE   NREC   LENGTH (MB)   RECORD NAMES
              1      19      432.73       500      610      700      900      950      970     1000      129      960     1100   
                                          VAR    BASINP    GEOM    SYMINP    ZMAT    AOBASIS   BASIS     P2S    ABASIS      S 
                                         1400     1410     1200     1210     1080     1600     1650     1300     1700   
                                           T        V       H0       H01     AOSYM     SMH    MOLCAS    ERIS     OPER   

              2       4        3.13       700     1000      520     2100   
                                         GEOM     BASIS   MCVARS     RHF  

 PROGRAMS   *        TOTAL        HF       INT
 CPU TIMES  *        10.58      6.45      4.04
 REAL TIME  *        14.02 SEC
 DISK USED  *         1.38 GB      
 **********************************************************************************************************************************


 PROGRAM * CCSD (Closed-shell coupled cluster)     Authors: C. Hampel, H.-J. Werner, 1991, M. Deegan, P.J. Knowles, 1992


 Convergence thresholds:  THRVAR = 1.00D-08  THRDEN = 1.00D-12

 CCSD(T)     terms to be evaluated (factor= 1.000)


 Number of core orbitals:           2 (   2   0 )
 Number of closed-shell orbitals:   5 (   4   1 )
 Number of external orbitals:     164 ( 108  56 )

 Molecular orbitals read from record     2100.2  Type=RHF/CANONICAL (state 1.1)

 Number of N-1 electron functions:               5
 Number of N-2 electron functions:              15
 Number of singly external CSFs:               488
 Number of doubly external CSFs:            174594
 Total number of CSFs:                      175083

 Length of J-op  integral file:               0.00 MB
 Length of K-op  integral file:               1.15 MB
 Length of 3-ext integral record:             0.00 MB

 Memory could be reduced to 17.82 Mwords without degradation in triples

 Integral transformation finished. Total CPU:   0.62 sec, npass=  1  Memory used:   4.44 MW

 Reference energy:                    -92.80579525

 MP2 singlet pair energy:              -0.21665481
 MP2 triplet pair energy:              -0.12404935
 MP2 correlation energy:               -0.34070416
 MP2 total energy:                    -93.14649941

 SCS-MP2 correlation energy:           -0.33717203   (PS=  1.200000  PT=  0.333333)
 SCS-MP2 total energy:                -93.14296728

 ITER.      SQ.NORM     CORR.ENERGY   TOTAL ENERGY   ENERGY CHANGE        DEN1      VAR(S)    VAR(P)  DIIS     TIME  TIME/IT
   1      1.11022659    -0.34393481   -93.14973006    -0.00323065     0.00854879  0.23D-02  0.26D-02  1  1     1.14     0.57
   2      1.11858429    -0.34431175   -93.15010700    -0.00037694    -0.00901451  0.75D-04  0.36D-03  2  2     1.65     0.58
   3      1.12330029    -0.34450221   -93.15029746    -0.00019046    -0.00261883  0.99D-05  0.40D-04  3  3     2.15     0.58
   4      1.12509212    -0.34457105   -93.15036630    -0.00006884    -0.00060077  0.88D-06  0.45D-05  4  4     2.65     0.58
   5      1.12560936    -0.34456950   -93.15036475     0.00000155    -0.00015737  0.13D-06  0.36D-06  5  5     3.14     0.58
   6      1.12569637    -0.34456733   -93.15036258     0.00000217    -0.00002182  0.81D-08  0.29D-07  6  6     3.67     0.58
   7      1.12570337    -0.34456874   -93.15036399    -0.00000141     0.00000016  0.11D-08  0.23D-08  6  1     4.17     0.58
   8      1.12570589    -0.34456908   -93.15036433    -0.00000034    -0.00000095  0.20D-09  0.17D-09  6  2     4.67     0.58
   9      1.12570580    -0.34456915   -93.15036440    -0.00000007     0.00000019  0.16D-10  0.15D-10  6  3     5.19     0.59
  10      1.12570585    -0.34456916   -93.15036441    -0.00000001     0.00000005  0.37D-11  0.17D-11  6  4     5.66     0.59
  11      1.12570588    -0.34456916   -93.15036442    -0.00000000     0.00000000  0.43D-12  0.32D-12  6  5     6.17     0.59
  12      1.12570583    -0.34456917   -93.15036442    -0.00000000     0.00000003  0.40D-13  0.85D-13  6  6     6.67     0.59
  13      1.12570580    -0.34456917   -93.15036442    -0.00000000     0.00000001  0.23D-14  0.11D-13  6  1     7.16     0.59
  14      1.12570578    -0.34456917   -93.15036442    -0.00000000     0.00000001  0.51D-15  0.14D-14  6  2     7.67     0.59
  15      1.12570578    -0.34456917   -93.15036442    -0.00000000     0.00000000  0.97D-16  0.21D-15  6  3     8.19     0.59
  16      1.12570577    -0.34456917   -93.15036442    -0.00000000     0.00000000  0.10D-16  0.91D-17  6  5     8.69     0.59
  17      1.12570577    -0.34456917   -93.15036442    -0.00000000     0.00000000  0.16D-17  0.66D-18  6  4     9.18     0.59
  18      1.12570577    -0.34456917   -93.15036442     0.00000000    -0.00000000  0.44D-18  0.16D-18  6  6     9.71     0.59
  19      1.12570577    -0.34456917   -93.15036442     0.00000000     0.00000000  0.54D-19  0.24D-19  6  1    10.22     0.59
  20      1.12570577    -0.34456917   -93.15036442    -0.00000000    -0.00000000  0.46D-20  0.58D-20  6  2    10.74     0.59

 Norm of t1 vector:      0.06158178      S-energy:     0.00000000      T1 diagnostic:  0.01377011
                                                                       D1 diagnostic:  0.02681131

 Doubles amplitudes (print threshold =  0.500E-01):

         I         J         SYM. A    SYM. B    A         B      T(IJ, AB)

         4         4         1         1         2         2     -0.05855104
         5         5         2         2         1         1     -0.05862393


 Total CPU time for triples:      4.27 sec


 RESULTS
 =======

  Reference energy                    -92.805795253880
  CCSD singlet pair energy             -0.238806973799
  CCSD triplet pair energy             -0.105762193695
  CCSD correlation energy              -0.344569167493

  Triples (T) contribution             -0.016993151026
  Total correlation energy             -0.361562318519

  CCSD total energy                   -93.150364421373
  CCSD[T] energy                      -93.168051635735
  CCSD-T energy                       -93.167013891247
 !CCSD(T) total energy                -93.167357572398

 Timing summary (sec):

 STEP                 CPU(USER)    SYS     CPU(TOT)    WALL
 Transformation          0.64      0.12      0.76      0.75
 CCSD iterations        10.12      1.68     11.80     11.80
 Triples                 4.27      0.15      4.42      4.43

 Program statistics:

 Available memory in ccsd:               994999800
 Min. memory needed in ccsd:                705325
 Max. memory used in ccsd:                  840968
 Max. memory used in cckext:               1345378 (20 integral passes)



 **********************************************************************************************************************************
 DATASETS  * FILE   NREC   LENGTH (MB)   RECORD NAMES
              1      20      481.35       500      610      700      900      950      970     1000      129      960     1100   
                                          VAR    BASINP    GEOM    SYMINP    ZMAT    AOBASIS   BASIS     P2S    ABASIS      S 
                                         1400     1410     1200     1210     1080     1600     1650     1300     1700     1380   
                                           T        V       H0       H01     AOSYM     SMH    MOLCAS    ERIS     OPER     JKOP   

              2       4        3.13       700     1000      520     2100   
                                         GEOM     BASIS   MCVARS     RHF  

 PROGRAMS   *        TOTAL   CCSD(T)        HF       INT
 CPU TIMES  *        25.65     15.07      6.45      4.04
 REAL TIME  *        32.04 SEC
 DISK USED  *         1.38 GB      
 **********************************************************************************************************************************

 CCSD(T)/USERDEF energy=    -93.167357572398

        CCSD(T)         HF-SCF  
    -93.16735757    -92.80579525
 **********************************************************************************************************************************
 Molpro calculation terminated
 Variable memory released
