
 Primary working directories    : /tmp/r2666/232720.maple
 Secondary working directories  : /tmp/r2666/232720.maple
 Wavefunction directory         : /ddn/home4/r2666/wfu/
 Main file repository           : /tmp/r2666/232720.maple/

 SHA1      : d5ffa45e93fdbca01ffc919aa182cfdae0147319
 NAME      : 2015.1.35
 ARCHNAME  : linux/x86_64
 FC        : /opt/intel/composer_xe_2015.1.133/bin/intel64/ifort
 BLASLIB   : -Wl,-_start-group /opt/intel/mkl/lib/intel64/libmkl_intel_ilp64.a /opt/intel/mkl/lib/intel64/libmkl_intel_thread.a /opt/intel/mkl/lib/intel64/libmkl_core.a -Wl,-_end-group
 id        : olemiss

 Nodes     nprocs
 cn078        1

 Using customized tuning parameters: mindgm=1; mindgv=20; mindgc=4; mindgr=1; noblas=0; minvec=7
 default implementation of scratch files=df  

 ***,hcn CCSD(T)/TZ-F12 QFF
 memory, 995, m;
 gthresh,energy=1.d-12,zero=1.d-22,oneint=1.d-22,twoint=1.d-22;
 gthresh,optgrad=1.d-8,optstep=1.d-8;
 nocompress;
 geomtyp=xyz
 bohr
 geometry={
 3
         54        54
 N        0.0000000000        0.0000000000        1.1467481942
 C        0.0000000000        0.0000000000       -1.0604473626
 H        0.0000000000        0.0000000000       -3.0833708136
 }
 
 basis={
 default=aug-cc-pvtz
 s,C,8236.0,1235.0,280.8, 79.27,25.59, 8.997,3.319
 s,C,0.9059,0.3643,0.1285000
 p,C,56.0,18.71,4.133,0.2827,0.3827,0.1209
 d,C,30.0,10.0,3.3,1.097,0.318
 f,C,7.0,2.3,0.7610
 s,N,11420.0,1712.0,389.3,110.0,35.57,12.54,4.644
 s,N,1.293,0.5118,0.1787
 p,N,79.89,26.63,5.948,1.742,0.555,0.1725
 d,N,45.0,15.0,5.0,1.654,0.469
 f,N,9.9,3.3,1.093
 s,O,15330.0,2299.0,522.4,147.3,47.55,16.76,6.207
 s,O,1.752,0.6882,0.2384
 p,O,103.5,34.46,7.749,2.28,0.7156,0.214
 d,O,63.0,21.0,7.0,2.314,0.645
 f,O,12.9,4.3,1.428
 s,mg,164900.0,24710.0,5628.0,1596.0,521.0;
 s,mg,188.0,73.01,29.90,12.54,4.306,1.826;
 s,mg,0.7417,0.0761,0.145,0.033,0.0129;
 p,mg,950.70,316.90,74.86,23.72,8.669,3.363;
 p,mg,1.310,0.4911,0.2364,0.08733,0.03237,0.00745;
 d,mg,1.601,0.686,0.126,0.294,0.0468;
 f,mg,1.372,0.588,0.094,0.252;
 }
   {hf,maxit=500;accu,20;}
 {ccsd(t),nocheck,maxit=250;orbital,IGNORE_ERROR;}

 Variables initialized (889), CPU time= 0.01 sec
 Commands  initialized (702), CPU time= 0.01 sec, 572 directives.
 Default parameters read. Elapsed time= 0.08 sec

 Checking input...
 Passed
1


                                         ***  PROGRAM SYSTEM MOLPRO  ***
                                       Copyright, TTI GmbH Stuttgart, 2015
                                    Version 2015.1 linked Jul  9 2018 13:16:40


 **********************************************************************************************************************************
 LABEL *   hcn CCSD(T)/TZ-F12 QFF                                                        
  64 bit serial version                                                                  DATE: 06-Feb-20          TIME: 09:55:05  
 **********************************************************************************************************************************

 SHA1:             d5ffa45e93fdbca01ffc919aa182cfdae0147319
 **********************************************************************************************************************************

 THRESHOLDS:

 ZERO    =  1.00D-22  ONEINT  =  1.00D-22  TWOINT  =  1.00D-22  PREFAC  =  1.00D-14  LOCALI  =  1.00D-09  EORDER  =  1.00D-04
 ENERGY  =  1.00D-12  ETEST   =  0.00D+00  EDENS   =  0.00D+00  THRDEDEF=  1.00D-06  GRADIENT=  1.00D-02  STEP    =  1.00D-03
 ORBITAL =  1.00D-05  CIVEC   =  1.00D-05  COEFF   =  1.00D-04  PRINTCI =  5.00D-02  PUNCHCI =  9.90D+01  OPTGRAD =  3.00D-04
 OPTENERG=  1.00D-06  OPTSTEP =  3.00D-04  THRGRAD =  1.00D-10  COMPRESS=  1.00D-11  VARMIN  =  1.00D-07  VARMAX  =  1.00D-03
 THRDOUB =  0.00D+00  THRDIV  =  1.00D-05  THRRED  =  1.00D-07  THRPSP  =  1.00D+00  THRDC   =  1.00D-10  THRCS   =  1.00D-10
 THRNRM  =  1.00D-08  THREQ   =  0.00D+00  THRDE   =  1.00D+00  THRREF  =  1.00D-05  SPARFAC =  1.00D+00  THRDLP  =  1.00D-07
 THRDIA  =  1.00D-10  THRDLS  =  1.00D-07  THRGPS  =  0.00D+00  THRKEX  =  0.00D+00  THRDIS  =  2.00D-01  THRVAR  =  1.00D-10
 THRLOC  =  1.00D-06  THRGAP  =  1.00D-06  THRLOCT = -1.00D+00  THRGAPT = -1.00D+00  THRORB  =  1.00D-06  THRMLTP =  0.00D+00
 THRCPQCI=  1.00D-10  KEXTA   =  0.00D+00  THRCOARS=  0.00D+00  SYMTOL  =  1.00D-06  GRADTOL =  1.00D-06  THROVL  =  1.00D-08
 THRORTH =  1.00D-08  GRID    =  1.00D-06  GRIDMAX =  1.00D-03  DTMAX   =  0.00D+00  THROCCDE=  1.00D-01  THROCCDE=  1.00D-01



 THRESHOLDS:

 ZERO    =  1.00D-22  ONEINT  =  1.00D-22  TWOINT  =  1.00D-22  PREFAC  =  1.00D-14  LOCALI  =  1.00D-09  EORDER  =  1.00D-04
 ENERGY  =  1.00D-12  ETEST   =  0.00D+00  EDENS   =  0.00D+00  THRDEDEF=  1.00D-06  GRADIENT=  1.00D-02  STEP    =  1.00D-03
 ORBITAL =  1.00D-05  CIVEC   =  1.00D-05  COEFF   =  1.00D-04  PRINTCI =  5.00D-02  PUNCHCI =  9.90D+01  OPTGRAD =  1.00D-08
 OPTENERG=  1.00D-06  OPTSTEP =  1.00D-08  THRGRAD =  1.00D-10  COMPRESS=  1.00D-11  VARMIN  =  1.00D-07  VARMAX  =  1.00D-03
 THRDOUB =  0.00D+00  THRDIV  =  1.00D-05  THRRED  =  1.00D-07  THRPSP  =  1.00D+00  THRDC   =  1.00D-10  THRCS   =  1.00D-10
 THRNRM  =  1.00D-08  THREQ   =  0.00D+00  THRDE   =  1.00D+00  THRREF  =  1.00D-05  SPARFAC =  1.00D+00  THRDLP  =  1.00D-07
 THRDIA  =  1.00D-10  THRDLS  =  1.00D-07  THRGPS  =  0.00D+00  THRKEX  =  0.00D+00  THRDIS  =  2.00D-01  THRVAR  =  1.00D-10
 THRLOC  =  1.00D-06  THRGAP  =  1.00D-06  THRLOCT = -1.00D+00  THRGAPT = -1.00D+00  THRORB  =  1.00D-06  THRMLTP =  0.00D+00
 THRCPQCI=  1.00D-10  KEXTA   =  0.00D+00  THRCOARS=  0.00D+00  SYMTOL  =  1.00D-06  GRADTOL =  1.00D-06  THROVL  =  1.00D-08
 THRORTH =  1.00D-08  GRID    =  1.00D-06  GRIDMAX =  1.00D-03  DTMAX   =  0.00D+00  THROCCDE=  1.00D-01  THROCCDE=  1.00D-01



 Input parameters for SORTINT:

 COMPRESS =    0.000000
 C_FINAL  =    1.000000
 DEBUG    =   -1.000000
 C_SORT1  =    0.000000
 C_SEWARD =    0.000000
 THRESH   =    0.000000
 IO       =  molpro                                                          
 SPRI     =    0.000000
 SETTING GEOMTYP        =    XYZ
 ZUNIT=BOHR
 

 Variable memory set to  995000000 words,  buffer space   230000 words

 SETTING BASIS          =    USERDEF


 Recomputing integrals since basis changed


 Using spherical harmonics

 Library entry H      S aug-cc-pVTZ          selected for orbital group  3
 Library entry H      P aug-cc-pVTZ          selected for orbital group  3
 Library entry H      D aug-cc-pVTZ          selected for orbital group  3


 PROGRAM * SEWARD (Integral evaluation for generally contracted gaussian basis sets)     Author: Roland Lindh, 1990

 Geometry written to block  1 of record 700


 Point group  C2v 



 ATOMIC COORDINATES

 NR  ATOM    CHARGE       X              Y              Z

   1  N       7.00    0.000000000    0.000000000    1.146748194
   2  C       6.00    0.000000000    0.000000000   -1.060447363
   3  H       1.00    0.000000000    0.000000000   -3.083370814

 Bond lengths in Bohr (Angstrom)

 1-2  2.207195557  2-3  2.022923451
     ( 1.167997589)     ( 1.070484990)

 Bond angles

  1-2-3  179.99999829

 NUCLEAR CHARGE:                   14
 NUMBER OF PRIMITIVE AOS:         203
 NUMBER OF SYMMETRY AOS:          173
 NUMBER OF CONTRACTIONS:          171   (  75A1  +  39B1  +  39B2  +  18A2  )
 NUMBER OF CORE ORBITALS:           2   (   2A1  +   0B1  +   0B2  +   0A2  )
 NUMBER OF VALENCE ORBITALS:        9   (   5A1  +   2B1  +   2B2  +   0A2  )


 NUCLEAR REPULSION ENERGY   23.64947612

 EXTRA SYMMETRY OF AOS IN SYMMETRY 1:   1 1 1 1 1 1 1 1 1 1   1 1 1 1 1 1 1 2 1 2   1 2 1 2 1 2 1 2 1 2   1 2 1 1 1 1 1 1 1 1
                                        1 1 1 1 1 1 1 1 1 2   1 2 1 2 1 2 1 2 1 2   1 2 1 2 1 1 1 1 1 1   1 1 2 1 2
 EXTRA SYMMETRY OF AOS IN SYMMETRY 2:   1 1 1 1 1 1 1 1 1 1   1 1 2 1 2 1 2 1 1 1   1 1 1 1 1 1 1 1 1 2   1 2 1 2 1 1 1 1 1
 EXTRA SYMMETRY OF AOS IN SYMMETRY 3:   1 1 1 1 1 1 1 1 1 1   1 1 2 1 2 1 2 1 1 1   1 1 1 1 1 1 1 1 1 2   1 2 1 2 1 1 1 1 1

 Eigenvalues of metric

         1 0.251E-03 0.565E-03 0.944E-03 0.140E-02 0.321E-02 0.777E-02 0.102E-01 0.133E-01
         2 0.551E-02 0.162E-01 0.234E-01 0.356E-01 0.970E-01 0.114E+00 0.126E+00 0.189E+00
         3 0.551E-02 0.162E-01 0.234E-01 0.356E-01 0.970E-01 0.114E+00 0.126E+00 0.189E+00
         4 0.125E+00 0.140E+00 0.199E+00 0.258E+00 0.315E+00 0.379E+00 0.486E+00 0.604E+00


 Contracted 2-electron integrals neglected if value below      1.0D-22

       21680425. INTEGRALS WRITTEN OUT IN    5295 BLOCKS ON RECORD 1290 OF FILE 1


 NUMBER OF SORTED TWO-ELECTRON INTEGRALS:   28272141.     BUFFER LENGTH:  32768
 NUMBER OF SEGMENTS:   2  SEGMENT LENGTH:   15998211      RECORD LENGTH: 524288

 Memory used in sort:      16.56 MW

 SORT1 READ    21680425. AND WROTE    22077328. INTEGRALS IN     64 RECORDS. CPU TIME:     0.46 SEC, REAL TIME:     0.60 SEC
 SORT2 READ    22077328. AND WROTE    28272141. INTEGRALS IN      2 RECORDS. CPU TIME:     0.40 SEC, REAL TIME:     0.50 SEC

 FILE SIZES:   FILE 1:   367.6 MBYTE,  FILE 4:   268.5 MBYTE,   TOTAL:    636.1 MBYTE

 OPERATOR DM      FOR CENTER  0  COORDINATES:    0.000000    0.000000    0.000000


 **********************************************************************************************************************************
 DATASETS  * FILE   NREC   LENGTH (MB)   RECORD NAMES
              1      19      213.11       500      610      700      900      950      970     1000      129      960     1100   
                                          VAR    BASINP    GEOM    SYMINP    ZMAT    AOBASIS   BASIS     P2S    ABASIS      S 
                                         1400     1410     1200     1210     1080     1600     1650     1300     1700   
                                           T        V       H0       H01     AOSYM     SMH    MOLCAS    ERIS     OPER   

 PROGRAMS   *        TOTAL       INT
 CPU TIMES  *         3.11      2.98
 REAL TIME  *         4.06 SEC
 DISK USED  *       636.44 MB      
 **********************************************************************************************************************************


 PROGRAM * RHF-SCF (CLOSED SHELL)       Authors: W. Meyer, H.-J. Werner


 NUMBER OF ELECTRONS:       7+    7-
 CONVERGENCE THRESHOLDS:    1.00E-10 (Density)    1.00E-13 (Energy)
 MAX. NUMBER OF ITERATIONS:      500
 INTERPOLATION TYPE:            DIIS
 INTERPOLATION STEPS:              2 (START)      1 (STEP)
 LEVEL SHIFTS:                  0.00 (CLOSED)  0.00 (OPEN) 



 Orbital guess generated from atomic densities. Full valence occupancy:    7   2   2   0

 Molecular orbital dump at record        2100.2

 Initial occupancy:   5   1   1   0

 ITERATION    DDIFF          GRAD             ENERGY        2-EL.EN.            DIPOLE MOMENTS         DIIS   ORB.
    1      0.000D+00      0.000D+00       -92.76987969    111.135239    0.00000    0.00000   -2.04333    0    start
    2      0.000D+00      0.907D-02       -92.78122336    109.494185    0.00000    0.00000   -0.92714    1    diag
    3      0.352D-01      0.803D-02       -92.80425872    110.420483    0.00000    0.00000   -1.45480    2    diag
    4      0.122D-01      0.575D-03       -92.80451585    110.364448    0.00000    0.00000   -1.44757    3    diag
    5      0.190D-02      0.133D-03       -92.80453113    110.375240    0.00000    0.00000   -1.44623    4    diag
    6      0.556D-03      0.349D-04       -92.80453211    110.370409    0.00000    0.00000   -1.44638    5    diag
    7      0.528D-04      0.126D-04       -92.80453221    110.371340    0.00000    0.00000   -1.44648    6    diag
    8      0.172D-04      0.255D-05       -92.80453221    110.371330    0.00000    0.00000   -1.44646    7    diag
    9      0.928D-05      0.278D-06       -92.80453221    110.371338    0.00000    0.00000   -1.44646    8    diag
   10      0.156D-05      0.296D-07       -92.80453221    110.371339    0.00000    0.00000   -1.44646    9    orth
   11      0.148D-06      0.388D-08       -92.80453221    110.371339    0.00000    0.00000   -1.44646    9    diag
   12      0.124D-07      0.411D-09       -92.80453221    110.371339    0.00000    0.00000   -1.44646    9    diag
   13      0.121D-08      0.534D-10       -92.80453221    110.371339    0.00000    0.00000   -1.44646    9    diag
   14      0.183D-09      0.795D-11       -92.80453221    110.371339    0.00000    0.00000   -1.44646    9    diag
   15      0.285D-10      0.159D-11       -92.80453221    110.371339    0.00000    0.00000   -1.44646    9    diag
   16      0.631D-11      0.597D-12       -92.80453221    110.371339    0.00000    0.00000   -1.44646    0    orth

 Final occupancy:   5   1   1   0

 !RHF STATE 1.1 Energy                -92.804532212147
 Nuclear energy                        23.64947612
 One-electron energy                 -171.63967800
 Two-electron energy                   55.18566967
 Virial quotient                       -1.00333158
 !RHF STATE 1.1 Dipole moment           0.00000000     0.00000000    -1.44645871
 Dipole moment /Debye                   0.00000000     0.00000000    -3.67629052

 Orbital energies:

         1.1          2.1          3.1          4.1          5.1          6.1          7.1
    -15.596121   -11.404935    -1.246368    -0.836056    -0.578596     0.032539     0.150595

         1.2          2.2          3.2
     -0.486046     0.130646     0.302926

         1.3          2.3          3.3
     -0.486046     0.130646     0.302926

         1.4          2.4
      0.682260     0.962413

 HOMO      1.2    -0.486046 =     -13.2260eV
 LUMO      6.1     0.032539 =       0.8854eV
 LUMO-HOMO         0.518585 =      14.1114eV


 **********************************************************************************************************************************
 DATASETS  * FILE   NREC   LENGTH (MB)   RECORD NAMES
              1      19      213.11       500      610      700      900      950      970     1000      129      960     1100   
                                          VAR    BASINP    GEOM    SYMINP    ZMAT    AOBASIS   BASIS     P2S    ABASIS      S 
                                         1400     1410     1200     1210     1080     1600     1650     1300     1700   
                                           T        V       H0       H01     AOSYM     SMH    MOLCAS    ERIS     OPER   

              2       4        2.98       700     1000      520     2100   
                                         GEOM     BASIS   MCVARS     RHF  

 PROGRAMS   *        TOTAL        HF       INT
 CPU TIMES  *         4.71      1.60      2.98
 REAL TIME  *         6.00 SEC
 DISK USED  *       636.44 MB      
 **********************************************************************************************************************************


 PROGRAM * CCSD (Closed-shell coupled cluster)     Authors: C. Hampel, H.-J. Werner, 1991, M. Deegan, P.J. Knowles, 1992


 Convergence thresholds:  THRVAR = 1.00D-08  THRDEN = 1.00D-12

 CCSD(T)     terms to be evaluated (factor= 1.000)


 Number of core orbitals:           2 (   2   0   0   0 )
 Number of closed-shell orbitals:   5 (   3   1   1   0 )
 Number of external orbitals:     164 (  70  38  38  18 )

 Molecular orbitals read from record     2100.2  Type=RHF/CANONICAL (state 1.1)

 Number of N-1 electron functions:               5
 Number of N-2 electron functions:              15
 Number of singly external CSFs:               286
 Number of doubly external CSFs:             90562
 Total number of CSFs:                       90849

 Length of J-op  integral file:               0.00 MB
 Length of K-op  integral file:               0.65 MB
 Length of 3-ext integral record:             0.00 MB

 Memory could be reduced to 9.35 Mwords without degradation in triples

 Integral transformation finished. Total CPU:   0.21 sec, npass=  1  Memory used:   1.25 MW

 Reference energy:                    -92.80453221

 MP2 singlet pair energy:              -0.21820271
 MP2 triplet pair energy:              -0.12525950
 MP2 correlation energy:               -0.34346221
 MP2 total energy:                    -93.14799443

 SCS-MP2 correlation energy:           -0.33978250   (PS=  1.200000  PT=  0.333333)
 SCS-MP2 total energy:                -93.14431471

 ITER.      SQ.NORM     CORR.ENERGY   TOTAL ENERGY   ENERGY CHANGE        DEN1      VAR(S)    VAR(P)  DIIS     TIME  TIME/IT
   1      1.11227594    -0.34602901   -93.15056123    -0.00256680     0.00976721  0.24D-02  0.28D-02  1  1     0.43     0.24
   2      1.12101590    -0.34632503   -93.15085724    -0.00029601    -0.00934203  0.81D-04  0.38D-03  2  2     0.65     0.25
   3      1.12603141    -0.34653098   -93.15106320    -0.00020596    -0.00273340  0.11D-04  0.44D-04  3  3     0.86     0.25
   4      1.12797475    -0.34660799   -93.15114020    -0.00007700    -0.00063910  0.93D-06  0.51D-05  4  4     1.11     0.25
   5      1.12854718    -0.34660685   -93.15113907     0.00000113    -0.00017110  0.14D-06  0.42D-06  5  5     1.33     0.25
   6      1.12864841    -0.34660438   -93.15113659     0.00000248    -0.00002522  0.93D-08  0.35D-07  6  6     1.55     0.25
   7      1.12865653    -0.34660602   -93.15113823    -0.00000164     0.00000021  0.11D-08  0.28D-08  6  1     1.77     0.25
   8      1.12865961    -0.34660638   -93.15113860    -0.00000037    -0.00000120  0.22D-09  0.21D-09  6  2     2.00     0.25
   9      1.12865949    -0.34660647   -93.15113868    -0.00000008     0.00000023  0.15D-10  0.17D-10  6  3     2.22     0.25
  10      1.12865954    -0.34660648   -93.15113870    -0.00000002     0.00000006  0.36D-11  0.19D-11  6  4     2.45     0.25
  11      1.12865955    -0.34660649   -93.15113870    -0.00000001     0.00000000  0.45D-12  0.34D-12  6  5     2.67     0.25
  12      1.12865951    -0.34660649   -93.15113870    -0.00000000     0.00000003  0.49D-13  0.92D-13  6  6     2.86     0.25
  13      1.12865947    -0.34660649   -93.15113871    -0.00000000     0.00000001  0.27D-14  0.12D-13  6  1     3.09     0.25
  14      1.12865945    -0.34660649   -93.15113871    -0.00000000     0.00000001  0.35D-15  0.15D-14  6  2     3.32     0.25
  15      1.12865944    -0.34660649   -93.15113871    -0.00000000     0.00000000  0.56D-16  0.23D-15  6  3     3.54     0.25
  16      1.12865944    -0.34660649   -93.15113871    -0.00000000     0.00000000  0.22D-16  0.21D-16  6  4     3.75     0.25
  17      1.12865944    -0.34660649   -93.15113871     0.00000000     0.00000000  0.20D-17  0.18D-17  6  5     3.99     0.25
  18      1.12865944    -0.34660649   -93.15113871     0.00000000    -0.00000000  0.11D-18  0.21D-18  6  1     4.24     0.25
  19      1.12865944    -0.34660649   -93.15113871    -0.00000000     0.00000000  0.14D-19  0.91D-20  6  6     4.46     0.25
  20      1.12865944    -0.34660649   -93.15113871    -0.00000000     0.00000000  0.18D-20  0.13D-20  6  2     4.68     0.25

 Norm of t1 vector:      0.06368099      S-energy:     0.00000000      T1 diagnostic:  0.01423950
                                                                       D1 diagnostic:  0.02770814

 Doubles amplitudes (print threshold =  0.500E-01):

         I         J         SYM. A    SYM. B    A         B      T(IJ, AB)

         4         4         2         2         1         1     -0.06162327
         5         5         3         3         1         1     -0.06162327


 Total CPU time for triples:      1.50 sec


 RESULTS
 =======

  Reference energy                    -92.804532212147
  CCSD singlet pair energy             -0.240512153161
  CCSD triplet pair energy             -0.106094340197
  CCSD correlation energy              -0.346606493357

  Triples (T) contribution             -0.017451712947
  Total correlation energy             -0.364058206304

  CCSD total energy                   -93.151138705504
  CCSD[T] energy                      -93.169335317042
  CCSD-T energy                       -93.168224187101
 !CCSD(T) total energy                -93.168590418451

 Timing summary (sec):

 STEP                 CPU(USER)    SYS     CPU(TOT)    WALL
 Transformation          0.21      0.07      0.28      0.28
 CCSD iterations         4.47      0.59      5.06      5.05
 Triples                 1.50      0.06      1.56      1.57

 Program statistics:

 Available memory in ccsd:               994999800
 Min. memory needed in ccsd:                377822
 Max. memory used in ccsd:                  449387
 Max. memory used in cckext:                547289 (20 integral passes)



 **********************************************************************************************************************************
 DATASETS  * FILE   NREC   LENGTH (MB)   RECORD NAMES
              1      20      238.29       500      610      700      900      950      970     1000      129      960     1100   
                                          VAR    BASINP    GEOM    SYMINP    ZMAT    AOBASIS   BASIS     P2S    ABASIS      S 
                                         1400     1410     1200     1210     1080     1600     1650     1300     1700     1380   
                                           T        V       H0       H01     AOSYM     SMH    MOLCAS    ERIS     OPER     JKOP   

              2       4        2.98       700     1000      520     2100   
                                         GEOM     BASIS   MCVARS     RHF  

 PROGRAMS   *        TOTAL   CCSD(T)        HF       INT
 CPU TIMES  *        10.92      6.20      1.60      2.98
 REAL TIME  *        12.94 SEC
 DISK USED  *       636.44 MB      
 **********************************************************************************************************************************

 CCSD(T)/USERDEF energy=    -93.168590418451

        CCSD(T)         HF-SCF  
    -93.16859042    -92.80453221
 **********************************************************************************************************************************
 Molpro calculation terminated
 Variable memory released
