
 Primary working directories    : /tmp/r2666/232696.maple
 Secondary working directories  : /tmp/r2666/232696.maple
 Wavefunction directory         : /ddn/home4/r2666/wfu/
 Main file repository           : /tmp/r2666/232696.maple/

 SHA1      : d5ffa45e93fdbca01ffc919aa182cfdae0147319
 NAME      : 2015.1.35
 ARCHNAME  : linux/x86_64
 FC        : /opt/intel/composer_xe_2015.1.133/bin/intel64/ifort
 BLASLIB   : -Wl,-_start-group /opt/intel/mkl/lib/intel64/libmkl_intel_ilp64.a /opt/intel/mkl/lib/intel64/libmkl_intel_thread.a /opt/intel/mkl/lib/intel64/libmkl_core.a -Wl,-_end-group
 id        : olemiss

 Nodes     nprocs
 cn081        1

 Using customized tuning parameters: mindgm=1; mindgv=20; mindgc=4; mindgr=1; noblas=0; minvec=7
 default implementation of scratch files=df  

 ***,hcn CCSD(T)/TZ-F12 QFF
 memory, 995, m;
 gthresh,energy=1.d-12,zero=1.d-22,oneint=1.d-22,twoint=1.d-22;
 gthresh,optgrad=1.d-8,optstep=1.d-8;
 nocompress;
 geomtyp=xyz
 bohr
 geometry={
 3
         30        30
 N        0.0000000000        0.0000000000        1.1278509343
 C        0.0000000000        0.0000000000       -1.0509987327
 H        0.0000000000        0.0000000000       -3.0739221836
 }
 
 basis={
 default=aug-cc-pvtz
 s,C,8236.0,1235.0,280.8, 79.27,25.59, 8.997,3.319
 s,C,0.9059,0.3643,0.1285000
 p,C,56.0,18.71,4.133,0.2827,0.3827,0.1209
 d,C,30.0,10.0,3.3,1.097,0.318
 f,C,7.0,2.3,0.7610
 s,N,11420.0,1712.0,389.3,110.0,35.57,12.54,4.644
 s,N,1.293,0.5118,0.1787
 p,N,79.89,26.63,5.948,1.742,0.555,0.1725
 d,N,45.0,15.0,5.0,1.654,0.469
 f,N,9.9,3.3,1.093
 s,O,15330.0,2299.0,522.4,147.3,47.55,16.76,6.207
 s,O,1.752,0.6882,0.2384
 p,O,103.5,34.46,7.749,2.28,0.7156,0.214
 d,O,63.0,21.0,7.0,2.314,0.645
 f,O,12.9,4.3,1.428
 s,mg,164900.0,24710.0,5628.0,1596.0,521.0;
 s,mg,188.0,73.01,29.90,12.54,4.306,1.826;
 s,mg,0.7417,0.0761,0.145,0.033,0.0129;
 p,mg,950.70,316.90,74.86,23.72,8.669,3.363;
 p,mg,1.310,0.4911,0.2364,0.08733,0.03237,0.00745;
 d,mg,1.601,0.686,0.126,0.294,0.0468;
 f,mg,1.372,0.588,0.094,0.252;
 }
   {hf,maxit=500;accu,20;}
 {ccsd(t),nocheck,maxit=250;orbital,IGNORE_ERROR;}

 Variables initialized (889), CPU time= 0.00 sec
 Commands  initialized (702), CPU time= 0.01 sec, 572 directives.
 Default parameters read. Elapsed time= 0.05 sec

 Checking input...
 Passed
1


                                         ***  PROGRAM SYSTEM MOLPRO  ***
                                       Copyright, TTI GmbH Stuttgart, 2015
                                    Version 2015.1 linked Jul  9 2018 13:16:40


 **********************************************************************************************************************************
 LABEL *   hcn CCSD(T)/TZ-F12 QFF                                                        
  64 bit serial version                                                                  DATE: 06-Feb-20          TIME: 09:54:47  
 **********************************************************************************************************************************

 SHA1:             d5ffa45e93fdbca01ffc919aa182cfdae0147319
 **********************************************************************************************************************************

 THRESHOLDS:

 ZERO    =  1.00D-22  ONEINT  =  1.00D-22  TWOINT  =  1.00D-22  PREFAC  =  1.00D-14  LOCALI  =  1.00D-09  EORDER  =  1.00D-04
 ENERGY  =  1.00D-12  ETEST   =  0.00D+00  EDENS   =  0.00D+00  THRDEDEF=  1.00D-06  GRADIENT=  1.00D-02  STEP    =  1.00D-03
 ORBITAL =  1.00D-05  CIVEC   =  1.00D-05  COEFF   =  1.00D-04  PRINTCI =  5.00D-02  PUNCHCI =  9.90D+01  OPTGRAD =  3.00D-04
 OPTENERG=  1.00D-06  OPTSTEP =  3.00D-04  THRGRAD =  1.00D-10  COMPRESS=  1.00D-11  VARMIN  =  1.00D-07  VARMAX  =  1.00D-03
 THRDOUB =  0.00D+00  THRDIV  =  1.00D-05  THRRED  =  1.00D-07  THRPSP  =  1.00D+00  THRDC   =  1.00D-10  THRCS   =  1.00D-10
 THRNRM  =  1.00D-08  THREQ   =  0.00D+00  THRDE   =  1.00D+00  THRREF  =  1.00D-05  SPARFAC =  1.00D+00  THRDLP  =  1.00D-07
 THRDIA  =  1.00D-10  THRDLS  =  1.00D-07  THRGPS  =  0.00D+00  THRKEX  =  0.00D+00  THRDIS  =  2.00D-01  THRVAR  =  1.00D-10
 THRLOC  =  1.00D-06  THRGAP  =  1.00D-06  THRLOCT = -1.00D+00  THRGAPT = -1.00D+00  THRORB  =  1.00D-06  THRMLTP =  0.00D+00
 THRCPQCI=  1.00D-10  KEXTA   =  0.00D+00  THRCOARS=  0.00D+00  SYMTOL  =  1.00D-06  GRADTOL =  1.00D-06  THROVL  =  1.00D-08
 THRORTH =  1.00D-08  GRID    =  1.00D-06  GRIDMAX =  1.00D-03  DTMAX   =  0.00D+00  THROCCDE=  1.00D-01  THROCCDE=  1.00D-01



 THRESHOLDS:

 ZERO    =  1.00D-22  ONEINT  =  1.00D-22  TWOINT  =  1.00D-22  PREFAC  =  1.00D-14  LOCALI  =  1.00D-09  EORDER  =  1.00D-04
 ENERGY  =  1.00D-12  ETEST   =  0.00D+00  EDENS   =  0.00D+00  THRDEDEF=  1.00D-06  GRADIENT=  1.00D-02  STEP    =  1.00D-03
 ORBITAL =  1.00D-05  CIVEC   =  1.00D-05  COEFF   =  1.00D-04  PRINTCI =  5.00D-02  PUNCHCI =  9.90D+01  OPTGRAD =  1.00D-08
 OPTENERG=  1.00D-06  OPTSTEP =  1.00D-08  THRGRAD =  1.00D-10  COMPRESS=  1.00D-11  VARMIN  =  1.00D-07  VARMAX  =  1.00D-03
 THRDOUB =  0.00D+00  THRDIV  =  1.00D-05  THRRED  =  1.00D-07  THRPSP  =  1.00D+00  THRDC   =  1.00D-10  THRCS   =  1.00D-10
 THRNRM  =  1.00D-08  THREQ   =  0.00D+00  THRDE   =  1.00D+00  THRREF  =  1.00D-05  SPARFAC =  1.00D+00  THRDLP  =  1.00D-07
 THRDIA  =  1.00D-10  THRDLS  =  1.00D-07  THRGPS  =  0.00D+00  THRKEX  =  0.00D+00  THRDIS  =  2.00D-01  THRVAR  =  1.00D-10
 THRLOC  =  1.00D-06  THRGAP  =  1.00D-06  THRLOCT = -1.00D+00  THRGAPT = -1.00D+00  THRORB  =  1.00D-06  THRMLTP =  0.00D+00
 THRCPQCI=  1.00D-10  KEXTA   =  0.00D+00  THRCOARS=  0.00D+00  SYMTOL  =  1.00D-06  GRADTOL =  1.00D-06  THROVL  =  1.00D-08
 THRORTH =  1.00D-08  GRID    =  1.00D-06  GRIDMAX =  1.00D-03  DTMAX   =  0.00D+00  THROCCDE=  1.00D-01  THROCCDE=  1.00D-01



 Input parameters for SORTINT:

 COMPRESS =    0.000000
 C_FINAL  =    1.000000
 DEBUG    =   -1.000000
 C_SORT1  =    0.000000
 C_SEWARD =    0.000000
 THRESH   =    0.000000
 IO       =  molpro                                                          
 SPRI     =    0.000000
 SETTING GEOMTYP        =    XYZ
 ZUNIT=BOHR
 

 Variable memory set to  995000000 words,  buffer space   230000 words

 SETTING BASIS          =    USERDEF


 Recomputing integrals since basis changed


 Using spherical harmonics

 Library entry H      S aug-cc-pVTZ          selected for orbital group  3
 Library entry H      P aug-cc-pVTZ          selected for orbital group  3
 Library entry H      D aug-cc-pVTZ          selected for orbital group  3


 PROGRAM * SEWARD (Integral evaluation for generally contracted gaussian basis sets)     Author: Roland Lindh, 1990

 Geometry written to block  1 of record 700


 Point group  C2v 



 ATOMIC COORDINATES

 NR  ATOM    CHARGE       X              Y              Z

   1  N       7.00    0.000000000    0.000000000    1.127850934
   2  C       6.00    0.000000000    0.000000000   -1.050998733
   3  H       1.00    0.000000000    0.000000000   -3.073922184

 Bond lengths in Bohr (Angstrom)

 1-2  2.178849667  2-3  2.022923451
     ( 1.152997590)     ( 1.070484990)

 Bond angles

  1-2-3  180.00000000

 NUCLEAR CHARGE:                   14
 NUMBER OF PRIMITIVE AOS:         203
 NUMBER OF SYMMETRY AOS:          173
 NUMBER OF CONTRACTIONS:          171   (  75A1  +  39B1  +  39B2  +  18A2  )
 NUMBER OF CORE ORBITALS:           2   (   2A1  +   0B1  +   0B2  +   0A2  )
 NUMBER OF VALENCE ORBITALS:        9   (   5A1  +   2B1  +   2B2  +   0A2  )


 NUCLEAR REPULSION ENERGY   23.90819446

 EXTRA SYMMETRY OF AOS IN SYMMETRY 1:   1 1 1 1 1 1 1 1 1 1   1 1 1 1 1 1 1 2 1 2   1 2 1 2 1 2 1 2 1 2   1 2 1 1 1 1 1 1 1 1
                                        1 1 1 1 1 1 1 1 1 2   1 2 1 2 1 2 1 2 1 2   1 2 1 2 1 1 1 1 1 1   1 1 2 1 2
 EXTRA SYMMETRY OF AOS IN SYMMETRY 2:   1 1 1 1 1 1 1 1 1 1   1 1 2 1 2 1 2 1 1 1   1 1 1 1 1 1 1 1 1 2   1 2 1 2 1 1 1 1 1
 EXTRA SYMMETRY OF AOS IN SYMMETRY 3:   1 1 1 1 1 1 1 1 1 1   1 1 2 1 2 1 2 1 1 1   1 1 1 1 1 1 1 1 1 2   1 2 1 2 1 1 1 1 1

 Eigenvalues of metric

         1 0.248E-03 0.525E-03 0.921E-03 0.139E-02 0.318E-02 0.767E-02 0.101E-01 0.132E-01
         2 0.543E-02 0.158E-01 0.224E-01 0.349E-01 0.968E-01 0.113E+00 0.125E+00 0.188E+00
         3 0.543E-02 0.158E-01 0.224E-01 0.349E-01 0.968E-01 0.113E+00 0.125E+00 0.188E+00
         4 0.125E+00 0.140E+00 0.195E+00 0.257E+00 0.314E+00 0.379E+00 0.485E+00 0.599E+00


 Contracted 2-electron integrals neglected if value below      1.0D-22

       21741869. INTEGRALS WRITTEN OUT IN    5310 BLOCKS ON RECORD 1290 OF FILE 1


 NUMBER OF SORTED TWO-ELECTRON INTEGRALS:   28272141.     BUFFER LENGTH:  32768
 NUMBER OF SEGMENTS:   2  SEGMENT LENGTH:   15998211      RECORD LENGTH: 524288

 Memory used in sort:      16.56 MW

 SORT1 READ    21741869. AND WROTE    22140140. INTEGRALS IN     65 RECORDS. CPU TIME:     0.49 SEC, REAL TIME:     0.60 SEC
 SORT2 READ    22140140. AND WROTE    28272141. INTEGRALS IN      2 RECORDS. CPU TIME:     0.37 SEC, REAL TIME:     0.48 SEC

 FILE SIZES:   FILE 1:   368.6 MBYTE,  FILE 4:   272.7 MBYTE,   TOTAL:    641.3 MBYTE

 OPERATOR DM      FOR CENTER  0  COORDINATES:    0.000000    0.000000    0.000000


 **********************************************************************************************************************************
 DATASETS  * FILE   NREC   LENGTH (MB)   RECORD NAMES
              1      19      213.47       500      610      700      900      950      970     1000      129      960     1100   
                                          VAR    BASINP    GEOM    SYMINP    ZMAT    AOBASIS   BASIS     P2S    ABASIS      S 
                                         1400     1410     1200     1210     1080     1600     1650     1300     1700   
                                           T        V       H0       H01     AOSYM     SMH    MOLCAS    ERIS     OPER   

 PROGRAMS   *        TOTAL       INT
 CPU TIMES  *         3.09      3.02
 REAL TIME  *         3.98 SEC
 DISK USED  *       641.62 MB      
 **********************************************************************************************************************************


 PROGRAM * RHF-SCF (CLOSED SHELL)       Authors: W. Meyer, H.-J. Werner


 NUMBER OF ELECTRONS:       7+    7-
 CONVERGENCE THRESHOLDS:    1.00E-10 (Density)    1.00E-13 (Energy)
 MAX. NUMBER OF ITERATIONS:      500
 INTERPOLATION TYPE:            DIIS
 INTERPOLATION STEPS:              2 (START)      1 (STEP)
 LEVEL SHIFTS:                  0.00 (CLOSED)  0.00 (OPEN) 



 Orbital guess generated from atomic densities. Full valence occupancy:    7   2   2   0

 Molecular orbital dump at record        2100.2

 Initial occupancy:   5   1   1   0

 ITERATION    DDIFF          GRAD             ENERGY        2-EL.EN.            DIPOLE MOMENTS         DIIS   ORB.
    1      0.000D+00      0.000D+00       -92.77152568    111.716094    0.00000    0.00000   -2.03083    0    start
    2      0.000D+00      0.915D-02       -92.78387830    109.991242    0.00000    0.00000   -0.94691    1    diag
    3      0.344D-01      0.791D-02       -92.80603443    110.924754    0.00000    0.00000   -1.45240    2    diag
    4      0.119D-01      0.564D-03       -92.80628336    110.875484    0.00000    0.00000   -1.44519    3    diag
    5      0.187D-02      0.126D-03       -92.80629799    110.883628    0.00000    0.00000   -1.44391    4    diag
    6      0.528D-03      0.331D-04       -92.80629879    110.879408    0.00000    0.00000   -1.44418    5    diag
    7      0.424D-04      0.118D-04       -92.80629888    110.880397    0.00000    0.00000   -1.44426    6    diag
    8      0.159D-04      0.235D-05       -92.80629889    110.880380    0.00000    0.00000   -1.44424    7    diag
    9      0.825D-05      0.258D-06       -92.80629889    110.880387    0.00000    0.00000   -1.44424    8    diag
   10      0.139D-05      0.285D-07       -92.80629889    110.880388    0.00000    0.00000   -1.44424    9    orth
   11      0.136D-06      0.371D-08       -92.80629889    110.880388    0.00000    0.00000   -1.44424    9    diag
   12      0.120D-07      0.392D-09       -92.80629889    110.880388    0.00000    0.00000   -1.44424    9    diag
   13      0.117D-08      0.505D-10       -92.80629889    110.880388    0.00000    0.00000   -1.44424    9    diag
   14      0.173D-09      0.759D-11       -92.80629889    110.880388    0.00000    0.00000   -1.44424    9    diag
   15      0.286D-10      0.159D-11       -92.80629889    110.880388    0.00000    0.00000   -1.44424    9    diag
   16      0.597D-11      0.670D-12       -92.80629889    110.880388    0.00000    0.00000   -1.44424    9    diag
   17      0.169D-11      0.395D-12       -92.80629889    110.880388    0.00000    0.00000   -1.44424    9    diag
   18      0.983D-12      0.274D-12       -92.80629889    110.880388    0.00000    0.00000   -1.44424    0    orth

 Final occupancy:   5   1   1   0

 !RHF STATE 1.1 Energy                -92.806298885545
 Nuclear energy                        23.90819446
 One-electron energy                 -172.15468756
 Two-electron energy                   55.44019422
 Virial quotient                       -1.00247145
 !RHF STATE 1.1 Dipole moment           0.00000000     0.00000000    -1.44423566
 Dipole moment /Debye                   0.00000000     0.00000000    -3.67064046

 Orbital energies:

         1.1          2.1          3.1          4.1          5.1          6.1          7.1
    -15.590944   -11.399750    -1.253725    -0.834054    -0.577885     0.032633     0.151181

         1.2          2.2          3.2
     -0.490396     0.133603     0.306322

         1.3          2.3          3.3
     -0.490396     0.133603     0.306322

         1.4          2.4
      0.682647     0.962685

 HOMO      1.2    -0.490396 =     -13.3444eV
 LUMO      6.1     0.032633 =       0.8880eV
 LUMO-HOMO         0.523029 =      14.2324eV


 **********************************************************************************************************************************
 DATASETS  * FILE   NREC   LENGTH (MB)   RECORD NAMES
              1      19      213.47       500      610      700      900      950      970     1000      129      960     1100   
                                          VAR    BASINP    GEOM    SYMINP    ZMAT    AOBASIS   BASIS     P2S    ABASIS      S 
                                         1400     1410     1200     1210     1080     1600     1650     1300     1700   
                                           T        V       H0       H01     AOSYM     SMH    MOLCAS    ERIS     OPER   

              2       4        2.98       700     1000      520     2100   
                                         GEOM     BASIS   MCVARS     RHF  

 PROGRAMS   *        TOTAL        HF       INT
 CPU TIMES  *         4.90      1.81      3.02
 REAL TIME  *         6.10 SEC
 DISK USED  *       641.62 MB      
 **********************************************************************************************************************************


 PROGRAM * CCSD (Closed-shell coupled cluster)     Authors: C. Hampel, H.-J. Werner, 1991, M. Deegan, P.J. Knowles, 1992


 Convergence thresholds:  THRVAR = 1.00D-08  THRDEN = 1.00D-12

 CCSD(T)     terms to be evaluated (factor= 1.000)


 Number of core orbitals:           2 (   2   0   0   0 )
 Number of closed-shell orbitals:   5 (   3   1   1   0 )
 Number of external orbitals:     164 (  70  38  38  18 )

 Molecular orbitals read from record     2100.2  Type=RHF/CANONICAL (state 1.1)

 Number of N-1 electron functions:               5
 Number of N-2 electron functions:              15
 Number of singly external CSFs:               286
 Number of doubly external CSFs:             90562
 Total number of CSFs:                       90849

 Length of J-op  integral file:               0.00 MB
 Length of K-op  integral file:               0.65 MB
 Length of 3-ext integral record:             0.00 MB

 Memory could be reduced to 9.35 Mwords without degradation in triples

 Integral transformation finished. Total CPU:   0.21 sec, npass=  1  Memory used:   1.25 MW

 Reference energy:                    -92.80629889

 MP2 singlet pair energy:              -0.21676145
 MP2 triplet pair energy:              -0.12409665
 MP2 correlation energy:               -0.34085809
 MP2 total energy:                    -93.14715698

 SCS-MP2 correlation energy:           -0.33732943   (PS=  1.200000  PT=  0.333333)
 SCS-MP2 total energy:                -93.14362831

 ITER.      SQ.NORM     CORR.ENERGY   TOTAL ENERGY   ENERGY CHANGE        DEN1      VAR(S)    VAR(P)  DIIS     TIME  TIME/IT
   1      1.11049384    -0.34409749   -93.15039637    -0.00323939     0.00857531  0.23D-02  0.26D-02  1  1     0.43     0.25
   2      1.11890088    -0.34448593   -93.15078482    -0.00038845    -0.00904104  0.75D-04  0.36D-03  2  2     0.66     0.25
   3      1.12366493    -0.34468062   -93.15097950    -0.00019468    -0.00263928  0.10D-04  0.41D-04  3  3     0.85     0.25
   4      1.12546962    -0.34475001   -93.15104889    -0.00006939    -0.00060438  0.89D-06  0.45D-05  4  4     1.07     0.25
   5      1.12598991    -0.34474876   -93.15104765     0.00000124    -0.00015748  0.14D-06  0.37D-06  5  5     1.31     0.25
   6      1.12608018    -0.34474646   -93.15104534     0.00000230    -0.00002277  0.90D-08  0.30D-07  6  6     1.53     0.25
   7      1.12608741    -0.34474785   -93.15104673    -0.00000139     0.00000021  0.13D-08  0.24D-08  6  1     1.75     0.25
   8      1.12609018    -0.34474817   -93.15104705    -0.00000032    -0.00000104  0.25D-09  0.18D-09  6  2     1.96     0.25
   9      1.12609014    -0.34474824   -93.15104712    -0.00000007     0.00000018  0.21D-10  0.17D-10  6  3     2.17     0.25
  10      1.12609021    -0.34474825   -93.15104713    -0.00000001     0.00000006  0.51D-11  0.22D-11  6  4     2.39     0.25
  11      1.12609025    -0.34474825   -93.15104714    -0.00000000     0.00000000  0.49D-12  0.44D-12  6  5     2.62     0.25
  12      1.12609020    -0.34474825   -93.15104714    -0.00000000     0.00000003  0.38D-13  0.11D-12  6  6     2.85     0.25
  13      1.12609016    -0.34474825   -93.15104714    -0.00000000     0.00000001  0.21D-14  0.14D-13  6  1     3.05     0.25
  14      1.12609014    -0.34474825   -93.15104714    -0.00000000     0.00000001  0.58D-15  0.18D-14  6  2     3.27     0.25
  15      1.12609013    -0.34474825   -93.15104714    -0.00000000     0.00000000  0.99D-16  0.27D-15  6  3     3.49     0.25
  16      1.12609013    -0.34474825   -93.15104714    -0.00000000     0.00000000  0.78D-17  0.13D-16  6  5     3.71     0.25
  17      1.12609013    -0.34474825   -93.15104714    -0.00000000     0.00000000  0.61D-18  0.56D-18  6  4     3.93     0.25
  18      1.12609013    -0.34474825   -93.15104714     0.00000000    -0.00000000  0.89D-19  0.81D-19  6  6     4.14     0.25
  19      1.12609013    -0.34474825   -93.15104714     0.00000000     0.00000000  0.16D-19  0.53D-20  6  1     4.35     0.25
  20      1.12609013    -0.34474825   -93.15104714    -0.00000000     0.00000000  0.19D-20  0.18D-20  6  2     4.58     0.25

 Norm of t1 vector:      0.06179310      S-energy:     0.00000000      T1 diagnostic:  0.01381736
                                                                       D1 diagnostic:  0.02679792

 Doubles amplitudes (print threshold =  0.500E-01):

         I         J         SYM. A    SYM. B    A         B      T(IJ, AB)

         4         4         2         2         1         1     -0.05841314
         5         5         3         3         1         1     -0.05841314


 Total CPU time for triples:      1.20 sec


 RESULTS
 =======

  Reference energy                    -92.806298885546
  CCSD singlet pair energy             -0.238979306777
  CCSD triplet pair energy             -0.105768947868
  CCSD correlation energy              -0.344748254643

  Triples (T) contribution             -0.017027857422
  Total correlation energy             -0.361776112065

  CCSD total energy                   -93.151047140189
  CCSD[T] energy                      -93.168771617885
  CCSD-T energy                       -93.167730604786
 !CCSD(T) total energy                -93.168074997610

 Timing summary (sec):

 STEP                 CPU(USER)    SYS     CPU(TOT)    WALL
 Transformation          0.21      0.07      0.28      0.29
 CCSD iterations         4.38      0.71      5.09      5.10
 Triples                 1.20      0.04      1.24      1.23

 Program statistics:

 Available memory in ccsd:               994999800
 Min. memory needed in ccsd:                377822
 Max. memory used in ccsd:                  449387
 Max. memory used in cckext:                547289 (20 integral passes)



 **********************************************************************************************************************************
 DATASETS  * FILE   NREC   LENGTH (MB)   RECORD NAMES
              1      20      238.65       500      610      700      900      950      970     1000      129      960     1100   
                                          VAR    BASINP    GEOM    SYMINP    ZMAT    AOBASIS   BASIS     P2S    ABASIS      S 
                                         1400     1410     1200     1210     1080     1600     1650     1300     1700     1380   
                                           T        V       H0       H01     AOSYM     SMH    MOLCAS    ERIS     OPER     JKOP   

              2       4        2.98       700     1000      520     2100   
                                         GEOM     BASIS   MCVARS     RHF  

 PROGRAMS   *        TOTAL   CCSD(T)        HF       INT
 CPU TIMES  *        10.73      5.82      1.81      3.02
 REAL TIME  *        12.78 SEC
 DISK USED  *       641.62 MB      
 **********************************************************************************************************************************

 CCSD(T)/USERDEF energy=    -93.168074997610

        CCSD(T)         HF-SCF  
    -93.16807500    -92.80629889
 **********************************************************************************************************************************
 Molpro calculation terminated
 Variable memory released
