
 Primary working directories    : /tmp/r2666/232683.maple
 Secondary working directories  : /tmp/r2666/232683.maple
 Wavefunction directory         : /ddn/home4/r2666/wfu/
 Main file repository           : /tmp/r2666/232683.maple/

 SHA1      : d5ffa45e93fdbca01ffc919aa182cfdae0147319
 NAME      : 2015.1.35
 ARCHNAME  : linux/x86_64
 FC        : /opt/intel/composer_xe_2015.1.133/bin/intel64/ifort
 BLASLIB   : -Wl,-_start-group /opt/intel/mkl/lib/intel64/libmkl_intel_ilp64.a /opt/intel/mkl/lib/intel64/libmkl_intel_thread.a /opt/intel/mkl/lib/intel64/libmkl_core.a -Wl,-_end-group
 id        : olemiss

 Nodes     nprocs
 cn075        1

 Using customized tuning parameters: mindgm=1; mindgv=20; mindgc=4; mindgr=1; noblas=0; minvec=7
 default implementation of scratch files=df  

 ***,hcn CCSD(T)/TZ-F12 QFF
 memory, 995, m;
 gthresh,energy=1.d-12,zero=1.d-22,oneint=1.d-22,twoint=1.d-22;
 gthresh,optgrad=1.d-8,optstep=1.d-8;
 nocompress;
 geomtyp=xyz
 bohr
 geometry={
 3
         17        17
 N        0.0000000000        0.0000000000        1.1215518477
 C        0.0000000000        0.0000000000       -1.0478491894
 H        0.0000000000        0.0000000000       -3.0707726403
 }
 
 basis={
 default=aug-cc-pvtz
 s,C,8236.0,1235.0,280.8, 79.27,25.59, 8.997,3.319
 s,C,0.9059,0.3643,0.1285000
 p,C,56.0,18.71,4.133,0.2827,0.3827,0.1209
 d,C,30.0,10.0,3.3,1.097,0.318
 f,C,7.0,2.3,0.7610
 s,N,11420.0,1712.0,389.3,110.0,35.57,12.54,4.644
 s,N,1.293,0.5118,0.1787
 p,N,79.89,26.63,5.948,1.742,0.555,0.1725
 d,N,45.0,15.0,5.0,1.654,0.469
 f,N,9.9,3.3,1.093
 s,O,15330.0,2299.0,522.4,147.3,47.55,16.76,6.207
 s,O,1.752,0.6882,0.2384
 p,O,103.5,34.46,7.749,2.28,0.7156,0.214
 d,O,63.0,21.0,7.0,2.314,0.645
 f,O,12.9,4.3,1.428
 s,mg,164900.0,24710.0,5628.0,1596.0,521.0;
 s,mg,188.0,73.01,29.90,12.54,4.306,1.826;
 s,mg,0.7417,0.0761,0.145,0.033,0.0129;
 p,mg,950.70,316.90,74.86,23.72,8.669,3.363;
 p,mg,1.310,0.4911,0.2364,0.08733,0.03237,0.00745;
 d,mg,1.601,0.686,0.126,0.294,0.0468;
 f,mg,1.372,0.588,0.094,0.252;
 }
   {hf,maxit=500;accu,20;}
 {ccsd(t),nocheck,maxit=250;orbital,IGNORE_ERROR;}

 Variables initialized (889), CPU time= 0.01 sec
 Commands  initialized (702), CPU time= 0.01 sec, 572 directives.
 Default parameters read. Elapsed time= 0.07 sec

 Checking input...
 Passed
1


                                         ***  PROGRAM SYSTEM MOLPRO  ***
                                       Copyright, TTI GmbH Stuttgart, 2015
                                    Version 2015.1 linked Jul  9 2018 13:16:40


 **********************************************************************************************************************************
 LABEL *   hcn CCSD(T)/TZ-F12 QFF                                                        
  64 bit serial version                                                                  DATE: 06-Feb-20          TIME: 09:54:47  
 **********************************************************************************************************************************

 SHA1:             d5ffa45e93fdbca01ffc919aa182cfdae0147319
 **********************************************************************************************************************************

 THRESHOLDS:

 ZERO    =  1.00D-22  ONEINT  =  1.00D-22  TWOINT  =  1.00D-22  PREFAC  =  1.00D-14  LOCALI  =  1.00D-09  EORDER  =  1.00D-04
 ENERGY  =  1.00D-12  ETEST   =  0.00D+00  EDENS   =  0.00D+00  THRDEDEF=  1.00D-06  GRADIENT=  1.00D-02  STEP    =  1.00D-03
 ORBITAL =  1.00D-05  CIVEC   =  1.00D-05  COEFF   =  1.00D-04  PRINTCI =  5.00D-02  PUNCHCI =  9.90D+01  OPTGRAD =  3.00D-04
 OPTENERG=  1.00D-06  OPTSTEP =  3.00D-04  THRGRAD =  1.00D-10  COMPRESS=  1.00D-11  VARMIN  =  1.00D-07  VARMAX  =  1.00D-03
 THRDOUB =  0.00D+00  THRDIV  =  1.00D-05  THRRED  =  1.00D-07  THRPSP  =  1.00D+00  THRDC   =  1.00D-10  THRCS   =  1.00D-10
 THRNRM  =  1.00D-08  THREQ   =  0.00D+00  THRDE   =  1.00D+00  THRREF  =  1.00D-05  SPARFAC =  1.00D+00  THRDLP  =  1.00D-07
 THRDIA  =  1.00D-10  THRDLS  =  1.00D-07  THRGPS  =  0.00D+00  THRKEX  =  0.00D+00  THRDIS  =  2.00D-01  THRVAR  =  1.00D-10
 THRLOC  =  1.00D-06  THRGAP  =  1.00D-06  THRLOCT = -1.00D+00  THRGAPT = -1.00D+00  THRORB  =  1.00D-06  THRMLTP =  0.00D+00
 THRCPQCI=  1.00D-10  KEXTA   =  0.00D+00  THRCOARS=  0.00D+00  SYMTOL  =  1.00D-06  GRADTOL =  1.00D-06  THROVL  =  1.00D-08
 THRORTH =  1.00D-08  GRID    =  1.00D-06  GRIDMAX =  1.00D-03  DTMAX   =  0.00D+00  THROCCDE=  1.00D-01  THROCCDE=  1.00D-01



 THRESHOLDS:

 ZERO    =  1.00D-22  ONEINT  =  1.00D-22  TWOINT  =  1.00D-22  PREFAC  =  1.00D-14  LOCALI  =  1.00D-09  EORDER  =  1.00D-04
 ENERGY  =  1.00D-12  ETEST   =  0.00D+00  EDENS   =  0.00D+00  THRDEDEF=  1.00D-06  GRADIENT=  1.00D-02  STEP    =  1.00D-03
 ORBITAL =  1.00D-05  CIVEC   =  1.00D-05  COEFF   =  1.00D-04  PRINTCI =  5.00D-02  PUNCHCI =  9.90D+01  OPTGRAD =  1.00D-08
 OPTENERG=  1.00D-06  OPTSTEP =  1.00D-08  THRGRAD =  1.00D-10  COMPRESS=  1.00D-11  VARMIN  =  1.00D-07  VARMAX  =  1.00D-03
 THRDOUB =  0.00D+00  THRDIV  =  1.00D-05  THRRED  =  1.00D-07  THRPSP  =  1.00D+00  THRDC   =  1.00D-10  THRCS   =  1.00D-10
 THRNRM  =  1.00D-08  THREQ   =  0.00D+00  THRDE   =  1.00D+00  THRREF  =  1.00D-05  SPARFAC =  1.00D+00  THRDLP  =  1.00D-07
 THRDIA  =  1.00D-10  THRDLS  =  1.00D-07  THRGPS  =  0.00D+00  THRKEX  =  0.00D+00  THRDIS  =  2.00D-01  THRVAR  =  1.00D-10
 THRLOC  =  1.00D-06  THRGAP  =  1.00D-06  THRLOCT = -1.00D+00  THRGAPT = -1.00D+00  THRORB  =  1.00D-06  THRMLTP =  0.00D+00
 THRCPQCI=  1.00D-10  KEXTA   =  0.00D+00  THRCOARS=  0.00D+00  SYMTOL  =  1.00D-06  GRADTOL =  1.00D-06  THROVL  =  1.00D-08
 THRORTH =  1.00D-08  GRID    =  1.00D-06  GRIDMAX =  1.00D-03  DTMAX   =  0.00D+00  THROCCDE=  1.00D-01  THROCCDE=  1.00D-01



 Input parameters for SORTINT:

 COMPRESS =    0.000000
 C_FINAL  =    1.000000
 DEBUG    =   -1.000000
 C_SORT1  =    0.000000
 C_SEWARD =    0.000000
 THRESH   =    0.000000
 IO       =  molpro                                                          
 SPRI     =    0.000000
 SETTING GEOMTYP        =    XYZ
 ZUNIT=BOHR
 

 Variable memory set to  995000000 words,  buffer space   230000 words

 SETTING BASIS          =    USERDEF


 Recomputing integrals since basis changed


 Using spherical harmonics

 Library entry H      S aug-cc-pVTZ          selected for orbital group  3
 Library entry H      P aug-cc-pVTZ          selected for orbital group  3
 Library entry H      D aug-cc-pVTZ          selected for orbital group  3


 PROGRAM * SEWARD (Integral evaluation for generally contracted gaussian basis sets)     Author: Roland Lindh, 1990

 Geometry written to block  1 of record 700


 Point group  C2v 



 ATOMIC COORDINATES

 NR  ATOM    CHARGE       X              Y              Z

   1  N       7.00    0.000000000    0.000000000    1.121551848
   2  C       6.00    0.000000000    0.000000000   -1.047849189
   3  H       1.00    0.000000000    0.000000000   -3.070772640

 Bond lengths in Bohr (Angstrom)

 1-2  2.169401037  2-3  2.022923451
     ( 1.147997590)     ( 1.070484990)

 Bond angles

  1-2-3  179.99999809

 NUCLEAR CHARGE:                   14
 NUMBER OF PRIMITIVE AOS:         203
 NUMBER OF SYMMETRY AOS:          173
 NUMBER OF CONTRACTIONS:          171   (  75A1  +  39B1  +  39B2  +  18A2  )
 NUMBER OF CORE ORBITALS:           2   (   2A1  +   0B1  +   0B2  +   0A2  )
 NUMBER OF VALENCE ORBITALS:        9   (   5A1  +   2B1  +   2B2  +   0A2  )


 NUCLEAR REPULSION ENERGY   23.99590506

 EXTRA SYMMETRY OF AOS IN SYMMETRY 1:   1 1 1 1 1 1 1 1 1 1   1 1 1 1 1 1 1 2 1 2   1 2 1 2 1 2 1 2 1 2   1 2 1 1 1 1 1 1 1 1
                                        1 1 1 1 1 1 1 1 1 2   1 2 1 2 1 2 1 2 1 2   1 2 1 2 1 1 1 1 1 1   1 1 2 1 2
 EXTRA SYMMETRY OF AOS IN SYMMETRY 2:   1 1 1 1 1 1 1 1 1 1   1 1 2 1 2 1 2 1 1 1   1 1 1 1 1 1 1 1 1 2   1 2 1 2 1 1 1 1 1
 EXTRA SYMMETRY OF AOS IN SYMMETRY 3:   1 1 1 1 1 1 1 1 1 1   1 1 2 1 2 1 2 1 1 1   1 1 1 1 1 1 1 1 1 2   1 2 1 2 1 1 1 1 1

 Eigenvalues of metric

         1 0.247E-03 0.512E-03 0.913E-03 0.139E-02 0.317E-02 0.764E-02 0.101E-01 0.132E-01
         2 0.540E-02 0.157E-01 0.221E-01 0.346E-01 0.968E-01 0.113E+00 0.125E+00 0.188E+00
         3 0.540E-02 0.157E-01 0.221E-01 0.346E-01 0.968E-01 0.113E+00 0.125E+00 0.188E+00
         4 0.124E+00 0.140E+00 0.194E+00 0.257E+00 0.314E+00 0.379E+00 0.484E+00 0.597E+00


 Contracted 2-electron integrals neglected if value below      1.0D-22

       21775160. INTEGRALS WRITTEN OUT IN    5318 BLOCKS ON RECORD 1290 OF FILE 1


 NUMBER OF SORTED TWO-ELECTRON INTEGRALS:   28272141.     BUFFER LENGTH:  32768
 NUMBER OF SEGMENTS:   2  SEGMENT LENGTH:   15998211      RECORD LENGTH: 524288

 Memory used in sort:      16.56 MW

 SORT1 READ    21775160. AND WROTE    22173942. INTEGRALS IN     65 RECORDS. CPU TIME:     0.51 SEC, REAL TIME:     0.69 SEC
 SORT2 READ    22173942. AND WROTE    28272141. INTEGRALS IN      2 RECORDS. CPU TIME:     0.42 SEC, REAL TIME:     0.54 SEC

 FILE SIZES:   FILE 1:   369.1 MBYTE,  FILE 4:   272.7 MBYTE,   TOTAL:    641.8 MBYTE

 OPERATOR DM      FOR CENTER  0  COORDINATES:    0.000000    0.000000    0.000000


 **********************************************************************************************************************************
 DATASETS  * FILE   NREC   LENGTH (MB)   RECORD NAMES
              1      19      213.65       500      610      700      900      950      970     1000      129      960     1100   
                                          VAR    BASINP    GEOM    SYMINP    ZMAT    AOBASIS   BASIS     P2S    ABASIS      S 
                                         1400     1410     1200     1210     1080     1600     1650     1300     1700   
                                           T        V       H0       H01     AOSYM     SMH    MOLCAS    ERIS     OPER   

 PROGRAMS   *        TOTAL       INT
 CPU TIMES  *         3.74      3.62
 REAL TIME  *         4.93 SEC
 DISK USED  *       642.14 MB      
 **********************************************************************************************************************************


 PROGRAM * RHF-SCF (CLOSED SHELL)       Authors: W. Meyer, H.-J. Werner


 NUMBER OF ELECTRONS:       7+    7-
 CONVERGENCE THRESHOLDS:    1.00E-10 (Density)    1.00E-13 (Energy)
 MAX. NUMBER OF ITERATIONS:      500
 INTERPOLATION TYPE:            DIIS
 INTERPOLATION STEPS:              2 (START)      1 (STEP)
 LEVEL SHIFTS:                  0.00 (CLOSED)  0.00 (OPEN) 



 Orbital guess generated from atomic densities. Full valence occupancy:    7   2   2   0

 Molecular orbital dump at record        2100.2

 Initial occupancy:   5   1   1   0

 ITERATION    DDIFF          GRAD             ENERGY        2-EL.EN.            DIPOLE MOMENTS         DIIS   ORB.
    1      0.000D+00      0.000D+00       -92.77184040    111.913219    0.00000    0.00000   -2.02674    0    start
    2      0.000D+00      0.918D-02       -92.78453023    110.159026    0.00000    0.00000   -0.95331    1    diag
    3      0.341D-01      0.788D-02       -92.80641037    111.095491    0.00000    0.00000   -1.45168    2    diag
    4      0.117D-01      0.561D-03       -92.80665668    111.048386    0.00000    0.00000   -1.44444    3    diag
    5      0.186D-02      0.124D-03       -92.80667111    111.055596    0.00000    0.00000   -1.44320    4    diag
    6      0.517D-03      0.324D-04       -92.80667186    111.051633    0.00000    0.00000   -1.44350    5    diag
    7      0.396D-04      0.114D-04       -92.80667194    111.052642    0.00000    0.00000   -1.44356    6    diag
    8      0.154D-04      0.229D-05       -92.80667194    111.052621    0.00000    0.00000   -1.44354    7    diag
    9      0.791D-05      0.252D-06       -92.80667194    111.052629    0.00000    0.00000   -1.44354    8    diag
   10      0.134D-05      0.282D-07       -92.80667194    111.052630    0.00000    0.00000   -1.44354    9    orth
   11      0.132D-06      0.366D-08       -92.80667194    111.052630    0.00000    0.00000   -1.44354    9    diag
   12      0.119D-07      0.386D-09       -92.80667194    111.052630    0.00000    0.00000   -1.44354    9    diag
   13      0.116D-08      0.496D-10       -92.80667194    111.052630    0.00000    0.00000   -1.44354    9    diag
   14      0.173D-09      0.750D-11       -92.80667194    111.052630    0.00000    0.00000   -1.44354    9    diag
   15      0.290D-10      0.157D-11       -92.80667194    111.052630    0.00000    0.00000   -1.44354    9    diag
   16      0.544D-11      0.627D-12       -92.80667194    111.052630    0.00000    0.00000   -1.44354    0    orth

 Final occupancy:   5   1   1   0

 !RHF STATE 1.1 Energy                -92.806671941348
 Nuclear energy                        23.99590506
 One-electron energy                 -172.32889193
 Two-electron energy                   55.52631493
 Virial quotient                       -1.00217183
 !RHF STATE 1.1 Dipole moment           0.00000000     0.00000000    -1.44354149
 Dipole moment /Debye                   0.00000000     0.00000000    -3.66887619

 Orbital energies:

         1.1          2.1          3.1          4.1          5.1          6.1          7.1
    -15.589195   -11.397996    -1.256183    -0.833392    -0.577628     0.032664     0.151370

         1.2          2.2          3.2
     -0.491869     0.134571     0.307487

         1.3          2.3          3.3
     -0.491869     0.134571     0.307487

         1.4          2.4
      0.682777     0.962785

 HOMO      1.2    -0.491869 =     -13.3844eV
 LUMO      6.1     0.032664 =       0.8888eV
 LUMO-HOMO         0.524533 =      14.2733eV


 **********************************************************************************************************************************
 DATASETS  * FILE   NREC   LENGTH (MB)   RECORD NAMES
              1      19      213.65       500      610      700      900      950      970     1000      129      960     1100   
                                          VAR    BASINP    GEOM    SYMINP    ZMAT    AOBASIS   BASIS     P2S    ABASIS      S 
                                         1400     1410     1200     1210     1080     1600     1650     1300     1700   
                                           T        V       H0       H01     AOSYM     SMH    MOLCAS    ERIS     OPER   

              2       4        2.98       700     1000      520     2100   
                                         GEOM     BASIS   MCVARS     RHF  

 PROGRAMS   *        TOTAL        HF       INT
 CPU TIMES  *         5.67      1.93      3.62
 REAL TIME  *         7.19 SEC
 DISK USED  *       642.14 MB      
 **********************************************************************************************************************************


 PROGRAM * CCSD (Closed-shell coupled cluster)     Authors: C. Hampel, H.-J. Werner, 1991, M. Deegan, P.J. Knowles, 1992


 Convergence thresholds:  THRVAR = 1.00D-08  THRDEN = 1.00D-12

 CCSD(T)     terms to be evaluated (factor= 1.000)


 Number of core orbitals:           2 (   2   0   0   0 )
 Number of closed-shell orbitals:   5 (   3   1   1   0 )
 Number of external orbitals:     164 (  70  38  38  18 )

 Molecular orbitals read from record     2100.2  Type=RHF/CANONICAL (state 1.1)

 Number of N-1 electron functions:               5
 Number of N-2 electron functions:              15
 Number of singly external CSFs:               286
 Number of doubly external CSFs:             90562
 Total number of CSFs:                       90849

 Length of J-op  integral file:               0.00 MB
 Length of K-op  integral file:               0.65 MB
 Length of 3-ext integral record:             0.00 MB

 Memory could be reduced to 9.35 Mwords without degradation in triples

 Integral transformation finished. Total CPU:   0.27 sec, npass=  1  Memory used:   1.25 MW

 Reference energy:                    -92.80667194

 MP2 singlet pair energy:              -0.21629110
 MP2 triplet pair energy:              -0.12371865
 MP2 correlation energy:               -0.34000975
 MP2 total energy:                    -93.14668169

 SCS-MP2 correlation energy:           -0.33652981   (PS=  1.200000  PT=  0.333333)
 SCS-MP2 total energy:                -93.14320175

 ITER.      SQ.NORM     CORR.ENERGY   TOTAL ENERGY   ENERGY CHANGE        DEN1      VAR(S)    VAR(P)  DIIS     TIME  TIME/IT
   1      1.10990518    -0.34346583   -93.15013777    -0.00345608     0.00819273  0.22D-02  0.26D-02  1  1     0.53     0.29
   2      1.11820515    -0.34388272   -93.15055466    -0.00041689    -0.00894451  0.73D-04  0.35D-03  2  2     0.77     0.29
   3      1.12288790    -0.34407366   -93.15074560    -0.00019094    -0.00260848  0.10D-04  0.39D-04  3  3     1.04     0.29
   4      1.12464851    -0.34414068   -93.15081263    -0.00006703    -0.00059318  0.88D-06  0.44D-05  4  4     1.30     0.29
   5      1.12515245    -0.34413941   -93.15081136     0.00000127    -0.00015315  0.14D-06  0.35D-06  5  5     1.56     0.30
   6      1.12523936    -0.34413716   -93.15080911     0.00000225    -0.00002201  0.89D-08  0.28D-07  6  6     1.82     0.30
   7      1.12524633    -0.34413848   -93.15081042    -0.00000131     0.00000020  0.13D-08  0.23D-08  6  1     2.10     0.30
   8      1.12524901    -0.34413878   -93.15081072    -0.00000030    -0.00000099  0.26D-09  0.17D-09  6  2     2.35     0.30
   9      1.12524900    -0.34413885   -93.15081079    -0.00000007     0.00000017  0.24D-10  0.17D-10  6  3     2.63     0.30
  10      1.12524908    -0.34413886   -93.15081080    -0.00000001     0.00000005  0.55D-11  0.23D-11  6  4     2.89     0.30
  11      1.12524912    -0.34413886   -93.15081080    -0.00000000     0.00000000  0.48D-12  0.47D-12  6  5     3.17     0.30
  12      1.12524907    -0.34413886   -93.15081080    -0.00000000     0.00000003  0.33D-13  0.11D-12  6  6     3.44     0.30
  13      1.12524903    -0.34413886   -93.15081080    -0.00000000     0.00000001  0.21D-14  0.14D-13  6  1     3.72     0.30
  14      1.12524901    -0.34413886   -93.15081080    -0.00000000     0.00000001  0.64D-15  0.18D-14  6  2     4.02     0.30
  15      1.12524900    -0.34413886   -93.15081080    -0.00000000     0.00000000  0.11D-15  0.27D-15  6  3     4.30     0.30
  16      1.12524900    -0.34413886   -93.15081080    -0.00000000     0.00000000  0.76D-17  0.13D-16  6  5     4.58     0.30
  17      1.12524900    -0.34413886   -93.15081080     0.00000000     0.00000000  0.59D-18  0.55D-18  6  4     4.87     0.30
  18      1.12524900    -0.34413886   -93.15081080     0.00000000    -0.00000000  0.80D-19  0.77D-19  6  6     5.12     0.30
  19      1.12524900    -0.34413886   -93.15081080     0.00000000     0.00000000  0.14D-19  0.50D-20  6  1     5.39     0.30
  20      1.12524900    -0.34413886   -93.15081080    -0.00000000     0.00000000  0.17D-20  0.17D-20  6  2     5.66     0.30
  21      1.12524900    -0.34413886   -93.15081080    -0.00000000     0.00000000  0.38D-21  0.12D-21  6  5     5.92     0.30

 Norm of t1 vector:      0.06117121      S-energy:     0.00000000      T1 diagnostic:  0.01367830
                                                                       D1 diagnostic:  0.02649890

 Doubles amplitudes (print threshold =  0.500E-01):

         I         J         SYM. A    SYM. B    A         B      T(IJ, AB)

         4         4         2         2         1         1     -0.05736104
         5         5         3         3         1         1     -0.05736104


 Total CPU time for triples:      1.96 sec


 RESULTS
 =======

  Reference energy                    -92.806671941348
  CCSD singlet pair energy             -0.238477571051
  CCSD triplet pair energy             -0.105661291341
  CCSD correlation energy              -0.344138862392

  Triples (T) contribution             -0.016889204134
  Total correlation energy             -0.361028066527

  CCSD total energy                   -93.150810803740
  CCSD[T] energy                      -93.168381177456
  CCSD-T energy                       -93.167362669955
 !CCSD(T) total energy                -93.167700007874

 Timing summary (sec):

 STEP                 CPU(USER)    SYS     CPU(TOT)    WALL
 Transformation          0.27      0.06      0.33      0.34
 CCSD iterations         5.66      0.72      6.38      6.39
 Triples                 1.96      0.08      2.04      2.04

 Program statistics:

 Available memory in ccsd:               994999800
 Min. memory needed in ccsd:                377822
 Max. memory used in ccsd:                  449387
 Max. memory used in cckext:                547289 (21 integral passes)



 **********************************************************************************************************************************
 DATASETS  * FILE   NREC   LENGTH (MB)   RECORD NAMES
              1      20      238.83       500      610      700      900      950      970     1000      129      960     1100   
                                          VAR    BASINP    GEOM    SYMINP    ZMAT    AOBASIS   BASIS     P2S    ABASIS      S 
                                         1400     1410     1200     1210     1080     1600     1650     1300     1700     1380   
                                           T        V       H0       H01     AOSYM     SMH    MOLCAS    ERIS     OPER     JKOP   

              2       4        2.98       700     1000      520     2100   
                                         GEOM     BASIS   MCVARS     RHF  

 PROGRAMS   *        TOTAL   CCSD(T)        HF       INT
 CPU TIMES  *        13.59      7.92      1.93      3.62
 REAL TIME  *        15.99 SEC
 DISK USED  *       642.14 MB      
 **********************************************************************************************************************************

 CCSD(T)/USERDEF energy=    -93.167700007874

        CCSD(T)         HF-SCF  
    -93.16770001    -92.80667194
 **********************************************************************************************************************************
 Molpro calculation terminated
 Variable memory released
