
 Primary working directories    : /tmp/r2666/232678.maple
 Secondary working directories  : /tmp/r2666/232678.maple
 Wavefunction directory         : /ddn/home4/r2666/wfu/
 Main file repository           : /tmp/r2666/232678.maple/

 SHA1      : d5ffa45e93fdbca01ffc919aa182cfdae0147319
 NAME      : 2015.1.35
 ARCHNAME  : linux/x86_64
 FC        : /opt/intel/composer_xe_2015.1.133/bin/intel64/ifort
 BLASLIB   : -Wl,-_start-group /opt/intel/mkl/lib/intel64/libmkl_intel_ilp64.a /opt/intel/mkl/lib/intel64/libmkl_intel_thread.a /opt/intel/mkl/lib/intel64/libmkl_core.a -Wl,-_end-group
 id        : olemiss

 Nodes     nprocs
 cn093        1

 Using customized tuning parameters: mindgm=1; mindgv=20; mindgc=4; mindgr=1; noblas=0; minvec=7
 default implementation of scratch files=df  

 ***,hcn CCSD(T)/TZ-F12 QFF
 memory, 995, m;
 gthresh,energy=1.d-12,zero=1.d-22,oneint=1.d-22,twoint=1.d-22;
 gthresh,optgrad=1.d-8,optstep=1.d-8;
 nocompress;
 geomtyp=xyz
 bohr
 geometry={
 3
         12        12
 N        0.0000000000        0.0000000000        1.1121032177
 C        0.0000000000        0.0000000000       -1.0572978193
 H        0.0000000000        0.0000000000       -3.0518753804
 }
 
 basis={
 default=aug-cc-pvtz
 s,C,8236.0,1235.0,280.8, 79.27,25.59, 8.997,3.319
 s,C,0.9059,0.3643,0.1285000
 p,C,56.0,18.71,4.133,0.2827,0.3827,0.1209
 d,C,30.0,10.0,3.3,1.097,0.318
 f,C,7.0,2.3,0.7610
 s,N,11420.0,1712.0,389.3,110.0,35.57,12.54,4.644
 s,N,1.293,0.5118,0.1787
 p,N,79.89,26.63,5.948,1.742,0.555,0.1725
 d,N,45.0,15.0,5.0,1.654,0.469
 f,N,9.9,3.3,1.093
 s,O,15330.0,2299.0,522.4,147.3,47.55,16.76,6.207
 s,O,1.752,0.6882,0.2384
 p,O,103.5,34.46,7.749,2.28,0.7156,0.214
 d,O,63.0,21.0,7.0,2.314,0.645
 f,O,12.9,4.3,1.428
 s,mg,164900.0,24710.0,5628.0,1596.0,521.0;
 s,mg,188.0,73.01,29.90,12.54,4.306,1.826;
 s,mg,0.7417,0.0761,0.145,0.033,0.0129;
 p,mg,950.70,316.90,74.86,23.72,8.669,3.363;
 p,mg,1.310,0.4911,0.2364,0.08733,0.03237,0.00745;
 d,mg,1.601,0.686,0.126,0.294,0.0468;
 f,mg,1.372,0.588,0.094,0.252;
 }
   {hf,maxit=500;accu,20;}
 {ccsd(t),nocheck,maxit=250;orbital,IGNORE_ERROR;}

 Variables initialized (889), CPU time= 0.01 sec
 Commands  initialized (702), CPU time= 0.00 sec, 572 directives.
 Default parameters read. Elapsed time= 0.07 sec

 Checking input...
 Passed
1


                                         ***  PROGRAM SYSTEM MOLPRO  ***
                                       Copyright, TTI GmbH Stuttgart, 2015
                                    Version 2015.1 linked Jul  9 2018 13:16:40


 **********************************************************************************************************************************
 LABEL *   hcn CCSD(T)/TZ-F12 QFF                                                        
  64 bit serial version                                                                  DATE: 06-Feb-20          TIME: 09:54:46  
 **********************************************************************************************************************************

 SHA1:             d5ffa45e93fdbca01ffc919aa182cfdae0147319
 **********************************************************************************************************************************

 THRESHOLDS:

 ZERO    =  1.00D-22  ONEINT  =  1.00D-22  TWOINT  =  1.00D-22  PREFAC  =  1.00D-14  LOCALI  =  1.00D-09  EORDER  =  1.00D-04
 ENERGY  =  1.00D-12  ETEST   =  0.00D+00  EDENS   =  0.00D+00  THRDEDEF=  1.00D-06  GRADIENT=  1.00D-02  STEP    =  1.00D-03
 ORBITAL =  1.00D-05  CIVEC   =  1.00D-05  COEFF   =  1.00D-04  PRINTCI =  5.00D-02  PUNCHCI =  9.90D+01  OPTGRAD =  3.00D-04
 OPTENERG=  1.00D-06  OPTSTEP =  3.00D-04  THRGRAD =  1.00D-10  COMPRESS=  1.00D-11  VARMIN  =  1.00D-07  VARMAX  =  1.00D-03
 THRDOUB =  0.00D+00  THRDIV  =  1.00D-05  THRRED  =  1.00D-07  THRPSP  =  1.00D+00  THRDC   =  1.00D-10  THRCS   =  1.00D-10
 THRNRM  =  1.00D-08  THREQ   =  0.00D+00  THRDE   =  1.00D+00  THRREF  =  1.00D-05  SPARFAC =  1.00D+00  THRDLP  =  1.00D-07
 THRDIA  =  1.00D-10  THRDLS  =  1.00D-07  THRGPS  =  0.00D+00  THRKEX  =  0.00D+00  THRDIS  =  2.00D-01  THRVAR  =  1.00D-10
 THRLOC  =  1.00D-06  THRGAP  =  1.00D-06  THRLOCT = -1.00D+00  THRGAPT = -1.00D+00  THRORB  =  1.00D-06  THRMLTP =  0.00D+00
 THRCPQCI=  1.00D-10  KEXTA   =  0.00D+00  THRCOARS=  0.00D+00  SYMTOL  =  1.00D-06  GRADTOL =  1.00D-06  THROVL  =  1.00D-08
 THRORTH =  1.00D-08  GRID    =  1.00D-06  GRIDMAX =  1.00D-03  DTMAX   =  0.00D+00  THROCCDE=  1.00D-01  THROCCDE=  1.00D-01



 THRESHOLDS:

 ZERO    =  1.00D-22  ONEINT  =  1.00D-22  TWOINT  =  1.00D-22  PREFAC  =  1.00D-14  LOCALI  =  1.00D-09  EORDER  =  1.00D-04
 ENERGY  =  1.00D-12  ETEST   =  0.00D+00  EDENS   =  0.00D+00  THRDEDEF=  1.00D-06  GRADIENT=  1.00D-02  STEP    =  1.00D-03
 ORBITAL =  1.00D-05  CIVEC   =  1.00D-05  COEFF   =  1.00D-04  PRINTCI =  5.00D-02  PUNCHCI =  9.90D+01  OPTGRAD =  1.00D-08
 OPTENERG=  1.00D-06  OPTSTEP =  1.00D-08  THRGRAD =  1.00D-10  COMPRESS=  1.00D-11  VARMIN  =  1.00D-07  VARMAX  =  1.00D-03
 THRDOUB =  0.00D+00  THRDIV  =  1.00D-05  THRRED  =  1.00D-07  THRPSP  =  1.00D+00  THRDC   =  1.00D-10  THRCS   =  1.00D-10
 THRNRM  =  1.00D-08  THREQ   =  0.00D+00  THRDE   =  1.00D+00  THRREF  =  1.00D-05  SPARFAC =  1.00D+00  THRDLP  =  1.00D-07
 THRDIA  =  1.00D-10  THRDLS  =  1.00D-07  THRGPS  =  0.00D+00  THRKEX  =  0.00D+00  THRDIS  =  2.00D-01  THRVAR  =  1.00D-10
 THRLOC  =  1.00D-06  THRGAP  =  1.00D-06  THRLOCT = -1.00D+00  THRGAPT = -1.00D+00  THRORB  =  1.00D-06  THRMLTP =  0.00D+00
 THRCPQCI=  1.00D-10  KEXTA   =  0.00D+00  THRCOARS=  0.00D+00  SYMTOL  =  1.00D-06  GRADTOL =  1.00D-06  THROVL  =  1.00D-08
 THRORTH =  1.00D-08  GRID    =  1.00D-06  GRIDMAX =  1.00D-03  DTMAX   =  0.00D+00  THROCCDE=  1.00D-01  THROCCDE=  1.00D-01



 Input parameters for SORTINT:

 COMPRESS =    0.000000
 C_FINAL  =    1.000000
 DEBUG    =   -1.000000
 C_SORT1  =    0.000000
 C_SEWARD =    0.000000
 THRESH   =    0.000000
 IO       =  molpro                                                          
 SPRI     =    0.000000
 SETTING GEOMTYP        =    XYZ
 ZUNIT=BOHR
 

 Variable memory set to  995000000 words,  buffer space   230000 words

 SETTING BASIS          =    USERDEF


 Recomputing integrals since basis changed


 Using spherical harmonics

 Library entry H      S aug-cc-pVTZ          selected for orbital group  3
 Library entry H      P aug-cc-pVTZ          selected for orbital group  3
 Library entry H      D aug-cc-pVTZ          selected for orbital group  3


 PROGRAM * SEWARD (Integral evaluation for generally contracted gaussian basis sets)     Author: Roland Lindh, 1990

 Geometry written to block  1 of record 700


 Point group  C2v 



 ATOMIC COORDINATES

 NR  ATOM    CHARGE       X              Y              Z

   1  N       7.00    0.000000000    0.000000000    1.112103218
   2  C       6.00    0.000000000    0.000000000   -1.057297819
   3  H       1.00    0.000000000    0.000000000   -3.051875380

 Bond lengths in Bohr (Angstrom)

 1-2  2.169401037  2-3  1.994577561
     ( 1.147997590)     ( 1.055484991)

 Bond angles

  1-2-3  179.99999879

 NUCLEAR CHARGE:                   14
 NUMBER OF PRIMITIVE AOS:         203
 NUMBER OF SYMMETRY AOS:          173
 NUMBER OF CONTRACTIONS:          171   (  75A1  +  39B1  +  39B2  +  18A2  )
 NUMBER OF CORE ORBITALS:           2   (   2A1  +   0B1  +   0B2  +   0A2  )
 NUMBER OF VALENCE ORBITALS:        9   (   5A1  +   2B1  +   2B2  +   0A2  )


 NUCLEAR REPULSION ENERGY   24.04942280

 EXTRA SYMMETRY OF AOS IN SYMMETRY 1:   1 1 1 1 1 1 1 1 1 1   1 1 1 1 1 1 1 2 1 2   1 2 1 2 1 2 1 2 1 2   1 2 1 1 1 1 1 1 1 1
                                        1 1 1 1 1 1 1 1 1 2   1 2 1 2 1 2 1 2 1 2   1 2 1 2 1 1 1 1 1 1   1 1 2 1 2
 EXTRA SYMMETRY OF AOS IN SYMMETRY 2:   1 1 1 1 1 1 1 1 1 1   1 1 2 1 2 1 2 1 1 1   1 1 1 1 1 1 1 1 1 2   1 2 1 2 1 1 1 1 1
 EXTRA SYMMETRY OF AOS IN SYMMETRY 3:   1 1 1 1 1 1 1 1 1 1   1 1 2 1 2 1 2 1 1 1   1 1 1 1 1 1 1 1 1 2   1 2 1 2 1 1 1 1 1

 Eigenvalues of metric

         1 0.233E-03 0.506E-03 0.879E-03 0.135E-02 0.315E-02 0.731E-02 0.977E-02 0.131E-01
         2 0.536E-02 0.154E-01 0.211E-01 0.337E-01 0.957E-01 0.111E+00 0.125E+00 0.187E+00
         3 0.536E-02 0.154E-01 0.211E-01 0.337E-01 0.957E-01 0.111E+00 0.125E+00 0.187E+00
         4 0.124E+00 0.139E+00 0.193E+00 0.254E+00 0.314E+00 0.379E+00 0.483E+00 0.595E+00


 Contracted 2-electron integrals neglected if value below      1.0D-22

       21776974. INTEGRALS WRITTEN OUT IN    5318 BLOCKS ON RECORD 1290 OF FILE 1


 NUMBER OF SORTED TWO-ELECTRON INTEGRALS:   28272141.     BUFFER LENGTH:  32768
 NUMBER OF SEGMENTS:   2  SEGMENT LENGTH:   15998211      RECORD LENGTH: 524288

 Memory used in sort:      16.56 MW

 SORT1 READ    21776974. AND WROTE    22175727. INTEGRALS IN     65 RECORDS. CPU TIME:     0.53 SEC, REAL TIME:     0.69 SEC
 SORT2 READ    22175727. AND WROTE    28272141. INTEGRALS IN      2 RECORDS. CPU TIME:     0.46 SEC, REAL TIME:     0.57 SEC

 FILE SIZES:   FILE 1:   369.1 MBYTE,  FILE 4:   272.7 MBYTE,   TOTAL:    641.8 MBYTE

 OPERATOR DM      FOR CENTER  0  COORDINATES:    0.000000    0.000000    0.000000


 **********************************************************************************************************************************
 DATASETS  * FILE   NREC   LENGTH (MB)   RECORD NAMES
              1      19      213.67       500      610      700      900      950      970     1000      129      960     1100   
                                          VAR    BASINP    GEOM    SYMINP    ZMAT    AOBASIS   BASIS     P2S    ABASIS      S 
                                         1400     1410     1200     1210     1080     1600     1650     1300     1700   
                                           T        V       H0       H01     AOSYM     SMH    MOLCAS    ERIS     OPER   

 PROGRAMS   *        TOTAL       INT
 CPU TIMES  *         3.70      3.60
 REAL TIME  *         4.81 SEC
 DISK USED  *       642.14 MB      
 **********************************************************************************************************************************


 PROGRAM * RHF-SCF (CLOSED SHELL)       Authors: W. Meyer, H.-J. Werner


 NUMBER OF ELECTRONS:       7+    7-
 CONVERGENCE THRESHOLDS:    1.00E-10 (Density)    1.00E-13 (Energy)
 MAX. NUMBER OF ITERATIONS:      500
 INTERPOLATION TYPE:            DIIS
 INTERPOLATION STEPS:              2 (START)      1 (STEP)
 LEVEL SHIFTS:                  0.00 (CLOSED)  0.00 (OPEN) 



 Orbital guess generated from atomic densities. Full valence occupancy:    7   2   2   0

 Molecular orbital dump at record        2100.2

 Initial occupancy:   5   1   1   0

 ITERATION    DDIFF          GRAD             ENERGY        2-EL.EN.            DIPOLE MOMENTS         DIIS   ORB.
    1      0.000D+00      0.000D+00       -92.77193360    111.977386    0.00000    0.00000   -2.00854    0    start
    2      0.000D+00      0.910D-02       -92.78454853    110.249344    0.00000    0.00000   -0.95014    1    diag
    3      0.336D-01      0.779D-02       -92.80592679    111.174946    0.00000    0.00000   -1.44335    2    diag
    4      0.115D-01      0.566D-03       -92.80617513    111.126830    0.00000    0.00000   -1.43619    3    diag
    5      0.187D-02      0.124D-03       -92.80618933    111.133986    0.00000    0.00000   -1.43495    4    diag
    6      0.505D-03      0.320D-04       -92.80619006    111.130062    0.00000    0.00000   -1.43524    5    diag
    7      0.388D-04      0.113D-04       -92.80619014    111.131044    0.00000    0.00000   -1.43529    6    diag
    8      0.151D-04      0.226D-05       -92.80619014    111.131025    0.00000    0.00000   -1.43528    7    diag
    9      0.770D-05      0.250D-06       -92.80619014    111.131032    0.00000    0.00000   -1.43527    8    diag
   10      0.129D-05      0.284D-07       -92.80619014    111.131034    0.00000    0.00000   -1.43527    9    orth
   11      0.130D-06      0.368D-08       -92.80619014    111.131034    0.00000    0.00000   -1.43527    9    diag
   12      0.122D-07      0.382D-09       -92.80619014    111.131034    0.00000    0.00000   -1.43527    9    diag
   13      0.117D-08      0.489D-10       -92.80619014    111.131034    0.00000    0.00000   -1.43527    9    diag
   14      0.167D-09      0.691D-11       -92.80619014    111.131034    0.00000    0.00000   -1.43527    9    diag
   15      0.262D-10      0.144D-11       -92.80619014    111.131034    0.00000    0.00000   -1.43527    9    diag
   16      0.618D-11      0.464D-12       -92.80619014    111.131034    0.00000    0.00000   -1.43527    9    diag
   17      0.712D-12      0.236D-12       -92.80619014    111.131034    0.00000    0.00000   -1.43527    9    diag
   18      0.117D-11      0.474D-12       -92.80619014    111.131034    0.00000    0.00000   -1.43527    0    orth

 Final occupancy:   5   1   1   0

 !RHF STATE 1.1 Energy                -92.806190139774
 Nuclear energy                        24.04942280
 One-electron energy                 -172.42112973
 Two-electron energy                   55.56551679
 Virial quotient                       -1.00191895
 !RHF STATE 1.1 Dipole moment           0.00000000     0.00000000    -1.43527282
 Dipole moment /Debye                   0.00000000     0.00000000    -3.64786069

 Orbital energies:

         1.1          2.1          3.1          4.1          5.1          6.1          7.1
    -15.589537   -11.397281    -1.256489    -0.839247    -0.578129     0.032736     0.153535

         1.2          2.2          3.2
     -0.492183     0.134566     0.307596

         1.3          2.3          3.3
     -0.492183     0.134566     0.307596

         1.4          2.4
      0.682617     0.964740

 HOMO      1.2    -0.492183 =     -13.3930eV
 LUMO      6.1     0.032736 =       0.8908eV
 LUMO-HOMO         0.524919 =      14.2838eV


 **********************************************************************************************************************************
 DATASETS  * FILE   NREC   LENGTH (MB)   RECORD NAMES
              1      19      213.67       500      610      700      900      950      970     1000      129      960     1100   
                                          VAR    BASINP    GEOM    SYMINP    ZMAT    AOBASIS   BASIS     P2S    ABASIS      S 
                                         1400     1410     1200     1210     1080     1600     1650     1300     1700   
                                           T        V       H0       H01     AOSYM     SMH    MOLCAS    ERIS     OPER   

              2       4        2.98       700     1000      520     2100   
                                         GEOM     BASIS   MCVARS     RHF  

 PROGRAMS   *        TOTAL        HF       INT
 CPU TIMES  *         5.77      2.07      3.60
 REAL TIME  *         7.28 SEC
 DISK USED  *       642.14 MB      
 **********************************************************************************************************************************


 PROGRAM * CCSD (Closed-shell coupled cluster)     Authors: C. Hampel, H.-J. Werner, 1991, M. Deegan, P.J. Knowles, 1992


 Convergence thresholds:  THRVAR = 1.00D-08  THRDEN = 1.00D-12

 CCSD(T)     terms to be evaluated (factor= 1.000)


 Number of core orbitals:           2 (   2   0   0   0 )
 Number of closed-shell orbitals:   5 (   3   1   1   0 )
 Number of external orbitals:     164 (  70  38  38  18 )

 Molecular orbitals read from record     2100.2  Type=RHF/CANONICAL (state 1.1)

 Number of N-1 electron functions:               5
 Number of N-2 electron functions:              15
 Number of singly external CSFs:               286
 Number of doubly external CSFs:             90562
 Total number of CSFs:                       90849

 Length of J-op  integral file:               0.00 MB
 Length of K-op  integral file:               0.65 MB
 Length of 3-ext integral record:             0.00 MB

 Memory could be reduced to 9.35 Mwords without degradation in triples

 Integral transformation finished. Total CPU:   0.29 sec, npass=  1  Memory used:   1.25 MW

 Reference energy:                    -92.80619014

 MP2 singlet pair energy:              -0.21618315
 MP2 triplet pair energy:              -0.12367159
 MP2 correlation energy:               -0.33985474
 MP2 total energy:                    -93.14604488

 SCS-MP2 correlation energy:           -0.33637099   (PS=  1.200000  PT=  0.333333)
 SCS-MP2 total energy:                -93.14256113

 ITER.      SQ.NORM     CORR.ENERGY   TOTAL ENERGY   ENERGY CHANGE        DEN1      VAR(S)    VAR(P)  DIIS     TIME  TIME/IT
   1      1.10963633    -0.34330174   -93.14949188    -0.00344701     0.00816654  0.22D-02  0.26D-02  1  1     0.55     0.31
   2      1.11788668    -0.34370694   -93.14989708    -0.00040520    -0.00891787  0.73D-04  0.35D-03  2  2     0.82     0.32
   3      1.12252135    -0.34389365   -93.15008379    -0.00018671    -0.00258798  0.98D-05  0.39D-04  3  3     1.10     0.32
   4      1.12426900    -0.34396011   -93.15015025    -0.00006646    -0.00058955  0.87D-06  0.43D-05  4  4     1.37     0.32
   5      1.12476981    -0.34395854   -93.15014868     0.00000157    -0.00015302  0.13D-06  0.34D-06  5  5     1.64     0.32
   6      1.12485354    -0.34395642   -93.15014656     0.00000212    -0.00002108  0.80D-08  0.27D-07  6  6     1.91     0.32
   7      1.12486027    -0.34395776   -93.15014790    -0.00000133     0.00000016  0.11D-08  0.22D-08  6  1     2.18     0.32
   8      1.12486270    -0.34395808   -93.15014822    -0.00000032    -0.00000090  0.21D-09  0.17D-09  6  2     2.45     0.32
   9      1.12486264    -0.34395815   -93.15014828    -0.00000007     0.00000018  0.17D-10  0.15D-10  6  3     2.72     0.32
  10      1.12486270    -0.34395816   -93.15014830    -0.00000001     0.00000005  0.41D-11  0.18D-11  6  4     3.00     0.32
  11      1.12486272    -0.34395816   -93.15014830    -0.00000000     0.00000000  0.42D-12  0.35D-12  6  5     3.29     0.32
  12      1.12486268    -0.34395816   -93.15014830    -0.00000000     0.00000003  0.34D-13  0.88D-13  6  6     3.55     0.32
  13      1.12486265    -0.34395816   -93.15014830    -0.00000000     0.00000001  0.18D-14  0.11D-13  6  1     3.81     0.32
  14      1.12486263    -0.34395816   -93.15014830    -0.00000000     0.00000001  0.44D-15  0.14D-14  6  2     4.09     0.32
  15      1.12486262    -0.34395816   -93.15014830    -0.00000000     0.00000000  0.79D-16  0.21D-15  6  3     4.37     0.32
  16      1.12486262    -0.34395816   -93.15014830    -0.00000000     0.00000000  0.58D-17  0.94D-17  6  5     4.66     0.32
  17      1.12486262    -0.34395816   -93.15014830    -0.00000000     0.00000000  0.50D-18  0.45D-18  6  4     4.91     0.32
  18      1.12486262    -0.34395816   -93.15014830     0.00000000    -0.00000000  0.75D-19  0.67D-19  6  6     5.18     0.32
  19      1.12486262    -0.34395816   -93.15014830     0.00000000     0.00000000  0.13D-19  0.43D-20  6  1     5.47     0.32
  20      1.12486262    -0.34395816   -93.15014830    -0.00000000     0.00000000  0.16D-20  0.14D-20  6  2     5.75     0.32

 Norm of t1 vector:      0.06096041      S-energy:     0.00000000      T1 diagnostic:  0.01363116
                                                                       D1 diagnostic:  0.02651136

 Doubles amplitudes (print threshold =  0.500E-01):

         I         J         SYM. A    SYM. B    A         B      T(IJ, AB)

         4         4         2         2         1         1     -0.05756737
         5         5         3         3         1         1     -0.05756737


 Total CPU time for triples:      2.15 sec


 RESULTS
 =======

  Reference energy                    -92.806190139774
  CCSD singlet pair energy             -0.238303191339
  CCSD triplet pair energy             -0.105654971802
  CCSD correlation energy              -0.343958163139

  Triples (T) contribution             -0.016854453623
  Total correlation energy             -0.360812616762

  CCSD total energy                   -93.150148302913
  CCSD[T] energy                      -93.167681409360
  CCSD-T energy                       -93.166666118890
 !CCSD(T) total energy                -93.167002756536

 Timing summary (sec):

 STEP                 CPU(USER)    SYS     CPU(TOT)    WALL
 Transformation          0.29      0.07      0.36      0.35
 CCSD iterations         5.46      0.94      6.40      6.43
 Triples                 2.15      0.08      2.23      2.23

 Program statistics:

 Available memory in ccsd:               994999800
 Min. memory needed in ccsd:                377822
 Max. memory used in ccsd:                  449387
 Max. memory used in cckext:                547289 (20 integral passes)



 **********************************************************************************************************************************
 DATASETS  * FILE   NREC   LENGTH (MB)   RECORD NAMES
              1      20      238.85       500      610      700      900      950      970     1000      129      960     1100   
                                          VAR    BASINP    GEOM    SYMINP    ZMAT    AOBASIS   BASIS     P2S    ABASIS      S 
                                         1400     1410     1200     1210     1080     1600     1650     1300     1700     1380   
                                           T        V       H0       H01     AOSYM     SMH    MOLCAS    ERIS     OPER     JKOP   

              2       4        2.98       700     1000      520     2100   
                                         GEOM     BASIS   MCVARS     RHF  

 PROGRAMS   *        TOTAL   CCSD(T)        HF       INT
 CPU TIMES  *        13.70      7.93      2.07      3.60
 REAL TIME  *        16.34 SEC
 DISK USED  *       642.14 MB      
 **********************************************************************************************************************************

 CCSD(T)/USERDEF energy=    -93.167002756536

        CCSD(T)         HF-SCF  
    -93.16700276    -92.80619014
 **********************************************************************************************************************************
 Molpro calculation terminated
 Variable memory released
