
 Primary working directories    : /tmp/r2666/232672.maple
 Secondary working directories  : /tmp/r2666/232672.maple
 Wavefunction directory         : /ddn/home4/r2666/wfu/
 Main file repository           : /tmp/r2666/232672.maple/

 SHA1      : d5ffa45e93fdbca01ffc919aa182cfdae0147319
 NAME      : 2015.1.35
 ARCHNAME  : linux/x86_64
 FC        : /opt/intel/composer_xe_2015.1.133/bin/intel64/ifort
 BLASLIB   : -Wl,-_start-group /opt/intel/mkl/lib/intel64/libmkl_intel_ilp64.a /opt/intel/mkl/lib/intel64/libmkl_intel_thread.a /opt/intel/mkl/lib/intel64/libmkl_core.a -Wl,-_end-group
 id        : olemiss

 Nodes     nprocs
 cn080        1

 Using customized tuning parameters: mindgm=1; mindgv=20; mindgc=4; mindgr=1; noblas=0; minvec=7
 default implementation of scratch files=df  

 ***,hcn CCSD(T)/TZ-F12 QFF
 memory, 995, m;
 gthresh,energy=1.d-12,zero=1.d-22,oneint=1.d-22,twoint=1.d-22;
 gthresh,optgrad=1.d-8,optstep=1.d-8;
 nocompress;
 geomtyp=xyz
 bohr
 geometry={
 3
          6         6
 N        0.0000000000        0.0000000000        1.1089536744
 C        0.0000000000        0.0000000000       -1.0509987327
 H        0.0000000000        0.0000000000       -3.0550249237
 }
 
 basis={
 default=aug-cc-pvtz
 s,C,8236.0,1235.0,280.8, 79.27,25.59, 8.997,3.319
 s,C,0.9059,0.3643,0.1285000
 p,C,56.0,18.71,4.133,0.2827,0.3827,0.1209
 d,C,30.0,10.0,3.3,1.097,0.318
 f,C,7.0,2.3,0.7610
 s,N,11420.0,1712.0,389.3,110.0,35.57,12.54,4.644
 s,N,1.293,0.5118,0.1787
 p,N,79.89,26.63,5.948,1.742,0.555,0.1725
 d,N,45.0,15.0,5.0,1.654,0.469
 f,N,9.9,3.3,1.093
 s,O,15330.0,2299.0,522.4,147.3,47.55,16.76,6.207
 s,O,1.752,0.6882,0.2384
 p,O,103.5,34.46,7.749,2.28,0.7156,0.214
 d,O,63.0,21.0,7.0,2.314,0.645
 f,O,12.9,4.3,1.428
 s,mg,164900.0,24710.0,5628.0,1596.0,521.0;
 s,mg,188.0,73.01,29.90,12.54,4.306,1.826;
 s,mg,0.7417,0.0761,0.145,0.033,0.0129;
 p,mg,950.70,316.90,74.86,23.72,8.669,3.363;
 p,mg,1.310,0.4911,0.2364,0.08733,0.03237,0.00745;
 d,mg,1.601,0.686,0.126,0.294,0.0468;
 f,mg,1.372,0.588,0.094,0.252;
 }
   {hf,maxit=500;accu,20;}
 {ccsd(t),nocheck,maxit=250;orbital,IGNORE_ERROR;}

 Variables initialized (889), CPU time= 0.01 sec
 Commands  initialized (702), CPU time= 0.01 sec, 572 directives.
 Default parameters read. Elapsed time= 0.05 sec

 Checking input...
 Passed
1


                                         ***  PROGRAM SYSTEM MOLPRO  ***
                                       Copyright, TTI GmbH Stuttgart, 2015
                                    Version 2015.1 linked Jul  9 2018 13:16:40


 **********************************************************************************************************************************
 LABEL *   hcn CCSD(T)/TZ-F12 QFF                                                        
  64 bit serial version                                                                  DATE: 06-Feb-20          TIME: 09:54:45  
 **********************************************************************************************************************************

 SHA1:             d5ffa45e93fdbca01ffc919aa182cfdae0147319
 **********************************************************************************************************************************

 THRESHOLDS:

 ZERO    =  1.00D-22  ONEINT  =  1.00D-22  TWOINT  =  1.00D-22  PREFAC  =  1.00D-14  LOCALI  =  1.00D-09  EORDER  =  1.00D-04
 ENERGY  =  1.00D-12  ETEST   =  0.00D+00  EDENS   =  0.00D+00  THRDEDEF=  1.00D-06  GRADIENT=  1.00D-02  STEP    =  1.00D-03
 ORBITAL =  1.00D-05  CIVEC   =  1.00D-05  COEFF   =  1.00D-04  PRINTCI =  5.00D-02  PUNCHCI =  9.90D+01  OPTGRAD =  3.00D-04
 OPTENERG=  1.00D-06  OPTSTEP =  3.00D-04  THRGRAD =  1.00D-10  COMPRESS=  1.00D-11  VARMIN  =  1.00D-07  VARMAX  =  1.00D-03
 THRDOUB =  0.00D+00  THRDIV  =  1.00D-05  THRRED  =  1.00D-07  THRPSP  =  1.00D+00  THRDC   =  1.00D-10  THRCS   =  1.00D-10
 THRNRM  =  1.00D-08  THREQ   =  0.00D+00  THRDE   =  1.00D+00  THRREF  =  1.00D-05  SPARFAC =  1.00D+00  THRDLP  =  1.00D-07
 THRDIA  =  1.00D-10  THRDLS  =  1.00D-07  THRGPS  =  0.00D+00  THRKEX  =  0.00D+00  THRDIS  =  2.00D-01  THRVAR  =  1.00D-10
 THRLOC  =  1.00D-06  THRGAP  =  1.00D-06  THRLOCT = -1.00D+00  THRGAPT = -1.00D+00  THRORB  =  1.00D-06  THRMLTP =  0.00D+00
 THRCPQCI=  1.00D-10  KEXTA   =  0.00D+00  THRCOARS=  0.00D+00  SYMTOL  =  1.00D-06  GRADTOL =  1.00D-06  THROVL  =  1.00D-08
 THRORTH =  1.00D-08  GRID    =  1.00D-06  GRIDMAX =  1.00D-03  DTMAX   =  0.00D+00  THROCCDE=  1.00D-01  THROCCDE=  1.00D-01



 THRESHOLDS:

 ZERO    =  1.00D-22  ONEINT  =  1.00D-22  TWOINT  =  1.00D-22  PREFAC  =  1.00D-14  LOCALI  =  1.00D-09  EORDER  =  1.00D-04
 ENERGY  =  1.00D-12  ETEST   =  0.00D+00  EDENS   =  0.00D+00  THRDEDEF=  1.00D-06  GRADIENT=  1.00D-02  STEP    =  1.00D-03
 ORBITAL =  1.00D-05  CIVEC   =  1.00D-05  COEFF   =  1.00D-04  PRINTCI =  5.00D-02  PUNCHCI =  9.90D+01  OPTGRAD =  1.00D-08
 OPTENERG=  1.00D-06  OPTSTEP =  1.00D-08  THRGRAD =  1.00D-10  COMPRESS=  1.00D-11  VARMIN  =  1.00D-07  VARMAX  =  1.00D-03
 THRDOUB =  0.00D+00  THRDIV  =  1.00D-05  THRRED  =  1.00D-07  THRPSP  =  1.00D+00  THRDC   =  1.00D-10  THRCS   =  1.00D-10
 THRNRM  =  1.00D-08  THREQ   =  0.00D+00  THRDE   =  1.00D+00  THRREF  =  1.00D-05  SPARFAC =  1.00D+00  THRDLP  =  1.00D-07
 THRDIA  =  1.00D-10  THRDLS  =  1.00D-07  THRGPS  =  0.00D+00  THRKEX  =  0.00D+00  THRDIS  =  2.00D-01  THRVAR  =  1.00D-10
 THRLOC  =  1.00D-06  THRGAP  =  1.00D-06  THRLOCT = -1.00D+00  THRGAPT = -1.00D+00  THRORB  =  1.00D-06  THRMLTP =  0.00D+00
 THRCPQCI=  1.00D-10  KEXTA   =  0.00D+00  THRCOARS=  0.00D+00  SYMTOL  =  1.00D-06  GRADTOL =  1.00D-06  THROVL  =  1.00D-08
 THRORTH =  1.00D-08  GRID    =  1.00D-06  GRIDMAX =  1.00D-03  DTMAX   =  0.00D+00  THROCCDE=  1.00D-01  THROCCDE=  1.00D-01



 Input parameters for SORTINT:

 COMPRESS =    0.000000
 C_FINAL  =    1.000000
 DEBUG    =   -1.000000
 C_SORT1  =    0.000000
 C_SEWARD =    0.000000
 THRESH   =    0.000000
 IO       =  molpro                                                          
 SPRI     =    0.000000
 SETTING GEOMTYP        =    XYZ
 ZUNIT=BOHR
 

 Variable memory set to  995000000 words,  buffer space   230000 words

 SETTING BASIS          =    USERDEF


 Recomputing integrals since basis changed


 Using spherical harmonics

 Library entry H      S aug-cc-pVTZ          selected for orbital group  3
 Library entry H      P aug-cc-pVTZ          selected for orbital group  3
 Library entry H      D aug-cc-pVTZ          selected for orbital group  3


 PROGRAM * SEWARD (Integral evaluation for generally contracted gaussian basis sets)     Author: Roland Lindh, 1990

 Geometry written to block  1 of record 700


 Point group  C2v 



 ATOMIC COORDINATES

 NR  ATOM    CHARGE       X              Y              Z

   1  N       7.00    0.000000000    0.000000000    1.108953674
   2  C       6.00    0.000000000    0.000000000   -1.050998733
   3  H       1.00    0.000000000    0.000000000   -3.055024924

 Bond lengths in Bohr (Angstrom)

 1-2  2.159952407  2-3  2.004026191
     ( 1.142997591)     ( 1.060484990)

 Bond angles

  1-2-3  179.99999879

 NUCLEAR CHARGE:                   14
 NUMBER OF PRIMITIVE AOS:         203
 NUMBER OF SYMMETRY AOS:          173
 NUMBER OF CONTRACTIONS:          171   (  75A1  +  39B1  +  39B2  +  18A2  )
 NUMBER OF CORE ORBITALS:           2   (   2A1  +   0B1  +   0B2  +   0A2  )
 NUMBER OF VALENCE ORBITALS:        9   (   5A1  +   2B1  +   2B2  +   0A2  )


 NUCLEAR REPULSION ENERGY   24.11993026

 EXTRA SYMMETRY OF AOS IN SYMMETRY 1:   1 1 1 1 1 1 1 1 1 1   1 1 1 1 1 1 1 2 1 2   1 2 1 2 1 2 1 2 1 2   1 2 1 1 1 1 1 1 1 1
                                        1 1 1 1 1 1 1 1 1 2   1 2 1 2 1 2 1 2 1 2   1 2 1 2 1 1 1 1 1 1   1 1 2 1 2
 EXTRA SYMMETRY OF AOS IN SYMMETRY 2:   1 1 1 1 1 1 1 1 1 1   1 1 2 1 2 1 2 1 1 1   1 1 1 1 1 1 1 1 1 2   1 2 1 2 1 1 1 1 1
 EXTRA SYMMETRY OF AOS IN SYMMETRY 3:   1 1 1 1 1 1 1 1 1 1   1 1 2 1 2 1 2 1 1 1   1 1 1 1 1 1 1 1 1 2   1 2 1 2 1 1 1 1 1

 Eigenvalues of metric

         1 0.236E-03 0.496E-03 0.883E-03 0.136E-02 0.315E-02 0.739E-02 0.986E-02 0.131E-01
         2 0.534E-02 0.153E-01 0.211E-01 0.337E-01 0.960E-01 0.111E+00 0.124E+00 0.187E+00
         3 0.534E-02 0.153E-01 0.211E-01 0.337E-01 0.960E-01 0.111E+00 0.124E+00 0.187E+00
         4 0.124E+00 0.139E+00 0.192E+00 0.255E+00 0.313E+00 0.379E+00 0.483E+00 0.594E+00


 Contracted 2-electron integrals neglected if value below      1.0D-22

       21813208. INTEGRALS WRITTEN OUT IN    5327 BLOCKS ON RECORD 1290 OF FILE 1


 NUMBER OF SORTED TWO-ELECTRON INTEGRALS:   28272141.     BUFFER LENGTH:  32768
 NUMBER OF SEGMENTS:   2  SEGMENT LENGTH:   15998211      RECORD LENGTH: 524288

 Memory used in sort:      16.56 MW

 SORT1 READ    21813208. AND WROTE    22212678. INTEGRALS IN     65 RECORDS. CPU TIME:     0.50 SEC, REAL TIME:     0.65 SEC
 SORT2 READ    22212678. AND WROTE    28272141. INTEGRALS IN      2 RECORDS. CPU TIME:     0.40 SEC, REAL TIME:     0.51 SEC

 FILE SIZES:   FILE 1:   369.7 MBYTE,  FILE 4:   272.7 MBYTE,   TOTAL:    642.4 MBYTE

 OPERATOR DM      FOR CENTER  0  COORDINATES:    0.000000    0.000000    0.000000


 **********************************************************************************************************************************
 DATASETS  * FILE   NREC   LENGTH (MB)   RECORD NAMES
              1      19      213.86       500      610      700      900      950      970     1000      129      960     1100   
                                          VAR    BASINP    GEOM    SYMINP    ZMAT    AOBASIS   BASIS     P2S    ABASIS      S 
                                         1400     1410     1200     1210     1080     1600     1650     1300     1700   
                                           T        V       H0       H01     AOSYM     SMH    MOLCAS    ERIS     OPER   

 PROGRAMS   *        TOTAL       INT
 CPU TIMES  *         3.31      3.22
 REAL TIME  *         4.15 SEC
 DISK USED  *       642.73 MB      
 **********************************************************************************************************************************


 PROGRAM * RHF-SCF (CLOSED SHELL)       Authors: W. Meyer, H.-J. Werner


 NUMBER OF ELECTRONS:       7+    7-
 CONVERGENCE THRESHOLDS:    1.00E-10 (Density)    1.00E-13 (Energy)
 MAX. NUMBER OF ITERATIONS:      500
 INTERPOLATION TYPE:            DIIS
 INTERPOLATION STEPS:              2 (START)      1 (STEP)
 LEVEL SHIFTS:                  0.00 (CLOSED)  0.00 (OPEN) 



 Orbital guess generated from atomic densities. Full valence occupancy:    7   2   2   0

 Molecular orbital dump at record        2100.2

 Initial occupancy:   5   1   1   0

 ITERATION    DDIFF          GRAD             ENERGY        2-EL.EN.            DIPOLE MOMENTS         DIIS   ORB.
    1      0.000D+00      0.000D+00       -92.77213106    112.154767    0.00000    0.00000   -2.01063    0    start
    2      0.000D+00      0.916D-02       -92.78510427    110.387862    0.00000    0.00000   -0.95734    1    diag
    3      0.335D-01      0.778D-02       -92.80639210    111.320415    0.00000    0.00000   -1.44542    2    diag
    4      0.115D-01      0.561D-03       -92.80663710    111.274758    0.00000    0.00000   -1.43818    3    diag
    5      0.186D-02      0.122D-03       -92.80665120    111.280986    0.00000    0.00000   -1.43700    4    diag
    6      0.499D-03      0.314D-04       -92.80665188    111.277330    0.00000    0.00000   -1.43732    5    diag
    7      0.368D-04      0.110D-04       -92.80665196    111.278340    0.00000    0.00000   -1.43736    6    diag
    8      0.147D-04      0.220D-05       -92.80665196    111.278317    0.00000    0.00000   -1.43734    7    diag
    9      0.745D-05      0.244D-06       -92.80665196    111.278324    0.00000    0.00000   -1.43734    8    diag
   10      0.126D-05      0.280D-07       -92.80665196    111.278325    0.00000    0.00000   -1.43734    9    orth
   11      0.127D-06      0.362D-08       -92.80665196    111.278325    0.00000    0.00000   -1.43734    9    diag
   12      0.120D-07      0.378D-09       -92.80665196    111.278325    0.00000    0.00000   -1.43734    9    diag
   13      0.116D-08      0.482D-10       -92.80665196    111.278325    0.00000    0.00000   -1.43734    9    diag
   14      0.168D-09      0.712D-11       -92.80665196    111.278325    0.00000    0.00000   -1.43734    9    diag
   15      0.276D-10      0.152D-11       -92.80665196    111.278325    0.00000    0.00000   -1.43734    9    diag
   16      0.568D-11      0.430D-12       -92.80665196    111.278325    0.00000    0.00000   -1.43734    9    diag
   17      0.181D-11      0.331D-12       -92.80665196    111.278325    0.00000    0.00000   -1.43734    9    diag
   18      0.128D-11      0.570D-12       -92.80665196    111.278325    0.00000    0.00000   -1.43734    9    diag
   19      0.861D-12      0.174D-12       -92.80665196    111.278325    0.00000    0.00000   -1.43734    9    fixocc
   20      0.140D-11      0.221D-12       -92.80665196    111.278325    0.00000    0.00000   -1.43734    0    orth

 Final occupancy:   5   1   1   0

 !RHF STATE 1.1 Energy                -92.806651958030
 Nuclear energy                        24.11993026
 One-electron energy                 -172.56574496
 Two-electron energy                   55.63916274
 Virial quotient                       -1.00169861
 !RHF STATE 1.1 Dipole moment           0.00000000     0.00000000    -1.43734090
 Dipole moment /Debye                   0.00000000     0.00000000    -3.65311690

 Orbital energies:

         1.1          2.1          3.1          4.1          5.1          6.1          7.1
    -15.587662   -11.395756    -1.258845    -0.836630    -0.577691     0.032744     0.153008

         1.2          2.2          3.2
     -0.493563     0.135529     0.308745

         1.3          2.3          3.3
     -0.493563     0.135529     0.308745

         1.4          2.4
      0.682800     0.964194

 HOMO      1.2    -0.493563 =     -13.4305eV
 LUMO      6.1     0.032744 =       0.8910eV
 LUMO-HOMO         0.526307 =      14.3215eV


 **********************************************************************************************************************************
 DATASETS  * FILE   NREC   LENGTH (MB)   RECORD NAMES
              1      19      213.86       500      610      700      900      950      970     1000      129      960     1100   
                                          VAR    BASINP    GEOM    SYMINP    ZMAT    AOBASIS   BASIS     P2S    ABASIS      S 
                                         1400     1410     1200     1210     1080     1600     1650     1300     1700   
                                           T        V       H0       H01     AOSYM     SMH    MOLCAS    ERIS     OPER   

              2       4        2.98       700     1000      520     2100   
                                         GEOM     BASIS   MCVARS     RHF  

 PROGRAMS   *        TOTAL        HF       INT
 CPU TIMES  *         5.32      2.01      3.22
 REAL TIME  *         6.60 SEC
 DISK USED  *       642.73 MB      
 **********************************************************************************************************************************


 PROGRAM * CCSD (Closed-shell coupled cluster)     Authors: C. Hampel, H.-J. Werner, 1991, M. Deegan, P.J. Knowles, 1992


 Convergence thresholds:  THRVAR = 1.00D-08  THRDEN = 1.00D-12

 CCSD(T)     terms to be evaluated (factor= 1.000)


 Number of core orbitals:           2 (   2   0   0   0 )
 Number of closed-shell orbitals:   5 (   3   1   1   0 )
 Number of external orbitals:     164 (  70  38  38  18 )

 Molecular orbitals read from record     2100.2  Type=RHF/CANONICAL (state 1.1)

 Number of N-1 electron functions:               5
 Number of N-2 electron functions:              15
 Number of singly external CSFs:               286
 Number of doubly external CSFs:             90562
 Total number of CSFs:                       90849

 Length of J-op  integral file:               0.00 MB
 Length of K-op  integral file:               0.65 MB
 Length of 3-ext integral record:             0.00 MB

 Memory could be reduced to 9.35 Mwords without degradation in triples

 Integral transformation finished. Total CPU:   0.22 sec, npass=  1  Memory used:   1.25 MW

 Reference energy:                    -92.80665196

 MP2 singlet pair energy:              -0.21575286
 MP2 triplet pair energy:              -0.12331424
 MP2 correlation energy:               -0.33906710
 MP2 total energy:                    -93.14571906

 SCS-MP2 correlation energy:           -0.33563230   (PS=  1.200000  PT=  0.333333)
 SCS-MP2 total energy:                -93.14228425

 ITER.      SQ.NORM     CORR.ENERGY   TOTAL ENERGY   ENERGY CHANGE        DEN1      VAR(S)    VAR(P)  DIIS     TIME  TIME/IT
   1      1.10913922    -0.34272965   -93.14938161    -0.00366255     0.00780035  0.22D-02  0.25D-02  1  1     0.45     0.26
   2      1.11730068    -0.34316588   -93.14981783    -0.00043622    -0.00883198  0.71D-04  0.35D-03  2  2     0.69     0.26
   3      1.12187120    -0.34335024   -93.15000219    -0.00018436    -0.00256424  0.97D-05  0.38D-04  3  3     0.92     0.26
   4      1.12358001    -0.34341460   -93.15006656    -0.00006436    -0.00057971  0.86D-06  0.42D-05  4  4     1.16     0.26
   5      1.12406597    -0.34341311   -93.15006507     0.00000149    -0.00014883  0.13D-06  0.33D-06  5  5     1.41     0.26
   6      1.12414757    -0.34341099   -93.15006295     0.00000211    -0.00002067  0.82D-08  0.26D-07  6  6     1.64     0.27
   7      1.12415413    -0.34341225   -93.15006421    -0.00000125     0.00000017  0.12D-08  0.21D-08  6  1     1.87     0.27
   8      1.12415656    -0.34341255   -93.15006451    -0.00000030    -0.00000089  0.23D-09  0.16D-09  6  2     2.10     0.27
   9      1.12415654    -0.34341261   -93.15006457    -0.00000006     0.00000017  0.21D-10  0.16D-10  6  3     2.33     0.27
  10      1.12415661    -0.34341262   -93.15006458    -0.00000001     0.00000005  0.49D-11  0.21D-11  6  4     2.56     0.27
  11      1.12415664    -0.34341262   -93.15006458    -0.00000000     0.00000000  0.44D-12  0.41D-12  6  5     2.80     0.27
  12      1.12415660    -0.34341263   -93.15006458    -0.00000000     0.00000003  0.30D-13  0.99D-13  6  6     3.03     0.27
  13      1.12415656    -0.34341263   -93.15006458    -0.00000000     0.00000001  0.19D-14  0.12D-13  6  1     3.28     0.27
  14      1.12415654    -0.34341263   -93.15006458    -0.00000000     0.00000001  0.56D-15  0.16D-14  6  2     3.51     0.27
  15      1.12415654    -0.34341263   -93.15006458    -0.00000000     0.00000000  0.99D-16  0.24D-15  6  3     3.74     0.27
  16      1.12415654    -0.34341263   -93.15006458    -0.00000000     0.00000000  0.62D-17  0.11D-16  6  5     3.98     0.27
  17      1.12415653    -0.34341263   -93.15006458     0.00000000     0.00000000  0.51D-18  0.47D-18  6  4     4.21     0.27
  18      1.12415653    -0.34341263   -93.15006458     0.00000000    -0.00000000  0.68D-19  0.67D-19  6  6     4.45     0.27
  19      1.12415653    -0.34341263   -93.15006458     0.00000000     0.00000000  0.12D-19  0.43D-20  6  1     4.67     0.27
  20      1.12415653    -0.34341263   -93.15006458    -0.00000000     0.00000000  0.14D-20  0.14D-20  6  2     4.90     0.27
  21      1.12415653    -0.34341263   -93.15006458    -0.00000000     0.00000000  0.32D-21  0.10D-21  6  5     5.15     0.27

 Norm of t1 vector:      0.06041165      S-energy:     0.00000000      T1 diagnostic:  0.01350846
                                                                       D1 diagnostic:  0.02621038

 Doubles amplitudes (print threshold =  0.500E-01):

         I         J         SYM. A    SYM. B    A         B      T(IJ, AB)

         4         4         2         2         1         1     -0.05645483
         5         5         3         3         1         1     -0.05645483


 Total CPU time for triples:      1.50 sec


 RESULTS
 =======

  Reference energy                    -92.806651958031
  CCSD singlet pair energy             -0.237862620899
  CCSD triplet pair energy             -0.105550005591
  CCSD correlation energy              -0.343412626489

  Triples (T) contribution             -0.016728737668
  Total correlation energy             -0.360141364158

  CCSD total energy                   -93.150064584520
  CCSD[T] energy                      -93.167457696716
  CCSD-T energy                       -93.166463387638
 !CCSD(T) total energy                -93.166793322188

 Timing summary (sec):

 STEP                 CPU(USER)    SYS     CPU(TOT)    WALL
 Transformation          0.23      0.07      0.30      0.29
 CCSD iterations         4.92      0.71      5.63      5.65
 Triples                 1.50      0.08      1.58      1.57

 Program statistics:

 Available memory in ccsd:               994999800
 Min. memory needed in ccsd:                377822
 Max. memory used in ccsd:                  449387
 Max. memory used in cckext:                547289 (21 integral passes)



 **********************************************************************************************************************************
 DATASETS  * FILE   NREC   LENGTH (MB)   RECORD NAMES
              1      20      239.04       500      610      700      900      950      970     1000      129      960     1100   
                                          VAR    BASINP    GEOM    SYMINP    ZMAT    AOBASIS   BASIS     P2S    ABASIS      S 
                                         1400     1410     1200     1210     1080     1600     1650     1300     1700     1380   
                                           T        V       H0       H01     AOSYM     SMH    MOLCAS    ERIS     OPER     JKOP   

              2       4        2.98       700     1000      520     2100   
                                         GEOM     BASIS   MCVARS     RHF  

 PROGRAMS   *        TOTAL   CCSD(T)        HF       INT
 CPU TIMES  *        12.01      6.69      2.01      3.22
 REAL TIME  *        15.37 SEC
 DISK USED  *       642.73 MB      
 **********************************************************************************************************************************

 CCSD(T)/USERDEF energy=    -93.166793322188

        CCSD(T)         HF-SCF  
    -93.16679332    -92.80665196
 **********************************************************************************************************************************
 Molpro calculation terminated
 Variable memory released
