
 Primary working directories    : /tmp/r2666/232674.maple
 Secondary working directories  : /tmp/r2666/232674.maple
 Wavefunction directory         : /ddn/home4/r2666/wfu/
 Main file repository           : /tmp/r2666/232674.maple/

 SHA1      : d5ffa45e93fdbca01ffc919aa182cfdae0147319
 NAME      : 2015.1.35
 ARCHNAME  : linux/x86_64
 FC        : /opt/intel/composer_xe_2015.1.133/bin/intel64/ifort
 BLASLIB   : -Wl,-_start-group /opt/intel/mkl/lib/intel64/libmkl_intel_ilp64.a /opt/intel/mkl/lib/intel64/libmkl_intel_thread.a /opt/intel/mkl/lib/intel64/libmkl_core.a -Wl,-_end-group
 id        : olemiss

 Nodes     nprocs
 cn090        1

 Using customized tuning parameters: mindgm=1; mindgv=20; mindgc=4; mindgr=1; noblas=0; minvec=7
 default implementation of scratch files=df  

 ***,hcn CCSD(T)/TZ-F12 QFF
 memory, 995, m;
 gthresh,energy=1.d-12,zero=1.d-22,oneint=1.d-22,twoint=1.d-22;
 gthresh,optgrad=1.d-8,optstep=1.d-8;
 nocompress;
 geomtyp=xyz
 bohr
 geometry={
 3
          8         8
 N       -0.0045970670       -0.0000001292        1.1120547195
 C        0.0095718652        0.0000000034       -1.0478512142
 H       -0.0049747982        0.0000001259       -3.0612734872
 }
 
 basis={
 default=aug-cc-pvtz
 s,C,8236.0,1235.0,280.8, 79.27,25.59, 8.997,3.319
 s,C,0.9059,0.3643,0.1285000
 p,C,56.0,18.71,4.133,0.2827,0.3827,0.1209
 d,C,30.0,10.0,3.3,1.097,0.318
 f,C,7.0,2.3,0.7610
 s,N,11420.0,1712.0,389.3,110.0,35.57,12.54,4.644
 s,N,1.293,0.5118,0.1787
 p,N,79.89,26.63,5.948,1.742,0.555,0.1725
 d,N,45.0,15.0,5.0,1.654,0.469
 f,N,9.9,3.3,1.093
 s,O,15330.0,2299.0,522.4,147.3,47.55,16.76,6.207
 s,O,1.752,0.6882,0.2384
 p,O,103.5,34.46,7.749,2.28,0.7156,0.214
 d,O,63.0,21.0,7.0,2.314,0.645
 f,O,12.9,4.3,1.428
 s,mg,164900.0,24710.0,5628.0,1596.0,521.0;
 s,mg,188.0,73.01,29.90,12.54,4.306,1.826;
 s,mg,0.7417,0.0761,0.145,0.033,0.0129;
 p,mg,950.70,316.90,74.86,23.72,8.669,3.363;
 p,mg,1.310,0.4911,0.2364,0.08733,0.03237,0.00745;
 d,mg,1.601,0.686,0.126,0.294,0.0468;
 f,mg,1.372,0.588,0.094,0.252;
 }
   {hf,maxit=500;accu,20;}
 {ccsd(t),nocheck,maxit=250;orbital,IGNORE_ERROR;}

 Variables initialized (889), CPU time= 0.01 sec
 Commands  initialized (702), CPU time= 0.02 sec, 572 directives.
 Default parameters read. Elapsed time= 0.07 sec

 Checking input...
 Passed
1


                                         ***  PROGRAM SYSTEM MOLPRO  ***
                                       Copyright, TTI GmbH Stuttgart, 2015
                                    Version 2015.1 linked Jul  9 2018 13:16:40


 **********************************************************************************************************************************
 LABEL *   hcn CCSD(T)/TZ-F12 QFF                                                        
  64 bit serial version                                                                  DATE: 06-Feb-20          TIME: 09:54:45  
 **********************************************************************************************************************************

 SHA1:             d5ffa45e93fdbca01ffc919aa182cfdae0147319
 **********************************************************************************************************************************

 THRESHOLDS:

 ZERO    =  1.00D-22  ONEINT  =  1.00D-22  TWOINT  =  1.00D-22  PREFAC  =  1.00D-14  LOCALI  =  1.00D-09  EORDER  =  1.00D-04
 ENERGY  =  1.00D-12  ETEST   =  0.00D+00  EDENS   =  0.00D+00  THRDEDEF=  1.00D-06  GRADIENT=  1.00D-02  STEP    =  1.00D-03
 ORBITAL =  1.00D-05  CIVEC   =  1.00D-05  COEFF   =  1.00D-04  PRINTCI =  5.00D-02  PUNCHCI =  9.90D+01  OPTGRAD =  3.00D-04
 OPTENERG=  1.00D-06  OPTSTEP =  3.00D-04  THRGRAD =  1.00D-10  COMPRESS=  1.00D-11  VARMIN  =  1.00D-07  VARMAX  =  1.00D-03
 THRDOUB =  0.00D+00  THRDIV  =  1.00D-05  THRRED  =  1.00D-07  THRPSP  =  1.00D+00  THRDC   =  1.00D-10  THRCS   =  1.00D-10
 THRNRM  =  1.00D-08  THREQ   =  0.00D+00  THRDE   =  1.00D+00  THRREF  =  1.00D-05  SPARFAC =  1.00D+00  THRDLP  =  1.00D-07
 THRDIA  =  1.00D-10  THRDLS  =  1.00D-07  THRGPS  =  0.00D+00  THRKEX  =  0.00D+00  THRDIS  =  2.00D-01  THRVAR  =  1.00D-10
 THRLOC  =  1.00D-06  THRGAP  =  1.00D-06  THRLOCT = -1.00D+00  THRGAPT = -1.00D+00  THRORB  =  1.00D-06  THRMLTP =  0.00D+00
 THRCPQCI=  1.00D-10  KEXTA   =  0.00D+00  THRCOARS=  0.00D+00  SYMTOL  =  1.00D-06  GRADTOL =  1.00D-06  THROVL  =  1.00D-08
 THRORTH =  1.00D-08  GRID    =  1.00D-06  GRIDMAX =  1.00D-03  DTMAX   =  0.00D+00  THROCCDE=  1.00D-01  THROCCDE=  1.00D-01



 THRESHOLDS:

 ZERO    =  1.00D-22  ONEINT  =  1.00D-22  TWOINT  =  1.00D-22  PREFAC  =  1.00D-14  LOCALI  =  1.00D-09  EORDER  =  1.00D-04
 ENERGY  =  1.00D-12  ETEST   =  0.00D+00  EDENS   =  0.00D+00  THRDEDEF=  1.00D-06  GRADIENT=  1.00D-02  STEP    =  1.00D-03
 ORBITAL =  1.00D-05  CIVEC   =  1.00D-05  COEFF   =  1.00D-04  PRINTCI =  5.00D-02  PUNCHCI =  9.90D+01  OPTGRAD =  1.00D-08
 OPTENERG=  1.00D-06  OPTSTEP =  1.00D-08  THRGRAD =  1.00D-10  COMPRESS=  1.00D-11  VARMIN  =  1.00D-07  VARMAX  =  1.00D-03
 THRDOUB =  0.00D+00  THRDIV  =  1.00D-05  THRRED  =  1.00D-07  THRPSP  =  1.00D+00  THRDC   =  1.00D-10  THRCS   =  1.00D-10
 THRNRM  =  1.00D-08  THREQ   =  0.00D+00  THRDE   =  1.00D+00  THRREF  =  1.00D-05  SPARFAC =  1.00D+00  THRDLP  =  1.00D-07
 THRDIA  =  1.00D-10  THRDLS  =  1.00D-07  THRGPS  =  0.00D+00  THRKEX  =  0.00D+00  THRDIS  =  2.00D-01  THRVAR  =  1.00D-10
 THRLOC  =  1.00D-06  THRGAP  =  1.00D-06  THRLOCT = -1.00D+00  THRGAPT = -1.00D+00  THRORB  =  1.00D-06  THRMLTP =  0.00D+00
 THRCPQCI=  1.00D-10  KEXTA   =  0.00D+00  THRCOARS=  0.00D+00  SYMTOL  =  1.00D-06  GRADTOL =  1.00D-06  THROVL  =  1.00D-08
 THRORTH =  1.00D-08  GRID    =  1.00D-06  GRIDMAX =  1.00D-03  DTMAX   =  0.00D+00  THROCCDE=  1.00D-01  THROCCDE=  1.00D-01



 Input parameters for SORTINT:

 COMPRESS =    0.000000
 C_FINAL  =    1.000000
 DEBUG    =   -1.000000
 C_SORT1  =    0.000000
 C_SEWARD =    0.000000
 THRESH   =    0.000000
 IO       =  molpro                                                          
 SPRI     =    0.000000
 SETTING GEOMTYP        =    XYZ
 ZUNIT=BOHR
 

 Variable memory set to  995000000 words,  buffer space   230000 words

 SETTING BASIS          =    USERDEF


 Recomputing integrals since basis changed


 Using spherical harmonics

 Library entry H      S aug-cc-pVTZ          selected for orbital group  3
 Library entry H      P aug-cc-pVTZ          selected for orbital group  3
 Library entry H      D aug-cc-pVTZ          selected for orbital group  3


 PROGRAM * SEWARD (Integral evaluation for generally contracted gaussian basis sets)     Author: Roland Lindh, 1990

 Geometry written to block  1 of record 700


 Point group  Cs  



 ATOMIC COORDINATES

 NR  ATOM    CHARGE       X              Y              Z

   1  N       7.00   -0.004597067    0.000000000    1.112054719
   2  C       6.00    0.009571865    0.000000000   -1.047851214
   3  H       1.00   -0.004974798    0.000000000   -3.061273487

 Bond lengths in Bohr (Angstrom)

 1-2  2.159952407  2-3  2.013474821
     ( 1.142997591)     ( 1.065484990)

 Bond angles

  1-2-3  179.21020051

 NUCLEAR CHARGE:                   14
 NUMBER OF PRIMITIVE AOS:         203
 NUMBER OF SYMMETRY AOS:          173
 NUMBER OF CONTRACTIONS:          171   ( 114A'  +  57A"  )
 NUMBER OF CORE ORBITALS:           2   (   2A'  +   0A"  )
 NUMBER OF VALENCE ORBITALS:        9   (   7A'  +   2A"  )


 NUCLEAR REPULSION ENERGY   24.10211427


 Eigenvalues of metric

         1 0.241E-03 0.498E-03 0.894E-03 0.138E-02 0.316E-02 0.535E-02 0.750E-02 0.997E-02
         2 0.535E-02 0.154E-01 0.215E-01 0.341E-01 0.963E-01 0.112E+00 0.124E+00 0.125E+00


 Contracted 2-electron integrals neglected if value below      1.0D-22

       48139075. INTEGRALS WRITTEN OUT IN   11756 BLOCKS ON RECORD 1290 OF FILE 1


 NUMBER OF SORTED TWO-ELECTRON INTEGRALS:   55360566.     BUFFER LENGTH:  32768
 NUMBER OF SEGMENTS:   4  SEGMENT LENGTH:   15997996      RECORD LENGTH: 524288

 Memory used in sort:      16.56 MW

 SORT1 READ    48139075. AND WROTE    48595673. INTEGRALS IN    141 RECORDS. CPU TIME:     0.73 SEC, REAL TIME:     1.02 SEC
 SORT2 READ    48595673. AND WROTE    55360566. INTEGRALS IN      4 RECORDS. CPU TIME:     0.64 SEC, REAL TIME:     0.84 SEC

 FILE SIZES:   FILE 1:   791.2 MBYTE,  FILE 4:   591.4 MBYTE,   TOTAL:   1382.6 MBYTE

 OPERATOR DM      FOR CENTER  0  COORDINATES:    0.000000    0.000000    0.000000


 **********************************************************************************************************************************
 DATASETS  * FILE   NREC   LENGTH (MB)   RECORD NAMES
              1      19      433.51       500      610      700      900      950      970     1000      129      960     1100   
                                          VAR    BASINP    GEOM    SYMINP    ZMAT    AOBASIS   BASIS     P2S    ABASIS      S 
                                         1400     1410     1200     1210     1080     1600     1650     1300     1700   
                                           T        V       H0       H01     AOSYM     SMH    MOLCAS    ERIS     OPER   

 PROGRAMS   *        TOTAL       INT
 CPU TIMES  *         4.03      3.92
 REAL TIME  *         5.53 SEC
 DISK USED  *         1.38 GB      
 **********************************************************************************************************************************


 PROGRAM * RHF-SCF (CLOSED SHELL)       Authors: W. Meyer, H.-J. Werner


 NUMBER OF ELECTRONS:       7+    7-
 CONVERGENCE THRESHOLDS:    1.00E-10 (Density)    1.00E-13 (Energy)
 MAX. NUMBER OF ITERATIONS:      500
 INTERPOLATION TYPE:            DIIS
 INTERPOLATION STEPS:              2 (START)      1 (STEP)
 LEVEL SHIFTS:                  0.00 (CLOSED)  0.00 (OPEN) 



 Orbital guess generated from atomic densities. Full valence occupancy:    9   2

 Molecular orbital dump at record        2100.2

 Initial occupancy:   6   1

 ITERATION    DDIFF          GRAD             ENERGY        2-EL.EN.            DIPOLE MOMENTS         DIIS   ORB.
    1      0.000D+00      0.000D+00       -92.77208401    112.133380    0.00836    0.00000   -2.01660    0    start
    2      0.000D+00      0.714D-02       -92.78508478    110.357755   -0.00306    0.00000   -0.95838    1    diag
    3      0.251D-01      0.608D-02       -92.80653680    111.293916    0.00169    0.00000   -1.44813    2    diag
    4      0.864D-02      0.435D-03       -92.80678118    111.248594    0.00132    0.00000   -1.44086    3    diag
    5      0.138D-02      0.952D-04       -92.80679536    111.254837    0.00122    0.00000   -1.43967    4    diag
    6      0.376D-03      0.245D-04       -92.80679605    111.251170    0.00121    0.00000   -1.43999    5    diag
    7      0.277D-04      0.856D-05       -92.80679612    111.252189    0.00120    0.00000   -1.44004    6    diag
    8      0.111D-04      0.172D-05       -92.80679613    111.252166    0.00120    0.00000   -1.44002    7    diag
    9      0.562D-05      0.191D-06       -92.80679613    111.252173    0.00120    0.00000   -1.44002    8    diag
   10      0.949D-06      0.223D-07       -92.80679613    111.252174    0.00120    0.00000   -1.44002    9    orth
   11      0.962D-07      0.379D-08       -92.80679613    111.252174    0.00120    0.00000   -1.44002    9    diag
   12      0.126D-07      0.134D-08       -92.80679613    111.252174    0.00120    0.00000   -1.44002    9    diag
   13      0.556D-08      0.625D-09       -92.80679613    111.252174    0.00120    0.00000   -1.44002    9    diag
   14      0.404D-08      0.152D-09       -92.80679613    111.252174    0.00120    0.00000   -1.44002    9    diag
   15      0.941D-09      0.548D-10       -92.80679613    111.252174    0.00120    0.00000   -1.44002    9    diag
   16      0.246D-09      0.144D-10       -92.80679613    111.252174    0.00120    0.00000   -1.44002    9    diag
   17      0.704D-10      0.339D-11       -92.80679613    111.252174    0.00120    0.00000   -1.44002    9    diag
   18      0.107D-10      0.920D-12       -92.80679613    111.252174    0.00120    0.00000   -1.44002    9    diag
   19      0.233D-11      0.559D-12       -92.80679613    111.252174    0.00120    0.00000   -1.44002    9    fixocc
   20      0.672D-12      0.173D-12       -92.80679613    111.252174    0.00120    0.00000   -1.44002    9    orth
   21      0.559D-12      0.422D-12       -92.80679613    111.252174    0.00120    0.00000   -1.44002    9    diag
   22      0.329D-12      0.185D-12       -92.80679613    111.252174    0.00120    0.00000   -1.44002    0    orth

 Final occupancy:   6   1

 !RHF STATE 1.1 Energy                -92.806796127170
 Nuclear energy                        24.10211427
 One-electron energy                 -172.53499750
 Two-electron energy                   55.62608710
 Virial quotient                       -1.00178260
 !RHF STATE 1.1 Dipole moment           0.00119892     0.00000000    -1.44002082
 Dipole moment /Debye                   0.00304716     0.00000000    -3.65992811

 Orbital energies:

         1.1          2.1          3.1          4.1          5.1          6.1          7.1          8.1
    -15.587552   -11.395997    -1.258747    -0.834666    -0.577528    -0.493460     0.032722     0.135464

         1.2          2.2          3.2
     -0.493462     0.135532     0.308700

 HOMO      6.1    -0.493460 =     -13.4277eV
 LUMO      7.1     0.032722 =       0.8904eV
 LUMO-HOMO         0.526181 =      14.3181eV


 **********************************************************************************************************************************
 DATASETS  * FILE   NREC   LENGTH (MB)   RECORD NAMES
              1      19      433.51       500      610      700      900      950      970     1000      129      960     1100   
                                          VAR    BASINP    GEOM    SYMINP    ZMAT    AOBASIS   BASIS     P2S    ABASIS      S 
                                         1400     1410     1200     1210     1080     1600     1650     1300     1700   
                                           T        V       H0       H01     AOSYM     SMH    MOLCAS    ERIS     OPER   

              2       4        3.13       700     1000      520     2100   
                                         GEOM     BASIS   MCVARS     RHF  

 PROGRAMS   *        TOTAL        HF       INT
 CPU TIMES  *         9.41      5.38      3.92
 REAL TIME  *        12.04 SEC
 DISK USED  *         1.38 GB      
 **********************************************************************************************************************************


 PROGRAM * CCSD (Closed-shell coupled cluster)     Authors: C. Hampel, H.-J. Werner, 1991, M. Deegan, P.J. Knowles, 1992


 Convergence thresholds:  THRVAR = 1.00D-08  THRDEN = 1.00D-12

 CCSD(T)     terms to be evaluated (factor= 1.000)


 Number of core orbitals:           2 (   2   0 )
 Number of closed-shell orbitals:   5 (   4   1 )
 Number of external orbitals:     164 ( 108  56 )

 Molecular orbitals read from record     2100.2  Type=RHF/CANONICAL (state 1.1)

 Number of N-1 electron functions:               5
 Number of N-2 electron functions:              15
 Number of singly external CSFs:               488
 Number of doubly external CSFs:            174594
 Total number of CSFs:                      175083

 Length of J-op  integral file:               0.00 MB
 Length of K-op  integral file:               1.15 MB
 Length of 3-ext integral record:             0.00 MB

 Memory could be reduced to 17.82 Mwords without degradation in triples

 Integral transformation finished. Total CPU:   0.59 sec, npass=  1  Memory used:   4.44 MW

 Reference energy:                    -92.80679613

 MP2 singlet pair energy:              -0.21579010
 MP2 triplet pair energy:              -0.12333027
 MP2 correlation energy:               -0.33912037
 MP2 total energy:                    -93.14591650

 SCS-MP2 correlation energy:           -0.33568696   (PS=  1.200000  PT=  0.333333)
 SCS-MP2 total energy:                -93.14248309

 ITER.      SQ.NORM     CORR.ENERGY   TOTAL ENERGY   ENERGY CHANGE        DEN1      VAR(S)    VAR(P)  DIIS     TIME  TIME/IT
   1      1.10923047    -0.34278592   -93.14958205    -0.00366554     0.00780930  0.22D-02  0.25D-02  1  1     1.07     0.54
   2      1.11740877    -0.34322610   -93.15002223    -0.00044018    -0.00884101  0.71D-04  0.35D-03  2  2     1.57     0.55
   3      1.12199549    -0.34341189   -93.15020801    -0.00018578    -0.00257115  0.98D-05  0.38D-04  3  3     2.04     0.55
   4      1.12370876    -0.34347645   -93.15027258    -0.00006456    -0.00058096  0.86D-06  0.42D-05  4  4     2.54     0.55
   5      1.12419582    -0.34347506   -93.15027118     0.00000139    -0.00014890  0.13D-06  0.33D-06  5  5     3.03     0.55
   6      1.12427846    -0.34347290   -93.15026903     0.00000216    -0.00002097  0.85D-08  0.26D-07  6  6     3.56     0.56
   7      1.12428511    -0.34347415   -93.15027028    -0.00000125     0.00000018  0.13D-08  0.21D-08  6  1     4.12     0.57
   8      1.12428762    -0.34347444   -93.15027057    -0.00000029    -0.00000091  0.25D-09  0.16D-09  6  2     4.65     0.58
   9      1.12428762    -0.34347451   -93.15027063    -0.00000006     0.00000016  0.24D-10  0.16D-10  6  3     5.14     0.58
  10      1.12428769    -0.34347452   -93.15027064    -0.00000001     0.00000005  0.55D-11  0.23D-11  6  4     5.64     0.58
  11      1.12428773    -0.34347452   -93.15027064    -0.00000000     0.00000000  0.46D-12  0.45D-12  6  5     6.14     0.58
  12      1.12428769    -0.34347452   -93.15027065    -0.00000000     0.00000003  0.32D-13  0.11D-12  6  6     6.64     0.58
  13      1.12428765    -0.34347452   -93.15027065    -0.00000000     0.00000001  0.25D-14  0.13D-13  6  1     7.14     0.58
  14      1.12428763    -0.34347452   -93.15027065    -0.00000000     0.00000001  0.76D-15  0.17D-14  6  2     7.65     0.58
  15      1.12428762    -0.34347452   -93.15027065    -0.00000000     0.00000000  0.14D-15  0.26D-15  6  3     8.17     0.58
  16      1.12428762    -0.34347452   -93.15027065    -0.00000000     0.00000000  0.11D-16  0.13D-16  6  5     8.68     0.58
  17      1.12428762    -0.34347452   -93.15027065    -0.00000000     0.00000000  0.16D-17  0.94D-18  6  2     9.16     0.58
  18      1.12428762    -0.34347452   -93.15027065     0.00000000    -0.00000000  0.36D-18  0.13D-18  6  4     9.65     0.58
  19      1.12428762    -0.34347452   -93.15027065     0.00000000    -0.00000000  0.60D-19  0.23D-19  6  6    10.16     0.58
  20      1.12428762    -0.34347452   -93.15027065    -0.00000000    -0.00000000  0.87D-20  0.44D-20  6  1    10.65     0.58
  21      1.12428762    -0.34347452   -93.15027065    -0.00000000    -0.00000000  0.52D-21  0.68D-21  6  4    11.13     0.58

 Norm of t1 vector:      0.06048201      S-energy:    -0.00000000      T1 diagnostic:  0.01352419
                                                                       D1 diagnostic:  0.02620751

 Doubles amplitudes (print threshold =  0.500E-01):

         I         J         SYM. A    SYM. B    A         B      T(IJ, AB)

         4         4         1         1         2         2     -0.05627882
         5         5         2         2         1         1     -0.05638820


 Total CPU time for triples:      3.99 sec


 RESULTS
 =======

  Reference energy                    -92.806796127170
  CCSD singlet pair energy             -0.237922484420
  CCSD triplet pair energy             -0.105552035704
  CCSD correlation energy              -0.343474520125

  Triples (T) contribution             -0.016740538441
  Total correlation energy             -0.360215058566

  CCSD total energy                   -93.150270647295
  CCSD[T] energy                      -93.167676393855
  CCSD-T energy                       -93.166681019280
 !CCSD(T) total energy                -93.167011185736

 Timing summary (sec):

 STEP                 CPU(USER)    SYS     CPU(TOT)    WALL
 Transformation          0.60      0.11      0.71      0.71
 CCSD iterations        10.54      1.57     12.11     12.13
 Triples                 3.99      0.13      4.12      4.11

 Program statistics:

 Available memory in ccsd:               994999800
 Min. memory needed in ccsd:                705325
 Max. memory used in ccsd:                  840968
 Max. memory used in cckext:               1345378 (21 integral passes)



 **********************************************************************************************************************************
 DATASETS  * FILE   NREC   LENGTH (MB)   RECORD NAMES
              1      20      482.13       500      610      700      900      950      970     1000      129      960     1100   
                                          VAR    BASINP    GEOM    SYMINP    ZMAT    AOBASIS   BASIS     P2S    ABASIS      S 
                                         1400     1410     1200     1210     1080     1600     1650     1300     1700     1380   
                                           T        V       H0       H01     AOSYM     SMH    MOLCAS    ERIS     OPER     JKOP   

              2       4        3.13       700     1000      520     2100   
                                         GEOM     BASIS   MCVARS     RHF  

 PROGRAMS   *        TOTAL   CCSD(T)        HF       INT
 CPU TIMES  *        24.56     15.14      5.38      3.92
 REAL TIME  *        29.03 SEC
 DISK USED  *         1.38 GB      
 **********************************************************************************************************************************

 CCSD(T)/USERDEF energy=    -93.167011185736

        CCSD(T)         HF-SCF  
    -93.16701119    -92.80679613
 **********************************************************************************************************************************
 Molpro calculation terminated
 Variable memory released
