
 Primary working directories    : /tmp/r2666/232694.maple
 Secondary working directories  : /tmp/r2666/232694.maple
 Wavefunction directory         : /ddn/home4/r2666/wfu/
 Main file repository           : /tmp/r2666/232694.maple/

 SHA1      : d5ffa45e93fdbca01ffc919aa182cfdae0147319
 NAME      : 2015.1.35
 ARCHNAME  : linux/x86_64
 FC        : /opt/intel/composer_xe_2015.1.133/bin/intel64/ifort
 BLASLIB   : -Wl,-_start-group /opt/intel/mkl/lib/intel64/libmkl_intel_ilp64.a /opt/intel/mkl/lib/intel64/libmkl_intel_thread.a /opt/intel/mkl/lib/intel64/libmkl_core.a -Wl,-_end-group
 id        : olemiss

 Nodes     nprocs
 cn082        1

 Using customized tuning parameters: mindgm=1; mindgv=20; mindgc=4; mindgr=1; noblas=0; minvec=7
 default implementation of scratch files=df  

 ***,hcn CCSD(T)/TZ-F12 QFF
 memory, 995, m;
 gthresh,energy=1.d-12,zero=1.d-22,oneint=1.d-22,twoint=1.d-22;
 gthresh,optgrad=1.d-8,optstep=1.d-8;
 nocompress;
 geomtyp=xyz
 bohr
 geometry={
 3
         28        28
 N       -0.0046162072        0.0000000025        1.1246527606
 C        0.0096115372       -0.0000000001       -1.0541504528
 H       -0.0049953300       -0.0000000024       -3.0675722899
 }
 
 basis={
 default=aug-cc-pvtz
 s,C,8236.0,1235.0,280.8, 79.27,25.59, 8.997,3.319
 s,C,0.9059,0.3643,0.1285000
 p,C,56.0,18.71,4.133,0.2827,0.3827,0.1209
 d,C,30.0,10.0,3.3,1.097,0.318
 f,C,7.0,2.3,0.7610
 s,N,11420.0,1712.0,389.3,110.0,35.57,12.54,4.644
 s,N,1.293,0.5118,0.1787
 p,N,79.89,26.63,5.948,1.742,0.555,0.1725
 d,N,45.0,15.0,5.0,1.654,0.469
 f,N,9.9,3.3,1.093
 s,O,15330.0,2299.0,522.4,147.3,47.55,16.76,6.207
 s,O,1.752,0.6882,0.2384
 p,O,103.5,34.46,7.749,2.28,0.7156,0.214
 d,O,63.0,21.0,7.0,2.314,0.645
 f,O,12.9,4.3,1.428
 s,mg,164900.0,24710.0,5628.0,1596.0,521.0;
 s,mg,188.0,73.01,29.90,12.54,4.306,1.826;
 s,mg,0.7417,0.0761,0.145,0.033,0.0129;
 p,mg,950.70,316.90,74.86,23.72,8.669,3.363;
 p,mg,1.310,0.4911,0.2364,0.08733,0.03237,0.00745;
 d,mg,1.601,0.686,0.126,0.294,0.0468;
 f,mg,1.372,0.588,0.094,0.252;
 }
   {hf,maxit=500;accu,20;}
 {ccsd(t),nocheck,maxit=250;orbital,IGNORE_ERROR;}

 Variables initialized (889), CPU time= 0.01 sec
 Commands  initialized (702), CPU time= 0.00 sec, 572 directives.
 Default parameters read. Elapsed time= 0.13 sec

 Checking input...
 Passed
1


                                         ***  PROGRAM SYSTEM MOLPRO  ***
                                       Copyright, TTI GmbH Stuttgart, 2015
                                    Version 2015.1 linked Jul  9 2018 13:16:40


 **********************************************************************************************************************************
 LABEL *   hcn CCSD(T)/TZ-F12 QFF                                                        
  64 bit serial version                                                                  DATE: 06-Feb-20          TIME: 09:54:47  
 **********************************************************************************************************************************

 SHA1:             d5ffa45e93fdbca01ffc919aa182cfdae0147319
 **********************************************************************************************************************************

 THRESHOLDS:

 ZERO    =  1.00D-22  ONEINT  =  1.00D-22  TWOINT  =  1.00D-22  PREFAC  =  1.00D-14  LOCALI  =  1.00D-09  EORDER  =  1.00D-04
 ENERGY  =  1.00D-12  ETEST   =  0.00D+00  EDENS   =  0.00D+00  THRDEDEF=  1.00D-06  GRADIENT=  1.00D-02  STEP    =  1.00D-03
 ORBITAL =  1.00D-05  CIVEC   =  1.00D-05  COEFF   =  1.00D-04  PRINTCI =  5.00D-02  PUNCHCI =  9.90D+01  OPTGRAD =  3.00D-04
 OPTENERG=  1.00D-06  OPTSTEP =  3.00D-04  THRGRAD =  1.00D-10  COMPRESS=  1.00D-11  VARMIN  =  1.00D-07  VARMAX  =  1.00D-03
 THRDOUB =  0.00D+00  THRDIV  =  1.00D-05  THRRED  =  1.00D-07  THRPSP  =  1.00D+00  THRDC   =  1.00D-10  THRCS   =  1.00D-10
 THRNRM  =  1.00D-08  THREQ   =  0.00D+00  THRDE   =  1.00D+00  THRREF  =  1.00D-05  SPARFAC =  1.00D+00  THRDLP  =  1.00D-07
 THRDIA  =  1.00D-10  THRDLS  =  1.00D-07  THRGPS  =  0.00D+00  THRKEX  =  0.00D+00  THRDIS  =  2.00D-01  THRVAR  =  1.00D-10
 THRLOC  =  1.00D-06  THRGAP  =  1.00D-06  THRLOCT = -1.00D+00  THRGAPT = -1.00D+00  THRORB  =  1.00D-06  THRMLTP =  0.00D+00
 THRCPQCI=  1.00D-10  KEXTA   =  0.00D+00  THRCOARS=  0.00D+00  SYMTOL  =  1.00D-06  GRADTOL =  1.00D-06  THROVL  =  1.00D-08
 THRORTH =  1.00D-08  GRID    =  1.00D-06  GRIDMAX =  1.00D-03  DTMAX   =  0.00D+00  THROCCDE=  1.00D-01  THROCCDE=  1.00D-01



 THRESHOLDS:

 ZERO    =  1.00D-22  ONEINT  =  1.00D-22  TWOINT  =  1.00D-22  PREFAC  =  1.00D-14  LOCALI  =  1.00D-09  EORDER  =  1.00D-04
 ENERGY  =  1.00D-12  ETEST   =  0.00D+00  EDENS   =  0.00D+00  THRDEDEF=  1.00D-06  GRADIENT=  1.00D-02  STEP    =  1.00D-03
 ORBITAL =  1.00D-05  CIVEC   =  1.00D-05  COEFF   =  1.00D-04  PRINTCI =  5.00D-02  PUNCHCI =  9.90D+01  OPTGRAD =  1.00D-08
 OPTENERG=  1.00D-06  OPTSTEP =  1.00D-08  THRGRAD =  1.00D-10  COMPRESS=  1.00D-11  VARMIN  =  1.00D-07  VARMAX  =  1.00D-03
 THRDOUB =  0.00D+00  THRDIV  =  1.00D-05  THRRED  =  1.00D-07  THRPSP  =  1.00D+00  THRDC   =  1.00D-10  THRCS   =  1.00D-10
 THRNRM  =  1.00D-08  THREQ   =  0.00D+00  THRDE   =  1.00D+00  THRREF  =  1.00D-05  SPARFAC =  1.00D+00  THRDLP  =  1.00D-07
 THRDIA  =  1.00D-10  THRDLS  =  1.00D-07  THRGPS  =  0.00D+00  THRKEX  =  0.00D+00  THRDIS  =  2.00D-01  THRVAR  =  1.00D-10
 THRLOC  =  1.00D-06  THRGAP  =  1.00D-06  THRLOCT = -1.00D+00  THRGAPT = -1.00D+00  THRORB  =  1.00D-06  THRMLTP =  0.00D+00
 THRCPQCI=  1.00D-10  KEXTA   =  0.00D+00  THRCOARS=  0.00D+00  SYMTOL  =  1.00D-06  GRADTOL =  1.00D-06  THROVL  =  1.00D-08
 THRORTH =  1.00D-08  GRID    =  1.00D-06  GRIDMAX =  1.00D-03  DTMAX   =  0.00D+00  THROCCDE=  1.00D-01  THROCCDE=  1.00D-01



 Input parameters for SORTINT:

 COMPRESS =    0.000000
 C_FINAL  =    1.000000
 DEBUG    =   -1.000000
 C_SORT1  =    0.000000
 C_SEWARD =    0.000000
 THRESH   =    0.000000
 IO       =  molpro                                                          
 SPRI     =    0.000000
 SETTING GEOMTYP        =    XYZ
 ZUNIT=BOHR
 

 Variable memory set to  995000000 words,  buffer space   230000 words

 SETTING BASIS          =    USERDEF


 Recomputing integrals since basis changed


 Using spherical harmonics

 Library entry H      S aug-cc-pVTZ          selected for orbital group  3
 Library entry H      P aug-cc-pVTZ          selected for orbital group  3
 Library entry H      D aug-cc-pVTZ          selected for orbital group  3


 PROGRAM * SEWARD (Integral evaluation for generally contracted gaussian basis sets)     Author: Roland Lindh, 1990

 Geometry written to block  1 of record 700


 Point group  Cs  



 ATOMIC COORDINATES

 NR  ATOM    CHARGE       X              Y              Z

   1  N       7.00   -0.004616207    0.000000000    1.124652761
   2  C       6.00    0.009611537    0.000000000   -1.054150453
   3  H       1.00   -0.004995330    0.000000000   -3.067572290

 Bond lengths in Bohr (Angstrom)

 1-2  2.178849667  2-3  2.013474821
     ( 1.152997590)     ( 1.065484990)

 Bond angles

  1-2-3  179.21020056

 NUCLEAR CHARGE:                   14
 NUMBER OF PRIMITIVE AOS:         203
 NUMBER OF SYMMETRY AOS:          173
 NUMBER OF CONTRACTIONS:          171   ( 114A'  +  57A"  )
 NUMBER OF CORE ORBITALS:           2   (   2A'  +   0A"  )
 NUMBER OF VALENCE ORBITALS:        9   (   7A'  +   2A"  )


 NUCLEAR REPULSION ENERGY   23.92590736


 Eigenvalues of metric

         1 0.243E-03 0.523E-03 0.909E-03 0.138E-02 0.318E-02 0.542E-02 0.756E-02 0.100E-01
         2 0.542E-02 0.157E-01 0.220E-01 0.346E-01 0.965E-01 0.112E+00 0.124E+00 0.125E+00


 Contracted 2-electron integrals neglected if value below      1.0D-22

       48001856. INTEGRALS WRITTEN OUT IN   11723 BLOCKS ON RECORD 1290 OF FILE 1


 NUMBER OF SORTED TWO-ELECTRON INTEGRALS:   55360566.     BUFFER LENGTH:  32768
 NUMBER OF SEGMENTS:   4  SEGMENT LENGTH:   15997996      RECORD LENGTH: 524288

 Memory used in sort:      16.56 MW

 SORT1 READ    48001856. AND WROTE    48457163. INTEGRALS IN    141 RECORDS. CPU TIME:     0.75 SEC, REAL TIME:     1.17 SEC
 SORT2 READ    48457163. AND WROTE    55360566. INTEGRALS IN      4 RECORDS. CPU TIME:     0.65 SEC, REAL TIME:     0.89 SEC

 FILE SIZES:   FILE 1:   789.0 MBYTE,  FILE 4:   591.4 MBYTE,   TOTAL:   1380.4 MBYTE

 OPERATOR DM      FOR CENTER  0  COORDINATES:    0.000000    0.000000    0.000000


 **********************************************************************************************************************************
 DATASETS  * FILE   NREC   LENGTH (MB)   RECORD NAMES
              1      19      432.71       500      610      700      900      950      970     1000      129      960     1100   
                                          VAR    BASINP    GEOM    SYMINP    ZMAT    AOBASIS   BASIS     P2S    ABASIS      S 
                                         1400     1410     1200     1210     1080     1600     1650     1300     1700   
                                           T        V       H0       H01     AOSYM     SMH    MOLCAS    ERIS     OPER   

 PROGRAMS   *        TOTAL       INT
 CPU TIMES  *         4.27      4.16
 REAL TIME  *         5.99 SEC
 DISK USED  *         1.38 GB      
 **********************************************************************************************************************************


 PROGRAM * RHF-SCF (CLOSED SHELL)       Authors: W. Meyer, H.-J. Werner


 NUMBER OF ELECTRONS:       7+    7-
 CONVERGENCE THRESHOLDS:    1.00E-10 (Density)    1.00E-13 (Energy)
 MAX. NUMBER OF ITERATIONS:      500
 INTERPOLATION TYPE:            DIIS
 INTERPOLATION STEPS:              2 (START)      1 (STEP)
 LEVEL SHIFTS:                  0.00 (CLOSED)  0.00 (OPEN) 



 Orbital guess generated from atomic densities. Full valence occupancy:    9   2

 Molecular orbital dump at record        2100.2

 Initial occupancy:   6   1

 ITERATION    DDIFF          GRAD             ENERGY        2-EL.EN.            DIPOLE MOMENTS         DIIS   ORB.
    1      0.000D+00      0.000D+00       -92.77157448    111.737248    0.00837    0.00000   -2.02467    0    start
    2      0.000D+00      0.710D-02       -92.78390526    110.021082   -0.00323    0.00000   -0.94577    1    diag
    3      0.256D-01      0.613D-02       -92.80589286    110.951005    0.00162    0.00000   -1.44951    2    diag
    4      0.881D-02      0.440D-03       -92.80614250    110.901394    0.00125    0.00000   -1.44234    3    diag
    5      0.140D-02      0.983D-04       -92.80615707    110.909524    0.00114    0.00000   -1.44106    4    diag
    6      0.391D-03      0.257D-04       -92.80615786    110.905317    0.00113    0.00000   -1.44132    5    diag
    7      0.314D-04      0.911D-05       -92.80615795    110.906297    0.00112    0.00000   -1.44139    6    diag
    8      0.118D-04      0.182D-05       -92.80615795    110.906280    0.00112    0.00000   -1.44137    7    diag
    9      0.612D-05      0.201D-06       -92.80615795    110.906288    0.00112    0.00000   -1.44137    8    diag
   10      0.103D-05      0.230D-07       -92.80615795    110.906289    0.00112    0.00000   -1.44137    9    orth
   11      0.103D-06      0.414D-08       -92.80615795    110.906289    0.00112    0.00000   -1.44137    9    diag
   12      0.137D-07      0.153D-08       -92.80615795    110.906289    0.00112    0.00000   -1.44137    9    diag
   13      0.655D-08      0.693D-09       -92.80615795    110.906289    0.00112    0.00000   -1.44137    9    diag
   14      0.442D-08      0.184D-09       -92.80615795    110.906289    0.00112    0.00000   -1.44137    9    diag
   15      0.114D-08      0.698D-10       -92.80615795    110.906289    0.00112    0.00000   -1.44137    9    diag
   16      0.352D-09      0.161D-10       -92.80615795    110.906289    0.00112    0.00000   -1.44137    9    diag
   17      0.824D-10      0.408D-11       -92.80615795    110.906289    0.00112    0.00000   -1.44137    9    diag
   18      0.135D-10      0.102D-11       -92.80615795    110.906289    0.00112    0.00000   -1.44137    9    diag
   19      0.227D-11      0.220D-12       -92.80615795    110.906289    0.00112    0.00000   -1.44137    9    fixocc
   20      0.182D-11      0.394D-12       -92.80615795    110.906289    0.00112    0.00000   -1.44137    0    orth

 Final occupancy:   6   1

 !RHF STATE 1.1 Energy                -92.806157948390
 Nuclear energy                        23.92590736
 One-electron energy                 -172.18520991
 Two-electron energy                   55.45314461
 Virial quotient                       -1.00238846
 !RHF STATE 1.1 Dipole moment           0.00112167     0.00000000    -1.44137068
 Dipole moment /Debye                   0.00285083     0.00000000    -3.66335890

 Orbital energies:

         1.1          2.1          3.1          4.1          5.1          6.1          7.1          8.1
    -15.591064   -11.399518    -1.253832    -0.835982    -0.578057    -0.490503     0.032661     0.133538

         1.2          2.2          3.2
     -0.490505     0.133602     0.306355

 HOMO      6.1    -0.490503 =     -13.3473eV
 LUMO      7.1     0.032661 =       0.8887eV
 LUMO-HOMO         0.523164 =      14.2360eV


 **********************************************************************************************************************************
 DATASETS  * FILE   NREC   LENGTH (MB)   RECORD NAMES
              1      19      432.71       500      610      700      900      950      970     1000      129      960     1100   
                                          VAR    BASINP    GEOM    SYMINP    ZMAT    AOBASIS   BASIS     P2S    ABASIS      S 
                                         1400     1410     1200     1210     1080     1600     1650     1300     1700   
                                           T        V       H0       H01     AOSYM     SMH    MOLCAS    ERIS     OPER   

              2       4        3.13       700     1000      520     2100   
                                         GEOM     BASIS   MCVARS     RHF  

 PROGRAMS   *        TOTAL        HF       INT
 CPU TIMES  *         9.49      5.22      4.16
 REAL TIME  *        12.52 SEC
 DISK USED  *         1.38 GB      
 **********************************************************************************************************************************


 PROGRAM * CCSD (Closed-shell coupled cluster)     Authors: C. Hampel, H.-J. Werner, 1991, M. Deegan, P.J. Knowles, 1992


 Convergence thresholds:  THRVAR = 1.00D-08  THRDEN = 1.00D-12

 CCSD(T)     terms to be evaluated (factor= 1.000)


 Number of core orbitals:           2 (   2   0 )
 Number of closed-shell orbitals:   5 (   4   1 )
 Number of external orbitals:     164 ( 108  56 )

 Molecular orbitals read from record     2100.2  Type=RHF/CANONICAL (state 1.1)

 Number of N-1 electron functions:               5
 Number of N-2 electron functions:              15
 Number of singly external CSFs:               488
 Number of doubly external CSFs:            174594
 Total number of CSFs:                      175083

 Length of J-op  integral file:               0.00 MB
 Length of K-op  integral file:               1.15 MB
 Length of 3-ext integral record:             0.00 MB

 Memory could be reduced to 17.82 Mwords without degradation in triples

 Integral transformation finished. Total CPU:   0.59 sec, npass=  1  Memory used:   4.44 MW

 Reference energy:                    -92.80615795

 MP2 singlet pair energy:              -0.21672576
 MP2 triplet pair energy:              -0.12408086
 MP2 correlation energy:               -0.34080662
 MP2 total energy:                    -93.14696457

 SCS-MP2 correlation energy:           -0.33727678   (PS=  1.200000  PT=  0.333333)
 SCS-MP2 total energy:                -93.14343473

 ITER.      SQ.NORM     CORR.ENERGY   TOTAL ENERGY   ENERGY CHANGE        DEN1      VAR(S)    VAR(P)  DIIS     TIME  TIME/IT
   1      1.11040498    -0.34404288   -93.15020083    -0.00323626     0.00856671  0.23D-02  0.26D-02  1  1     1.09     0.57
   2      1.11879551    -0.34442743   -93.15058538    -0.00038455    -0.00903219  0.75D-04  0.36D-03  2  2     1.59     0.58
   3      1.12354342    -0.34462068   -93.15077863    -0.00019325    -0.00263243  0.10D-04  0.41D-04  3  3     2.08     0.58
   4      1.12534378    -0.34468989   -93.15084784    -0.00006921    -0.00060315  0.89D-06  0.45D-05  4  4     2.63     0.59
   5      1.12586307    -0.34468854   -93.15084649     0.00000135    -0.00015745  0.13D-06  0.36D-06  5  5     3.13     0.59
   6      1.12595223    -0.34468629   -93.15084423     0.00000226    -0.00002244  0.87D-08  0.29D-07  6  6     3.64     0.59
   7      1.12595937    -0.34468768   -93.15084563    -0.00000140     0.00000019  0.12D-08  0.24D-08  6  1     4.15     0.59
   8      1.12596206    -0.34468801   -93.15084595    -0.00000032    -0.00000101  0.23D-09  0.18D-09  6  2     4.61     0.59
   9      1.12596200    -0.34468808   -93.15084603    -0.00000007     0.00000019  0.19D-10  0.16D-10  6  3     5.11     0.59
  10      1.12596206    -0.34468809   -93.15084604    -0.00000001     0.00000005  0.46D-11  0.20D-11  6  4     5.61     0.59
  11      1.12596209    -0.34468809   -93.15084604    -0.00000000     0.00000000  0.48D-12  0.40D-12  6  5     6.11     0.59
  12      1.12596205    -0.34468809   -93.15084604    -0.00000000     0.00000003  0.41D-13  0.10D-12  6  6     6.61     0.59
  13      1.12596201    -0.34468810   -93.15084604    -0.00000000     0.00000001  0.25D-14  0.13D-13  6  1     7.11     0.59
  14      1.12596199    -0.34468810   -93.15084604    -0.00000000     0.00000001  0.64D-15  0.16D-14  6  2     7.64     0.59
  15      1.12596199    -0.34468810   -93.15084604    -0.00000000     0.00000000  0.12D-15  0.25D-15  6  3     8.14     0.59
  16      1.12596198    -0.34468810   -93.15084604    -0.00000000     0.00000000  0.12D-16  0.12D-16  6  5     8.65     0.59
  17      1.12596198    -0.34468810   -93.15084604    -0.00000000     0.00000000  0.17D-17  0.72D-18  6  4     9.18     0.59
  18      1.12596198    -0.34468810   -93.15084604     0.00000000    -0.00000000  0.47D-18  0.17D-18  6  6     9.69     0.59
  19      1.12596198    -0.34468810   -93.15084604     0.00000000     0.00000000  0.63D-19  0.27D-19  6  1    10.22     0.59
  20      1.12596198    -0.34468810   -93.15084604    -0.00000000    -0.00000000  0.55D-20  0.67D-20  6  2    10.75     0.59

 Norm of t1 vector:      0.06172135      S-energy:     0.00000000      T1 diagnostic:  0.01380131
                                                                       D1 diagnostic:  0.02680307

 Doubles amplitudes (print threshold =  0.500E-01):

         I         J         SYM. A    SYM. B    A         B      T(IJ, AB)

         4         4         1         1         2         2     -0.05839213
         5         5         2         2         1         1     -0.05848524


 Total CPU time for triples:      4.33 sec


 RESULTS
 =======

  Reference energy                    -92.806157948390
  CCSD singlet pair energy             -0.238921590087
  CCSD triplet pair energy             -0.105766505732
  CCSD correlation energy              -0.344688095819

  Triples (T) contribution             -0.017016353555
  Total correlation energy             -0.361704449374

  CCSD total energy                   -93.150846044208
  CCSD[T] energy                      -93.168558158372
  CCSD-T energy                       -93.167518243532
 !CCSD(T) total energy                -93.167862397764

 Timing summary (sec):

 STEP                 CPU(USER)    SYS     CPU(TOT)    WALL
 Transformation          0.59      0.17      0.76      0.78
 CCSD iterations        10.16      1.62     11.78     11.78
 Triples                 4.33      0.13      4.46      4.47

 Program statistics:

 Available memory in ccsd:               994999800
 Min. memory needed in ccsd:                705325
 Max. memory used in ccsd:                  840968
 Max. memory used in cckext:               1345378 (20 integral passes)



 **********************************************************************************************************************************
 DATASETS  * FILE   NREC   LENGTH (MB)   RECORD NAMES
              1      20      481.34       500      610      700      900      950      970     1000      129      960     1100   
                                          VAR    BASINP    GEOM    SYMINP    ZMAT    AOBASIS   BASIS     P2S    ABASIS      S 
                                         1400     1410     1200     1210     1080     1600     1650     1300     1700     1380   
                                           T        V       H0       H01     AOSYM     SMH    MOLCAS    ERIS     OPER     JKOP   

              2       4        3.13       700     1000      520     2100   
                                         GEOM     BASIS   MCVARS     RHF  

 PROGRAMS   *        TOTAL   CCSD(T)        HF       INT
 CPU TIMES  *        24.62     15.13      5.22      4.16
 REAL TIME  *        31.91 SEC
 DISK USED  *         1.38 GB      
 **********************************************************************************************************************************

 CCSD(T)/USERDEF energy=    -93.167862397764

        CCSD(T)         HF-SCF  
    -93.16786240    -92.80615795
 **********************************************************************************************************************************
 Molpro calculation terminated
 Variable memory released
