
 Primary working directories    : /tmp/r2666/232713.maple
 Secondary working directories  : /tmp/r2666/232713.maple
 Wavefunction directory         : /ddn/home4/r2666/wfu/
 Main file repository           : /tmp/r2666/232713.maple/

 SHA1      : d5ffa45e93fdbca01ffc919aa182cfdae0147319
 NAME      : 2015.1.35
 ARCHNAME  : linux/x86_64
 FC        : /opt/intel/composer_xe_2015.1.133/bin/intel64/ifort
 BLASLIB   : -Wl,-_start-group /opt/intel/mkl/lib/intel64/libmkl_intel_ilp64.a /opt/intel/mkl/lib/intel64/libmkl_intel_thread.a /opt/intel/mkl/lib/intel64/libmkl_core.a -Wl,-_end-group
 id        : olemiss

 Nodes     nprocs
 cn079        1

 Using customized tuning parameters: mindgm=1; mindgv=20; mindgc=4; mindgr=1; noblas=0; minvec=7
 default implementation of scratch files=df  

 ***,hcn CCSD(T)/TZ-F12 QFF
 memory, 995, m;
 gthresh,energy=1.d-12,zero=1.d-22,oneint=1.d-22,twoint=1.d-22;
 gthresh,optgrad=1.d-8,optstep=1.d-8;
 nocompress;
 geomtyp=xyz
 bohr
 geometry={
 3
         47        47
 N        0.0000000000        0.0000000000        1.1341500209
 C        0.0000000000        0.0000000000       -1.0635969059
 H        0.0000000000        0.0000000000       -3.0676230970
 }
 
 basis={
 default=aug-cc-pvtz
 s,C,8236.0,1235.0,280.8, 79.27,25.59, 8.997,3.319
 s,C,0.9059,0.3643,0.1285000
 p,C,56.0,18.71,4.133,0.2827,0.3827,0.1209
 d,C,30.0,10.0,3.3,1.097,0.318
 f,C,7.0,2.3,0.7610
 s,N,11420.0,1712.0,389.3,110.0,35.57,12.54,4.644
 s,N,1.293,0.5118,0.1787
 p,N,79.89,26.63,5.948,1.742,0.555,0.1725
 d,N,45.0,15.0,5.0,1.654,0.469
 f,N,9.9,3.3,1.093
 s,O,15330.0,2299.0,522.4,147.3,47.55,16.76,6.207
 s,O,1.752,0.6882,0.2384
 p,O,103.5,34.46,7.749,2.28,0.7156,0.214
 d,O,63.0,21.0,7.0,2.314,0.645
 f,O,12.9,4.3,1.428
 s,mg,164900.0,24710.0,5628.0,1596.0,521.0;
 s,mg,188.0,73.01,29.90,12.54,4.306,1.826;
 s,mg,0.7417,0.0761,0.145,0.033,0.0129;
 p,mg,950.70,316.90,74.86,23.72,8.669,3.363;
 p,mg,1.310,0.4911,0.2364,0.08733,0.03237,0.00745;
 d,mg,1.601,0.686,0.126,0.294,0.0468;
 f,mg,1.372,0.588,0.094,0.252;
 }
   {hf,maxit=500;accu,20;}
 {ccsd(t),nocheck,maxit=250;orbital,IGNORE_ERROR;}

 Variables initialized (889), CPU time= 0.01 sec
 Commands  initialized (702), CPU time= 0.01 sec, 572 directives.
 Default parameters read. Elapsed time= 0.05 sec

 Checking input...
 Passed
1


                                         ***  PROGRAM SYSTEM MOLPRO  ***
                                       Copyright, TTI GmbH Stuttgart, 2015
                                    Version 2015.1 linked Jul  9 2018 13:16:40


 **********************************************************************************************************************************
 LABEL *   hcn CCSD(T)/TZ-F12 QFF                                                        
  64 bit serial version                                                                  DATE: 06-Feb-20          TIME: 09:55:03  
 **********************************************************************************************************************************

 SHA1:             d5ffa45e93fdbca01ffc919aa182cfdae0147319
 **********************************************************************************************************************************

 THRESHOLDS:

 ZERO    =  1.00D-22  ONEINT  =  1.00D-22  TWOINT  =  1.00D-22  PREFAC  =  1.00D-14  LOCALI  =  1.00D-09  EORDER  =  1.00D-04
 ENERGY  =  1.00D-12  ETEST   =  0.00D+00  EDENS   =  0.00D+00  THRDEDEF=  1.00D-06  GRADIENT=  1.00D-02  STEP    =  1.00D-03
 ORBITAL =  1.00D-05  CIVEC   =  1.00D-05  COEFF   =  1.00D-04  PRINTCI =  5.00D-02  PUNCHCI =  9.90D+01  OPTGRAD =  3.00D-04
 OPTENERG=  1.00D-06  OPTSTEP =  3.00D-04  THRGRAD =  1.00D-10  COMPRESS=  1.00D-11  VARMIN  =  1.00D-07  VARMAX  =  1.00D-03
 THRDOUB =  0.00D+00  THRDIV  =  1.00D-05  THRRED  =  1.00D-07  THRPSP  =  1.00D+00  THRDC   =  1.00D-10  THRCS   =  1.00D-10
 THRNRM  =  1.00D-08  THREQ   =  0.00D+00  THRDE   =  1.00D+00  THRREF  =  1.00D-05  SPARFAC =  1.00D+00  THRDLP  =  1.00D-07
 THRDIA  =  1.00D-10  THRDLS  =  1.00D-07  THRGPS  =  0.00D+00  THRKEX  =  0.00D+00  THRDIS  =  2.00D-01  THRVAR  =  1.00D-10
 THRLOC  =  1.00D-06  THRGAP  =  1.00D-06  THRLOCT = -1.00D+00  THRGAPT = -1.00D+00  THRORB  =  1.00D-06  THRMLTP =  0.00D+00
 THRCPQCI=  1.00D-10  KEXTA   =  0.00D+00  THRCOARS=  0.00D+00  SYMTOL  =  1.00D-06  GRADTOL =  1.00D-06  THROVL  =  1.00D-08
 THRORTH =  1.00D-08  GRID    =  1.00D-06  GRIDMAX =  1.00D-03  DTMAX   =  0.00D+00  THROCCDE=  1.00D-01  THROCCDE=  1.00D-01



 THRESHOLDS:

 ZERO    =  1.00D-22  ONEINT  =  1.00D-22  TWOINT  =  1.00D-22  PREFAC  =  1.00D-14  LOCALI  =  1.00D-09  EORDER  =  1.00D-04
 ENERGY  =  1.00D-12  ETEST   =  0.00D+00  EDENS   =  0.00D+00  THRDEDEF=  1.00D-06  GRADIENT=  1.00D-02  STEP    =  1.00D-03
 ORBITAL =  1.00D-05  CIVEC   =  1.00D-05  COEFF   =  1.00D-04  PRINTCI =  5.00D-02  PUNCHCI =  9.90D+01  OPTGRAD =  1.00D-08
 OPTENERG=  1.00D-06  OPTSTEP =  1.00D-08  THRGRAD =  1.00D-10  COMPRESS=  1.00D-11  VARMIN  =  1.00D-07  VARMAX  =  1.00D-03
 THRDOUB =  0.00D+00  THRDIV  =  1.00D-05  THRRED  =  1.00D-07  THRPSP  =  1.00D+00  THRDC   =  1.00D-10  THRCS   =  1.00D-10
 THRNRM  =  1.00D-08  THREQ   =  0.00D+00  THRDE   =  1.00D+00  THRREF  =  1.00D-05  SPARFAC =  1.00D+00  THRDLP  =  1.00D-07
 THRDIA  =  1.00D-10  THRDLS  =  1.00D-07  THRGPS  =  0.00D+00  THRKEX  =  0.00D+00  THRDIS  =  2.00D-01  THRVAR  =  1.00D-10
 THRLOC  =  1.00D-06  THRGAP  =  1.00D-06  THRLOCT = -1.00D+00  THRGAPT = -1.00D+00  THRORB  =  1.00D-06  THRMLTP =  0.00D+00
 THRCPQCI=  1.00D-10  KEXTA   =  0.00D+00  THRCOARS=  0.00D+00  SYMTOL  =  1.00D-06  GRADTOL =  1.00D-06  THROVL  =  1.00D-08
 THRORTH =  1.00D-08  GRID    =  1.00D-06  GRIDMAX =  1.00D-03  DTMAX   =  0.00D+00  THROCCDE=  1.00D-01  THROCCDE=  1.00D-01



 Input parameters for SORTINT:

 COMPRESS =    0.000000
 C_FINAL  =    1.000000
 DEBUG    =   -1.000000
 C_SORT1  =    0.000000
 C_SEWARD =    0.000000
 THRESH   =    0.000000
 IO       =  molpro                                                          
 SPRI     =    0.000000
 SETTING GEOMTYP        =    XYZ
 ZUNIT=BOHR
 

 Variable memory set to  995000000 words,  buffer space   230000 words

 SETTING BASIS          =    USERDEF


 Recomputing integrals since basis changed


 Using spherical harmonics

 Library entry H      S aug-cc-pVTZ          selected for orbital group  3
 Library entry H      P aug-cc-pVTZ          selected for orbital group  3
 Library entry H      D aug-cc-pVTZ          selected for orbital group  3


 PROGRAM * SEWARD (Integral evaluation for generally contracted gaussian basis sets)     Author: Roland Lindh, 1990

 Geometry written to block  1 of record 700


 Point group  C2v 



 ATOMIC COORDINATES

 NR  ATOM    CHARGE       X              Y              Z

   1  N       7.00    0.000000000    0.000000000    1.134150021
   2  C       6.00    0.000000000    0.000000000   -1.063596906
   3  H       1.00    0.000000000    0.000000000   -3.067623097

 Bond lengths in Bohr (Angstrom)

 1-2  2.197746927  2-3  2.004026191
     ( 1.162997589)     ( 1.060484990)

 Bond angles

  1-2-3  180.00000000

 NUCLEAR CHARGE:                   14
 NUMBER OF PRIMITIVE AOS:         203
 NUMBER OF SYMMETRY AOS:          173
 NUMBER OF CONTRACTIONS:          171   (  75A1  +  39B1  +  39B2  +  18A2  )
 NUMBER OF CORE ORBITALS:           2   (   2A1  +   0B1  +   0B2  +   0A2  )
 NUMBER OF VALENCE ORBITALS:        9   (   5A1  +   2B1  +   2B2  +   0A2  )


 NUCLEAR REPULSION ENERGY   23.77041679

 EXTRA SYMMETRY OF AOS IN SYMMETRY 1:   1 1 1 1 1 1 1 1 1 1   1 1 1 1 1 1 1 2 1 2   1 2 1 2 1 2 1 2 1 2   1 2 1 1 1 1 1 1 1 1
                                        1 1 1 1 1 1 1 1 1 2   1 2 1 2 1 2 1 2 1 2   1 2 1 2 1 1 1 1 1 1   1 1 2 1 2
 EXTRA SYMMETRY OF AOS IN SYMMETRY 2:   1 1 1 1 1 1 1 1 1 1   1 1 2 1 2 1 2 1 1 1   1 1 1 1 1 1 1 1 1 2   1 2 1 2 1 1 1 1 1
 EXTRA SYMMETRY OF AOS IN SYMMETRY 3:   1 1 1 1 1 1 1 1 1 1   1 1 2 1 2 1 2 1 1 1   1 1 1 1 1 1 1 1 1 2   1 2 1 2 1 1 1 1 1

 Eigenvalues of metric

         1 0.241E-03 0.546E-03 0.914E-03 0.137E-02 0.319E-02 0.751E-02 0.996E-02 0.132E-01
         2 0.546E-02 0.159E-01 0.223E-01 0.347E-01 0.962E-01 0.113E+00 0.125E+00 0.188E+00
         3 0.546E-02 0.159E-01 0.223E-01 0.347E-01 0.962E-01 0.113E+00 0.125E+00 0.188E+00
         4 0.124E+00 0.140E+00 0.197E+00 0.256E+00 0.315E+00 0.379E+00 0.485E+00 0.600E+00


 Contracted 2-electron integrals neglected if value below      1.0D-22

       21693632. INTEGRALS WRITTEN OUT IN    5298 BLOCKS ON RECORD 1290 OF FILE 1


 NUMBER OF SORTED TWO-ELECTRON INTEGRALS:   28272141.     BUFFER LENGTH:  32768
 NUMBER OF SEGMENTS:   2  SEGMENT LENGTH:   15998211      RECORD LENGTH: 524288

 Memory used in sort:      16.56 MW

 SORT1 READ    21693632. AND WROTE    22090884. INTEGRALS IN     64 RECORDS. CPU TIME:     0.49 SEC, REAL TIME:     0.65 SEC
 SORT2 READ    22090884. AND WROTE    28272141. INTEGRALS IN      2 RECORDS. CPU TIME:     0.39 SEC, REAL TIME:     0.51 SEC

 FILE SIZES:   FILE 1:   367.8 MBYTE,  FILE 4:   268.5 MBYTE,   TOTAL:    636.3 MBYTE

 OPERATOR DM      FOR CENTER  0  COORDINATES:    0.000000    0.000000    0.000000


 **********************************************************************************************************************************
 DATASETS  * FILE   NREC   LENGTH (MB)   RECORD NAMES
              1      19      213.20       500      610      700      900      950      970     1000      129      960     1100   
                                          VAR    BASINP    GEOM    SYMINP    ZMAT    AOBASIS   BASIS     P2S    ABASIS      S 
                                         1400     1410     1200     1210     1080     1600     1650     1300     1700   
                                           T        V       H0       H01     AOSYM     SMH    MOLCAS    ERIS     OPER   

 PROGRAMS   *        TOTAL       INT
 CPU TIMES  *         3.22      3.12
 REAL TIME  *         4.23 SEC
 DISK USED  *       636.64 MB      
 **********************************************************************************************************************************


 PROGRAM * RHF-SCF (CLOSED SHELL)       Authors: W. Meyer, H.-J. Werner


 NUMBER OF ELECTRONS:       7+    7-
 CONVERGENCE THRESHOLDS:    1.00E-10 (Density)    1.00E-13 (Energy)
 MAX. NUMBER OF ITERATIONS:      500
 INTERPOLATION TYPE:            DIIS
 INTERPOLATION STEPS:              2 (START)      1 (STEP)
 LEVEL SHIFTS:                  0.00 (CLOSED)  0.00 (OPEN) 



 Orbital guess generated from atomic densities. Full valence occupancy:    7   2   2   0

 Molecular orbital dump at record        2100.2

 Initial occupancy:   5   1   1   0

 ITERATION    DDIFF          GRAD             ENERGY        2-EL.EN.            DIPOLE MOMENTS         DIIS   ORB.
    1      0.000D+00      0.000D+00       -92.77062915    111.369387    0.00000    0.00000   -2.02680    0    start
    2      0.000D+00      0.904D-02       -92.78227708    109.718676    0.00000    0.00000   -0.93193    1    diag
    3      0.346D-01      0.793D-02       -92.80465256    110.639746    0.00000    0.00000   -1.44836    2    diag
    4      0.119D-01      0.574D-03       -92.80490841    110.585316    0.00000    0.00000   -1.44119    3    diag
    5      0.190D-02      0.131D-03       -92.80492332    110.595198    0.00000    0.00000   -1.43985    4    diag
    6      0.539D-03      0.341D-04       -92.80492422    110.590578    0.00000    0.00000   -1.44004    5    diag
    7      0.483D-04      0.122D-04       -92.80492431    110.591512    0.00000    0.00000   -1.44012    6    diag
    8      0.167D-04      0.246D-05       -92.80492432    110.591500    0.00000    0.00000   -1.44011    7    diag
    9      0.878D-05      0.269D-06       -92.80492432    110.591508    0.00000    0.00000   -1.44010    8    diag
   10      0.147D-05      0.294D-07       -92.80492432    110.591510    0.00000    0.00000   -1.44011    9    orth
   11      0.143D-06      0.384D-08       -92.80492432    110.591510    0.00000    0.00000   -1.44011    9    diag
   12      0.124D-07      0.402D-09       -92.80492432    110.591510    0.00000    0.00000   -1.44011    9    diag
   13      0.120D-08      0.521D-10       -92.80492432    110.591510    0.00000    0.00000   -1.44011    9    diag
   14      0.177D-09      0.740D-11       -92.80492432    110.591510    0.00000    0.00000   -1.44011    9    diag
   15      0.267D-10      0.153D-11       -92.80492432    110.591510    0.00000    0.00000   -1.44011    0    orth

 Final occupancy:   5   1   1   0

 !RHF STATE 1.1 Energy                -92.804924315112
 Nuclear energy                        23.77041679
 One-electron energy                 -171.87109586
 Two-electron energy                   55.29575476
 Virial quotient                       -1.00288416
 !RHF STATE 1.1 Dipole moment           0.00000000     0.00000000    -1.44010511
 Dipole moment /Debye                   0.00000000     0.00000000    -3.66014235

 Orbital energies:

         1.1          2.1          3.1          4.1          5.1          6.1          7.1
    -15.594639   -11.402754    -1.249031    -0.839260    -0.578717     0.032621     0.152263

         1.2          2.2          3.2
     -0.487696     0.131629     0.304122

         1.3          2.3          3.3
     -0.487696     0.131629     0.304122

         1.4          2.4
      0.682282     0.963796

 HOMO      1.2    -0.487696 =     -13.2709eV
 LUMO      6.1     0.032621 =       0.8877eV
 LUMO-HOMO         0.520317 =      14.1586eV


 **********************************************************************************************************************************
 DATASETS  * FILE   NREC   LENGTH (MB)   RECORD NAMES
              1      19      213.20       500      610      700      900      950      970     1000      129      960     1100   
                                          VAR    BASINP    GEOM    SYMINP    ZMAT    AOBASIS   BASIS     P2S    ABASIS      S 
                                         1400     1410     1200     1210     1080     1600     1650     1300     1700   
                                           T        V       H0       H01     AOSYM     SMH    MOLCAS    ERIS     OPER   

              2       4        2.98       700     1000      520     2100   
                                         GEOM     BASIS   MCVARS     RHF  

 PROGRAMS   *        TOTAL        HF       INT
 CPU TIMES  *         4.79      1.57      3.12
 REAL TIME  *         6.14 SEC
 DISK USED  *       636.64 MB      
 **********************************************************************************************************************************


 PROGRAM * CCSD (Closed-shell coupled cluster)     Authors: C. Hampel, H.-J. Werner, 1991, M. Deegan, P.J. Knowles, 1992


 Convergence thresholds:  THRVAR = 1.00D-08  THRDEN = 1.00D-12

 CCSD(T)     terms to be evaluated (factor= 1.000)


 Number of core orbitals:           2 (   2   0   0   0 )
 Number of closed-shell orbitals:   5 (   3   1   1   0 )
 Number of external orbitals:     164 (  70  38  38  18 )

 Molecular orbitals read from record     2100.2  Type=RHF/CANONICAL (state 1.1)

 Number of N-1 electron functions:               5
 Number of N-2 electron functions:              15
 Number of singly external CSFs:               286
 Number of doubly external CSFs:             90562
 Total number of CSFs:                       90849

 Length of J-op  integral file:               0.00 MB
 Length of K-op  integral file:               0.65 MB
 Length of 3-ext integral record:             0.00 MB

 Memory could be reduced to 9.35 Mwords without degradation in triples

 Integral transformation finished. Total CPU:   0.23 sec, npass=  1  Memory used:   1.25 MW

 Reference energy:                    -92.80492432

 MP2 singlet pair energy:              -0.21764449
 MP2 triplet pair energy:              -0.12483363
 MP2 correlation energy:               -0.34247812
 MP2 total energy:                    -93.14740243

 SCS-MP2 correlation energy:           -0.33884764   (PS=  1.200000  PT=  0.333333)
 SCS-MP2 total energy:                -93.14377196

 ITER.      SQ.NORM     CORR.ENERGY   TOTAL ENERGY   ENERGY CHANGE        DEN1      VAR(S)    VAR(P)  DIIS     TIME  TIME/IT
   1      1.11149909    -0.34526783   -93.15019214    -0.00278971     0.00934324  0.24D-02  0.27D-02  1  1     0.47     0.26
   2      1.12009265    -0.34558838   -93.15051269    -0.00032055    -0.00922172  0.79D-04  0.37D-03  2  2     0.69     0.26
   3      1.12499017    -0.34578769   -93.15071200    -0.00019931    -0.00268790  0.10D-04  0.43D-04  3  3     0.91     0.26
   4      1.12687731    -0.34586169   -93.15078601    -0.00007401    -0.00062485  0.91D-06  0.49D-05  4  4     1.13     0.26
   5      1.12742976    -0.34586030   -93.15078462     0.00000139    -0.00016640  0.13D-06  0.40D-06  5  5     1.38     0.26
   6      1.12752484    -0.34585799   -93.15078230     0.00000231    -0.00002369  0.86D-08  0.32D-07  6  6     1.63     0.27
   7      1.12753249    -0.34585955   -93.15078387    -0.00000156     0.00000018  0.11D-08  0.26D-08  6  1     1.87     0.27
   8      1.12753529    -0.34585991   -93.15078423    -0.00000036    -0.00000108  0.20D-09  0.19D-09  6  2     2.11     0.27
   9      1.12753517    -0.34585999   -93.15078431    -0.00000008     0.00000021  0.13D-10  0.16D-10  6  3     2.35     0.27
  10      1.12753521    -0.34586001   -93.15078432    -0.00000002     0.00000005  0.32D-11  0.17D-11  6  4     2.58     0.27
  11      1.12753523    -0.34586001   -93.15078433    -0.00000000     0.00000000  0.40D-12  0.29D-12  6  5     2.81     0.27
  12      1.12753518    -0.34586002   -93.15078433    -0.00000000     0.00000003  0.43D-13  0.81D-13  6  6     3.05     0.27
  13      1.12753515    -0.34586002   -93.15078433    -0.00000000     0.00000001  0.24D-14  0.10D-13  6  1     3.28     0.27
  14      1.12753513    -0.34586002   -93.15078433    -0.00000000     0.00000001  0.30D-15  0.13D-14  6  2     3.50     0.27
  15      1.12753512    -0.34586002   -93.15078433    -0.00000000     0.00000000  0.51D-16  0.20D-15  6  3     3.74     0.27
  16      1.12753512    -0.34586002   -93.15078433     0.00000000     0.00000000  0.67D-17  0.81D-17  6  5     3.98     0.27
  17      1.12753512    -0.34586002   -93.15078433     0.00000000     0.00000000  0.57D-18  0.50D-18  6  4     4.21     0.27
  18      1.12753512    -0.34586002   -93.15078433     0.00000000    -0.00000000  0.11D-18  0.79D-19  6  6     4.45     0.27
  19      1.12753512    -0.34586002   -93.15078433    -0.00000000     0.00000000  0.17D-19  0.58D-20  6  1     4.68     0.27

 Norm of t1 vector:      0.06290418      S-energy:     0.00000000      T1 diagnostic:  0.01406580
                                                                       D1 diagnostic:  0.02741032

 Doubles amplitudes (print threshold =  0.500E-01):

         I         J         SYM. A    SYM. B    A         B      T(IJ, AB)

         4         4         2         2         1         1     -0.06069000
         5         5         3         3         1         1     -0.06069000


 Total CPU time for triples:      1.49 sec


 RESULTS
 =======

  Reference energy                    -92.804924315112
  CCSD singlet pair energy             -0.239879953151
  CCSD triplet pair energy             -0.105980064692
  CCSD correlation energy              -0.345860017839

  Triples (T) contribution             -0.017285278680
  Total correlation energy             -0.363145296519

  CCSD total energy                   -93.150784332951
  CCSD[T] energy                      -93.168796292055
  CCSD-T energy                       -93.167711272320
 !CCSD(T) total energy                -93.168069611631

 Timing summary (sec):

 STEP                 CPU(USER)    SYS     CPU(TOT)    WALL
 Transformation          0.23      0.06      0.29      0.29
 CCSD iterations         4.45      0.63      5.08      5.09
 Triples                 1.49      0.05      1.54      1.53

 Program statistics:

 Available memory in ccsd:               994999800
 Min. memory needed in ccsd:                377822
 Max. memory used in ccsd:                  449387
 Max. memory used in cckext:                547289 (19 integral passes)



 **********************************************************************************************************************************
 DATASETS  * FILE   NREC   LENGTH (MB)   RECORD NAMES
              1      20      238.38       500      610      700      900      950      970     1000      129      960     1100   
                                          VAR    BASINP    GEOM    SYMINP    ZMAT    AOBASIS   BASIS     P2S    ABASIS      S 
                                         1400     1410     1200     1210     1080     1600     1650     1300     1700     1380   
                                           T        V       H0       H01     AOSYM     SMH    MOLCAS    ERIS     OPER     JKOP   

              2       4        2.98       700     1000      520     2100   
                                         GEOM     BASIS   MCVARS     RHF  

 PROGRAMS   *        TOTAL   CCSD(T)        HF       INT
 CPU TIMES  *        11.00      6.21      1.57      3.12
 REAL TIME  *        13.85 SEC
 DISK USED  *       636.64 MB      
 **********************************************************************************************************************************

 CCSD(T)/USERDEF energy=    -93.168069611631

        CCSD(T)         HF-SCF  
    -93.16806961    -92.80492432
 **********************************************************************************************************************************
 Molpro calculation terminated
 Variable memory released
