
 Primary working directories    : /tmp/r2666/232686.maple
 Secondary working directories  : /tmp/r2666/232686.maple
 Wavefunction directory         : /ddn/home4/r2666/wfu/
 Main file repository           : /tmp/r2666/232686.maple/

 SHA1      : d5ffa45e93fdbca01ffc919aa182cfdae0147319
 NAME      : 2015.1.35
 ARCHNAME  : linux/x86_64
 FC        : /opt/intel/composer_xe_2015.1.133/bin/intel64/ifort
 BLASLIB   : -Wl,-_start-group /opt/intel/mkl/lib/intel64/libmkl_intel_ilp64.a /opt/intel/mkl/lib/intel64/libmkl_intel_thread.a /opt/intel/mkl/lib/intel64/libmkl_core.a -Wl,-_end-group
 id        : olemiss

 Nodes     nprocs
 cn075        1

 Using customized tuning parameters: mindgm=1; mindgv=20; mindgc=4; mindgr=1; noblas=0; minvec=7
 default implementation of scratch files=df  

 ***,hcn CCSD(T)/TZ-F12 QFF
 memory, 995, m;
 gthresh,energy=1.d-12,zero=1.d-22,oneint=1.d-22,twoint=1.d-22;
 gthresh,optgrad=1.d-8,optstep=1.d-8;
 nocompress;
 geomtyp=xyz
 bohr
 geometry={
 3
         20        20
 N        0.0000000000        0.0000000000        1.1278509343
 C        0.0000000000        0.0000000000       -1.0415501027
 H        0.0000000000        0.0000000000       -3.0833708136
 }
 
 basis={
 default=aug-cc-pvtz
 s,C,8236.0,1235.0,280.8, 79.27,25.59, 8.997,3.319
 s,C,0.9059,0.3643,0.1285000
 p,C,56.0,18.71,4.133,0.2827,0.3827,0.1209
 d,C,30.0,10.0,3.3,1.097,0.318
 f,C,7.0,2.3,0.7610
 s,N,11420.0,1712.0,389.3,110.0,35.57,12.54,4.644
 s,N,1.293,0.5118,0.1787
 p,N,79.89,26.63,5.948,1.742,0.555,0.1725
 d,N,45.0,15.0,5.0,1.654,0.469
 f,N,9.9,3.3,1.093
 s,O,15330.0,2299.0,522.4,147.3,47.55,16.76,6.207
 s,O,1.752,0.6882,0.2384
 p,O,103.5,34.46,7.749,2.28,0.7156,0.214
 d,O,63.0,21.0,7.0,2.314,0.645
 f,O,12.9,4.3,1.428
 s,mg,164900.0,24710.0,5628.0,1596.0,521.0;
 s,mg,188.0,73.01,29.90,12.54,4.306,1.826;
 s,mg,0.7417,0.0761,0.145,0.033,0.0129;
 p,mg,950.70,316.90,74.86,23.72,8.669,3.363;
 p,mg,1.310,0.4911,0.2364,0.08733,0.03237,0.00745;
 d,mg,1.601,0.686,0.126,0.294,0.0468;
 f,mg,1.372,0.588,0.094,0.252;
 }
   {hf,maxit=500;accu,20;}
 {ccsd(t),nocheck,maxit=250;orbital,IGNORE_ERROR;}

 Variables initialized (889), CPU time= 0.00 sec
 Commands  initialized (702), CPU time= 0.01 sec, 572 directives.
 Default parameters read. Elapsed time= 0.07 sec

 Checking input...
 Passed
1


                                         ***  PROGRAM SYSTEM MOLPRO  ***
                                       Copyright, TTI GmbH Stuttgart, 2015
                                    Version 2015.1 linked Jul  9 2018 13:16:40


 **********************************************************************************************************************************
 LABEL *   hcn CCSD(T)/TZ-F12 QFF                                                        
  64 bit serial version                                                                  DATE: 06-Feb-20          TIME: 09:54:47  
 **********************************************************************************************************************************

 SHA1:             d5ffa45e93fdbca01ffc919aa182cfdae0147319
 **********************************************************************************************************************************

 THRESHOLDS:

 ZERO    =  1.00D-22  ONEINT  =  1.00D-22  TWOINT  =  1.00D-22  PREFAC  =  1.00D-14  LOCALI  =  1.00D-09  EORDER  =  1.00D-04
 ENERGY  =  1.00D-12  ETEST   =  0.00D+00  EDENS   =  0.00D+00  THRDEDEF=  1.00D-06  GRADIENT=  1.00D-02  STEP    =  1.00D-03
 ORBITAL =  1.00D-05  CIVEC   =  1.00D-05  COEFF   =  1.00D-04  PRINTCI =  5.00D-02  PUNCHCI =  9.90D+01  OPTGRAD =  3.00D-04
 OPTENERG=  1.00D-06  OPTSTEP =  3.00D-04  THRGRAD =  1.00D-10  COMPRESS=  1.00D-11  VARMIN  =  1.00D-07  VARMAX  =  1.00D-03
 THRDOUB =  0.00D+00  THRDIV  =  1.00D-05  THRRED  =  1.00D-07  THRPSP  =  1.00D+00  THRDC   =  1.00D-10  THRCS   =  1.00D-10
 THRNRM  =  1.00D-08  THREQ   =  0.00D+00  THRDE   =  1.00D+00  THRREF  =  1.00D-05  SPARFAC =  1.00D+00  THRDLP  =  1.00D-07
 THRDIA  =  1.00D-10  THRDLS  =  1.00D-07  THRGPS  =  0.00D+00  THRKEX  =  0.00D+00  THRDIS  =  2.00D-01  THRVAR  =  1.00D-10
 THRLOC  =  1.00D-06  THRGAP  =  1.00D-06  THRLOCT = -1.00D+00  THRGAPT = -1.00D+00  THRORB  =  1.00D-06  THRMLTP =  0.00D+00
 THRCPQCI=  1.00D-10  KEXTA   =  0.00D+00  THRCOARS=  0.00D+00  SYMTOL  =  1.00D-06  GRADTOL =  1.00D-06  THROVL  =  1.00D-08
 THRORTH =  1.00D-08  GRID    =  1.00D-06  GRIDMAX =  1.00D-03  DTMAX   =  0.00D+00  THROCCDE=  1.00D-01  THROCCDE=  1.00D-01



 THRESHOLDS:

 ZERO    =  1.00D-22  ONEINT  =  1.00D-22  TWOINT  =  1.00D-22  PREFAC  =  1.00D-14  LOCALI  =  1.00D-09  EORDER  =  1.00D-04
 ENERGY  =  1.00D-12  ETEST   =  0.00D+00  EDENS   =  0.00D+00  THRDEDEF=  1.00D-06  GRADIENT=  1.00D-02  STEP    =  1.00D-03
 ORBITAL =  1.00D-05  CIVEC   =  1.00D-05  COEFF   =  1.00D-04  PRINTCI =  5.00D-02  PUNCHCI =  9.90D+01  OPTGRAD =  1.00D-08
 OPTENERG=  1.00D-06  OPTSTEP =  1.00D-08  THRGRAD =  1.00D-10  COMPRESS=  1.00D-11  VARMIN  =  1.00D-07  VARMAX  =  1.00D-03
 THRDOUB =  0.00D+00  THRDIV  =  1.00D-05  THRRED  =  1.00D-07  THRPSP  =  1.00D+00  THRDC   =  1.00D-10  THRCS   =  1.00D-10
 THRNRM  =  1.00D-08  THREQ   =  0.00D+00  THRDE   =  1.00D+00  THRREF  =  1.00D-05  SPARFAC =  1.00D+00  THRDLP  =  1.00D-07
 THRDIA  =  1.00D-10  THRDLS  =  1.00D-07  THRGPS  =  0.00D+00  THRKEX  =  0.00D+00  THRDIS  =  2.00D-01  THRVAR  =  1.00D-10
 THRLOC  =  1.00D-06  THRGAP  =  1.00D-06  THRLOCT = -1.00D+00  THRGAPT = -1.00D+00  THRORB  =  1.00D-06  THRMLTP =  0.00D+00
 THRCPQCI=  1.00D-10  KEXTA   =  0.00D+00  THRCOARS=  0.00D+00  SYMTOL  =  1.00D-06  GRADTOL =  1.00D-06  THROVL  =  1.00D-08
 THRORTH =  1.00D-08  GRID    =  1.00D-06  GRIDMAX =  1.00D-03  DTMAX   =  0.00D+00  THROCCDE=  1.00D-01  THROCCDE=  1.00D-01



 Input parameters for SORTINT:

 COMPRESS =    0.000000
 C_FINAL  =    1.000000
 DEBUG    =   -1.000000
 C_SORT1  =    0.000000
 C_SEWARD =    0.000000
 THRESH   =    0.000000
 IO       =  molpro                                                          
 SPRI     =    0.000000
 SETTING GEOMTYP        =    XYZ
 ZUNIT=BOHR
 

 Variable memory set to  995000000 words,  buffer space   230000 words

 SETTING BASIS          =    USERDEF


 Recomputing integrals since basis changed


 Using spherical harmonics

 Library entry H      S aug-cc-pVTZ          selected for orbital group  3
 Library entry H      P aug-cc-pVTZ          selected for orbital group  3
 Library entry H      D aug-cc-pVTZ          selected for orbital group  3


 PROGRAM * SEWARD (Integral evaluation for generally contracted gaussian basis sets)     Author: Roland Lindh, 1990

 Geometry written to block  1 of record 700


 Point group  C2v 



 ATOMIC COORDINATES

 NR  ATOM    CHARGE       X              Y              Z

   1  N       7.00    0.000000000    0.000000000    1.127850934
   2  C       6.00    0.000000000    0.000000000   -1.041550103
   3  H       1.00    0.000000000    0.000000000   -3.083370814

 Bond lengths in Bohr (Angstrom)

 1-2  2.169401037  2-3  2.041820711
     ( 1.147997590)     ( 1.080484989)

 Bond angles

  1-2-3  179.99999829

 NUCLEAR CHARGE:                   14
 NUMBER OF PRIMITIVE AOS:         203
 NUMBER OF SYMMETRY AOS:          173
 NUMBER OF CONTRACTIONS:          171   (  75A1  +  39B1  +  39B2  +  18A2  )
 NUMBER OF CORE ORBITALS:           2   (   2A1  +   0B1  +   0B2  +   0A2  )
 NUMBER OF VALENCE ORBITALS:        9   (   5A1  +   2B1  +   2B2  +   0A2  )


 NUCLEAR REPULSION ENERGY   23.96096176

 EXTRA SYMMETRY OF AOS IN SYMMETRY 1:   1 1 1 1 1 1 1 1 1 1   1 1 1 1 1 1 1 2 1 2   1 2 1 2 1 2 1 2 1 2   1 2 1 1 1 1 1 1 1 1
                                        1 1 1 1 1 1 1 1 1 2   1 2 1 2 1 2 1 2 1 2   1 2 1 2 1 1 1 1 1 1   1 1 2 1 2
 EXTRA SYMMETRY OF AOS IN SYMMETRY 2:   1 1 1 1 1 1 1 1 1 1   1 1 2 1 2 1 2 1 1 1   1 1 1 1 1 1 1 1 1 2   1 2 1 2 1 1 1 1 1
 EXTRA SYMMETRY OF AOS IN SYMMETRY 3:   1 1 1 1 1 1 1 1 1 1   1 1 2 1 2 1 2 1 1 1   1 1 1 1 1 1 1 1 1 2   1 2 1 2 1 1 1 1 1

 Eigenvalues of metric

         1 0.256E-03 0.516E-03 0.937E-03 0.141E-02 0.319E-02 0.787E-02 0.103E-01 0.133E-01
         2 0.542E-02 0.158E-01 0.228E-01 0.353E-01 0.975E-01 0.113E+00 0.125E+00 0.188E+00
         3 0.542E-02 0.158E-01 0.228E-01 0.353E-01 0.975E-01 0.113E+00 0.125E+00 0.188E+00
         4 0.125E+00 0.140E+00 0.194E+00 0.259E+00 0.314E+00 0.379E+00 0.485E+00 0.598E+00


 Contracted 2-electron integrals neglected if value below      1.0D-22

       21771317. INTEGRALS WRITTEN OUT IN    5317 BLOCKS ON RECORD 1290 OF FILE 1


 NUMBER OF SORTED TWO-ELECTRON INTEGRALS:   28272141.     BUFFER LENGTH:  32768
 NUMBER OF SEGMENTS:   2  SEGMENT LENGTH:   15998211      RECORD LENGTH: 524288

 Memory used in sort:      16.56 MW

 SORT1 READ    21771317. AND WROTE    22170063. INTEGRALS IN     65 RECORDS. CPU TIME:     0.75 SEC, REAL TIME:     0.96 SEC
 SORT2 READ    22170063. AND WROTE    28272141. INTEGRALS IN      2 RECORDS. CPU TIME:     0.61 SEC, REAL TIME:     0.79 SEC

 FILE SIZES:   FILE 1:   369.1 MBYTE,  FILE 4:   272.7 MBYTE,   TOTAL:    641.7 MBYTE

 OPERATOR DM      FOR CENTER  0  COORDINATES:    0.000000    0.000000    0.000000


 **********************************************************************************************************************************
 DATASETS  * FILE   NREC   LENGTH (MB)   RECORD NAMES
              1      19      213.63       500      610      700      900      950      970     1000      129      960     1100   
                                          VAR    BASINP    GEOM    SYMINP    ZMAT    AOBASIS   BASIS     P2S    ABASIS      S 
                                         1400     1410     1200     1210     1080     1600     1650     1300     1700   
                                           T        V       H0       H01     AOSYM     SMH    MOLCAS    ERIS     OPER   

 PROGRAMS   *        TOTAL       INT
 CPU TIMES  *         5.14      5.02
 REAL TIME  *         6.42 SEC
 DISK USED  *       642.08 MB      
 **********************************************************************************************************************************


 PROGRAM * RHF-SCF (CLOSED SHELL)       Authors: W. Meyer, H.-J. Werner


 NUMBER OF ELECTRONS:       7+    7-
 CONVERGENCE THRESHOLDS:    1.00E-10 (Density)    1.00E-13 (Energy)
 MAX. NUMBER OF ITERATIONS:      500
 INTERPOLATION TYPE:            DIIS
 INTERPOLATION STEPS:              2 (START)      1 (STEP)
 LEVEL SHIFTS:                  0.00 (CLOSED)  0.00 (OPEN) 



 Orbital guess generated from atomic densities. Full valence occupancy:    7   2   2   0

 Molecular orbital dump at record        2100.2

 Initial occupancy:   5   1   1   0

 ITERATION    DDIFF          GRAD             ENERGY        2-EL.EN.            DIPOLE MOMENTS         DIIS   ORB.
    1      0.000D+00      0.000D+00       -92.77160761    111.871544    0.00000    0.00000   -2.03883    0    start
    2      0.000D+00      0.923D-02       -92.78434488    110.100065    0.00000    0.00000   -0.95571    1    diag
    3      0.344D-01      0.794D-02       -92.80655049    111.043562    0.00000    0.00000   -1.45741    2    diag
    4      0.119D-01      0.559D-03       -92.80679555    110.997130    0.00000    0.00000   -1.45009    3    diag
    5      0.184D-02      0.125D-03       -92.80681013    111.004355    0.00000    0.00000   -1.44885    4    diag
    6      0.523D-03      0.326D-04       -92.80681089    111.000370    0.00000    0.00000   -1.44915    5    diag
    7      0.400D-04      0.115D-04       -92.80681098    111.001397    0.00000    0.00000   -1.44922    6    diag
    8      0.156D-04      0.231D-05       -92.80681098    111.001376    0.00000    0.00000   -1.44921    7    diag
    9      0.802D-05      0.254D-06       -92.80681098    111.001383    0.00000    0.00000   -1.44920    8    diag
   10      0.136D-05      0.280D-07       -92.80681098    111.001384    0.00000    0.00000   -1.44920    9    orth
   11      0.133D-06      0.364D-08       -92.80681098    111.001384    0.00000    0.00000   -1.44920    9    diag
   12      0.118D-07      0.388D-09       -92.80681098    111.001384    0.00000    0.00000   -1.44920    9    diag
   13      0.115D-08      0.500D-10       -92.80681098    111.001384    0.00000    0.00000   -1.44920    9    diag
   14      0.176D-09      0.784D-11       -92.80681098    111.001384    0.00000    0.00000   -1.44920    9    diag
   15      0.308D-10      0.164D-11       -92.80681098    111.001384    0.00000    0.00000   -1.44920    9    diag
   16      0.579D-11      0.488D-12       -92.80681098    111.001384    0.00000    0.00000   -1.44920    9    diag
   17      0.133D-11      0.254D-12       -92.80681098    111.001384    0.00000    0.00000   -1.44920    9    diag
   18      0.440D-12      0.426D-12       -92.80681098    111.001384    0.00000    0.00000   -1.44920    0    orth

 Final occupancy:   5   1   1   0

 !RHF STATE 1.1 Energy                -92.806810980264
 Nuclear energy                        23.96096176
 One-electron energy                 -172.26846495
 Two-electron energy                   55.50069222
 Virial quotient                       -1.00233261
 !RHF STATE 1.1 Dipole moment           0.00000000     0.00000000    -1.44920238
 Dipole moment /Debye                   0.00000000     0.00000000    -3.68326377

 Orbital energies:

         1.1          2.1          3.1          4.1          5.1          6.1          7.1
    -15.588962   -11.398458    -1.255979    -0.829546    -0.577288     0.032610     0.149864

         1.2          2.2          3.2
     -0.491654     0.134577     0.307386

         1.3          2.3          3.3
     -0.491654     0.134577     0.307386

         1.4          2.4
      0.682888     0.961488

 HOMO      1.2    -0.491654 =     -13.3786eV
 LUMO      6.1     0.032610 =       0.8874eV
 LUMO-HOMO         0.524264 =      14.2659eV


 **********************************************************************************************************************************
 DATASETS  * FILE   NREC   LENGTH (MB)   RECORD NAMES
              1      19      213.63       500      610      700      900      950      970     1000      129      960     1100   
                                          VAR    BASINP    GEOM    SYMINP    ZMAT    AOBASIS   BASIS     P2S    ABASIS      S 
                                         1400     1410     1200     1210     1080     1600     1650     1300     1700   
                                           T        V       H0       H01     AOSYM     SMH    MOLCAS    ERIS     OPER   

              2       4        2.98       700     1000      520     2100   
                                         GEOM     BASIS   MCVARS     RHF  

 PROGRAMS   *        TOTAL        HF       INT
 CPU TIMES  *         7.50      2.36      5.02
 REAL TIME  *         9.20 SEC
 DISK USED  *       642.08 MB      
 **********************************************************************************************************************************


 PROGRAM * CCSD (Closed-shell coupled cluster)     Authors: C. Hampel, H.-J. Werner, 1991, M. Deegan, P.J. Knowles, 1992


 Convergence thresholds:  THRVAR = 1.00D-08  THRDEN = 1.00D-12

 CCSD(T)     terms to be evaluated (factor= 1.000)


 Number of core orbitals:           2 (   2   0   0   0 )
 Number of closed-shell orbitals:   5 (   3   1   1   0 )
 Number of external orbitals:     164 (  70  38  38  18 )

 Molecular orbitals read from record     2100.2  Type=RHF/CANONICAL (state 1.1)

 Number of N-1 electron functions:               5
 Number of N-2 electron functions:              15
 Number of singly external CSFs:               286
 Number of doubly external CSFs:             90562
 Total number of CSFs:                       90849

 Length of J-op  integral file:               0.00 MB
 Length of K-op  integral file:               0.65 MB
 Length of 3-ext integral record:             0.00 MB

 Memory could be reduced to 9.35 Mwords without degradation in triples

 Integral transformation finished. Total CPU:   0.28 sec, npass=  1  Memory used:   1.25 MW

 Reference energy:                    -92.80681098

 MP2 singlet pair energy:              -0.21636752
 MP2 triplet pair energy:              -0.12375196
 MP2 correlation energy:               -0.34011948
 MP2 total energy:                    -93.14693046

 SCS-MP2 correlation energy:           -0.33664225   (PS=  1.200000  PT=  0.333333)
 SCS-MP2 total energy:                -93.14345323

 ITER.      SQ.NORM     CORR.ENERGY   TOTAL ENERGY   ENERGY CHANGE        DEN1      VAR(S)    VAR(P)  DIIS     TIME  TIME/IT
   1      1.11008884    -0.34358206   -93.15039304    -0.00346258     0.00821061  0.22D-02  0.26D-02  1  1     0.59     0.33
   2      1.11842327    -0.34400707   -93.15081805    -0.00042501    -0.00896293  0.73D-04  0.36D-03  2  2     0.90     0.33
   3      1.12313965    -0.34420102   -93.15101200    -0.00019395    -0.00262265  0.10D-04  0.40D-04  3  3     1.20     0.33
   4      1.12490967    -0.34426845   -93.15107943    -0.00006743    -0.00059583  0.89D-06  0.44D-05  4  4     1.50     0.33
   5      1.12541587    -0.34426740   -93.15107838     0.00000105    -0.00015326  0.14D-06  0.35D-06  5  5     1.80     0.33
   6      1.12550506    -0.34426506   -93.15107604     0.00000234    -0.00002266  0.96D-08  0.29D-07  6  6     2.12     0.34
   7      1.12551223    -0.34426636   -93.15107734    -0.00000130     0.00000023  0.14D-08  0.23D-08  6  1     2.47     0.35
   8      1.12551509    -0.34426665   -93.15107763    -0.00000029    -0.00000105  0.30D-09  0.18D-09  6  2     2.84     0.36
   9      1.12551511    -0.34426671   -93.15107769    -0.00000006     0.00000017  0.29D-10  0.19D-10  6  3     3.20     0.36
  10      1.12551521    -0.34426672   -93.15107770    -0.00000001     0.00000006  0.66D-11  0.28D-11  6  4     3.57     0.37
  11      1.12551526    -0.34426672   -93.15107770    -0.00000000     0.00000000  0.51D-12  0.56D-12  6  5     3.93     0.37
  12      1.12551521    -0.34426672   -93.15107770    -0.00000000     0.00000004  0.32D-13  0.13D-12  6  6     4.28     0.38
  13      1.12551517    -0.34426673   -93.15107771    -0.00000000     0.00000001  0.25D-14  0.16D-13  6  1     4.66     0.38
  14      1.12551514    -0.34426673   -93.15107771    -0.00000000     0.00000001  0.80D-15  0.21D-14  6  2     5.04     0.38
  15      1.12551513    -0.34426673   -93.15107771    -0.00000000     0.00000000  0.13D-15  0.31D-15  6  3     5.39     0.38
  16      1.12551513    -0.34426673   -93.15107771    -0.00000000     0.00000000  0.33D-16  0.31D-16  6  4     5.72     0.38
  17      1.12551513    -0.34426673   -93.15107771     0.00000000     0.00000000  0.40D-17  0.29D-17  6  5     6.05     0.38
  18      1.12551513    -0.34426673   -93.15107771     0.00000000    -0.00000000  0.81D-18  0.49D-18  6  6     6.40     0.38
  19      1.12551513    -0.34426673   -93.15107771     0.00000000     0.00000000  0.18D-18  0.78D-19  6  1     6.75     0.38
  20      1.12551513    -0.34426673   -93.15107771    -0.00000000     0.00000000  0.26D-19  0.23D-19  6  2     7.11     0.38
  21      1.12551513    -0.34426673   -93.15107771    -0.00000000    -0.00000000  0.35D-20  0.49D-20  6  3     7.45     0.39

 Norm of t1 vector:      0.06131975      S-energy:     0.00000000      T1 diagnostic:  0.01371151
                                                                       D1 diagnostic:  0.02649110

 Doubles amplitudes (print threshold =  0.500E-01):

         I         J         SYM. A    SYM. B    A         B      T(IJ, AB)

         4         4         2         2         1         1     -0.05721795
         5         5         3         3         1         1     -0.05721795


 Total CPU time for triples:      2.69 sec


 RESULTS
 =======

  Reference energy                    -92.806810980264
  CCSD singlet pair energy             -0.238600145874
  CCSD triplet pair energy             -0.105666579901
  CCSD correlation energy              -0.344266725774

  Triples (T) contribution             -0.016913052602
  Total correlation energy             -0.361179778376

  CCSD total energy                   -93.151077706038
  CCSD[T] energy                      -93.168673679918
  CCSD-T energy                       -93.167652936513
 !CCSD(T) total energy                -93.167990758640

 Timing summary (sec):

 STEP                 CPU(USER)    SYS     CPU(TOT)    WALL
 Transformation          0.28      0.08      0.36      0.36
 CCSD iterations         7.18      0.93      8.11      8.12
 Triples                 2.69      0.08      2.77      2.76

 Program statistics:

 Available memory in ccsd:               994999800
 Min. memory needed in ccsd:                377822
 Max. memory used in ccsd:                  449387
 Max. memory used in cckext:                547289 (21 integral passes)



 **********************************************************************************************************************************
 DATASETS  * FILE   NREC   LENGTH (MB)   RECORD NAMES
              1      20      238.81       500      610      700      900      950      970     1000      129      960     1100   
                                          VAR    BASINP    GEOM    SYMINP    ZMAT    AOBASIS   BASIS     P2S    ABASIS      S 
                                         1400     1410     1200     1210     1080     1600     1650     1300     1700     1380   
                                           T        V       H0       H01     AOSYM     SMH    MOLCAS    ERIS     OPER     JKOP   

              2       4        2.98       700     1000      520     2100   
                                         GEOM     BASIS   MCVARS     RHF  

 PROGRAMS   *        TOTAL   CCSD(T)        HF       INT
 CPU TIMES  *        17.68     10.17      2.36      5.02
 REAL TIME  *        20.50 SEC
 DISK USED  *       642.08 MB      
 **********************************************************************************************************************************

 CCSD(T)/USERDEF energy=    -93.167990758640

        CCSD(T)         HF-SCF  
    -93.16799076    -92.80681098
 **********************************************************************************************************************************
 Molpro calculation terminated
 Variable memory released
