
 Primary working directories    : /tmp/r2666/232668.maple
 Secondary working directories  : /tmp/r2666/232668.maple
 Wavefunction directory         : /ddn/home4/r2666/wfu/
 Main file repository           : /tmp/r2666/232668.maple/

 SHA1      : d5ffa45e93fdbca01ffc919aa182cfdae0147319
 NAME      : 2015.1.35
 ARCHNAME  : linux/x86_64
 FC        : /opt/intel/composer_xe_2015.1.133/bin/intel64/ifort
 BLASLIB   : -Wl,-_start-group /opt/intel/mkl/lib/intel64/libmkl_intel_ilp64.a /opt/intel/mkl/lib/intel64/libmkl_intel_thread.a /opt/intel/mkl/lib/intel64/libmkl_core.a -Wl,-_end-group
 id        : olemiss

 Nodes     nprocs
 cn087        1

 Using customized tuning parameters: mindgm=1; mindgv=20; mindgc=4; mindgr=1; noblas=0; minvec=7
 default implementation of scratch files=df  

 ***,hcn CCSD(T)/TZ-F12 QFF
 memory, 995, m;
 gthresh,energy=1.d-12,zero=1.d-22,oneint=1.d-22,twoint=1.d-22;
 gthresh,optgrad=1.d-8,optstep=1.d-8;
 nocompress;
 geomtyp=xyz
 bohr
 geometry={
 3
          2         2
 N        0.0000000000        0.0000000000        1.1026545878
 C        0.0000000000        0.0000000000       -1.0478491894
 H        0.0000000000        0.0000000000       -3.0518753804
 }
 
 basis={
 default=aug-cc-pvtz
 s,C,8236.0,1235.0,280.8, 79.27,25.59, 8.997,3.319
 s,C,0.9059,0.3643,0.1285000
 p,C,56.0,18.71,4.133,0.2827,0.3827,0.1209
 d,C,30.0,10.0,3.3,1.097,0.318
 f,C,7.0,2.3,0.7610
 s,N,11420.0,1712.0,389.3,110.0,35.57,12.54,4.644
 s,N,1.293,0.5118,0.1787
 p,N,79.89,26.63,5.948,1.742,0.555,0.1725
 d,N,45.0,15.0,5.0,1.654,0.469
 f,N,9.9,3.3,1.093
 s,O,15330.0,2299.0,522.4,147.3,47.55,16.76,6.207
 s,O,1.752,0.6882,0.2384
 p,O,103.5,34.46,7.749,2.28,0.7156,0.214
 d,O,63.0,21.0,7.0,2.314,0.645
 f,O,12.9,4.3,1.428
 s,mg,164900.0,24710.0,5628.0,1596.0,521.0;
 s,mg,188.0,73.01,29.90,12.54,4.306,1.826;
 s,mg,0.7417,0.0761,0.145,0.033,0.0129;
 p,mg,950.70,316.90,74.86,23.72,8.669,3.363;
 p,mg,1.310,0.4911,0.2364,0.08733,0.03237,0.00745;
 d,mg,1.601,0.686,0.126,0.294,0.0468;
 f,mg,1.372,0.588,0.094,0.252;
 }
   {hf,maxit=500;accu,20;}
 {ccsd(t),nocheck,maxit=250;orbital,IGNORE_ERROR;}

 Variables initialized (889), CPU time= 0.00 sec
 Commands  initialized (702), CPU time= 0.01 sec, 572 directives.
 Default parameters read. Elapsed time= 0.04 sec

 Checking input...
 Passed
1


                                         ***  PROGRAM SYSTEM MOLPRO  ***
                                       Copyright, TTI GmbH Stuttgart, 2015
                                    Version 2015.1 linked Jul  9 2018 13:16:40


 **********************************************************************************************************************************
 LABEL *   hcn CCSD(T)/TZ-F12 QFF                                                        
  64 bit serial version                                                                  DATE: 06-Feb-20          TIME: 09:54:44  
 **********************************************************************************************************************************

 SHA1:             d5ffa45e93fdbca01ffc919aa182cfdae0147319
 **********************************************************************************************************************************

 THRESHOLDS:

 ZERO    =  1.00D-22  ONEINT  =  1.00D-22  TWOINT  =  1.00D-22  PREFAC  =  1.00D-14  LOCALI  =  1.00D-09  EORDER  =  1.00D-04
 ENERGY  =  1.00D-12  ETEST   =  0.00D+00  EDENS   =  0.00D+00  THRDEDEF=  1.00D-06  GRADIENT=  1.00D-02  STEP    =  1.00D-03
 ORBITAL =  1.00D-05  CIVEC   =  1.00D-05  COEFF   =  1.00D-04  PRINTCI =  5.00D-02  PUNCHCI =  9.90D+01  OPTGRAD =  3.00D-04
 OPTENERG=  1.00D-06  OPTSTEP =  3.00D-04  THRGRAD =  1.00D-10  COMPRESS=  1.00D-11  VARMIN  =  1.00D-07  VARMAX  =  1.00D-03
 THRDOUB =  0.00D+00  THRDIV  =  1.00D-05  THRRED  =  1.00D-07  THRPSP  =  1.00D+00  THRDC   =  1.00D-10  THRCS   =  1.00D-10
 THRNRM  =  1.00D-08  THREQ   =  0.00D+00  THRDE   =  1.00D+00  THRREF  =  1.00D-05  SPARFAC =  1.00D+00  THRDLP  =  1.00D-07
 THRDIA  =  1.00D-10  THRDLS  =  1.00D-07  THRGPS  =  0.00D+00  THRKEX  =  0.00D+00  THRDIS  =  2.00D-01  THRVAR  =  1.00D-10
 THRLOC  =  1.00D-06  THRGAP  =  1.00D-06  THRLOCT = -1.00D+00  THRGAPT = -1.00D+00  THRORB  =  1.00D-06  THRMLTP =  0.00D+00
 THRCPQCI=  1.00D-10  KEXTA   =  0.00D+00  THRCOARS=  0.00D+00  SYMTOL  =  1.00D-06  GRADTOL =  1.00D-06  THROVL  =  1.00D-08
 THRORTH =  1.00D-08  GRID    =  1.00D-06  GRIDMAX =  1.00D-03  DTMAX   =  0.00D+00  THROCCDE=  1.00D-01  THROCCDE=  1.00D-01



 THRESHOLDS:

 ZERO    =  1.00D-22  ONEINT  =  1.00D-22  TWOINT  =  1.00D-22  PREFAC  =  1.00D-14  LOCALI  =  1.00D-09  EORDER  =  1.00D-04
 ENERGY  =  1.00D-12  ETEST   =  0.00D+00  EDENS   =  0.00D+00  THRDEDEF=  1.00D-06  GRADIENT=  1.00D-02  STEP    =  1.00D-03
 ORBITAL =  1.00D-05  CIVEC   =  1.00D-05  COEFF   =  1.00D-04  PRINTCI =  5.00D-02  PUNCHCI =  9.90D+01  OPTGRAD =  1.00D-08
 OPTENERG=  1.00D-06  OPTSTEP =  1.00D-08  THRGRAD =  1.00D-10  COMPRESS=  1.00D-11  VARMIN  =  1.00D-07  VARMAX  =  1.00D-03
 THRDOUB =  0.00D+00  THRDIV  =  1.00D-05  THRRED  =  1.00D-07  THRPSP  =  1.00D+00  THRDC   =  1.00D-10  THRCS   =  1.00D-10
 THRNRM  =  1.00D-08  THREQ   =  0.00D+00  THRDE   =  1.00D+00  THRREF  =  1.00D-05  SPARFAC =  1.00D+00  THRDLP  =  1.00D-07
 THRDIA  =  1.00D-10  THRDLS  =  1.00D-07  THRGPS  =  0.00D+00  THRKEX  =  0.00D+00  THRDIS  =  2.00D-01  THRVAR  =  1.00D-10
 THRLOC  =  1.00D-06  THRGAP  =  1.00D-06  THRLOCT = -1.00D+00  THRGAPT = -1.00D+00  THRORB  =  1.00D-06  THRMLTP =  0.00D+00
 THRCPQCI=  1.00D-10  KEXTA   =  0.00D+00  THRCOARS=  0.00D+00  SYMTOL  =  1.00D-06  GRADTOL =  1.00D-06  THROVL  =  1.00D-08
 THRORTH =  1.00D-08  GRID    =  1.00D-06  GRIDMAX =  1.00D-03  DTMAX   =  0.00D+00  THROCCDE=  1.00D-01  THROCCDE=  1.00D-01



 Input parameters for SORTINT:

 COMPRESS =    0.000000
 C_FINAL  =    1.000000
 DEBUG    =   -1.000000
 C_SORT1  =    0.000000
 C_SEWARD =    0.000000
 THRESH   =    0.000000
 IO       =  molpro                                                          
 SPRI     =    0.000000
 SETTING GEOMTYP        =    XYZ
 ZUNIT=BOHR
 

 Variable memory set to  995000000 words,  buffer space   230000 words

 SETTING BASIS          =    USERDEF


 Recomputing integrals since basis changed


 Using spherical harmonics

 Library entry H      S aug-cc-pVTZ          selected for orbital group  3
 Library entry H      P aug-cc-pVTZ          selected for orbital group  3
 Library entry H      D aug-cc-pVTZ          selected for orbital group  3


 PROGRAM * SEWARD (Integral evaluation for generally contracted gaussian basis sets)     Author: Roland Lindh, 1990

 Geometry written to block  1 of record 700


 Point group  C2v 



 ATOMIC COORDINATES

 NR  ATOM    CHARGE       X              Y              Z

   1  N       7.00    0.000000000    0.000000000    1.102654588
   2  C       6.00    0.000000000    0.000000000   -1.047849189
   3  H       1.00    0.000000000    0.000000000   -3.051875380

 Bond lengths in Bohr (Angstrom)

 1-2  2.150503777  2-3  2.004026191
     ( 1.137997591)     ( 1.060484990)

 Bond angles

  1-2-3  180.00000000

 NUCLEAR CHARGE:                   14
 NUMBER OF PRIMITIVE AOS:         203
 NUMBER OF SYMMETRY AOS:          173
 NUMBER OF CONTRACTIONS:          171   (  75A1  +  39B1  +  39B2  +  18A2  )
 NUMBER OF CORE ORBITALS:           2   (   2A1  +   0B1  +   0B2  +   0A2  )
 NUMBER OF VALENCE ORBITALS:        9   (   5A1  +   2B1  +   2B2  +   0A2  )


 NUCLEAR REPULSION ENERGY   24.20918814

 EXTRA SYMMETRY OF AOS IN SYMMETRY 1:   1 1 1 1 1 1 1 1 1 1   1 1 1 1 1 1 1 2 1 2   1 2 1 2 1 2 1 2 1 2   1 2 1 1 1 1 1 1 1 1
                                        1 1 1 1 1 1 1 1 1 2   1 2 1 2 1 2 1 2 1 2   1 2 1 2 1 1 1 1 1 1   1 1 2 1 2
 EXTRA SYMMETRY OF AOS IN SYMMETRY 2:   1 1 1 1 1 1 1 1 1 1   1 1 2 1 2 1 2 1 1 1   1 1 1 1 1 1 1 1 1 2   1 2 1 2 1 1 1 1 1
 EXTRA SYMMETRY OF AOS IN SYMMETRY 3:   1 1 1 1 1 1 1 1 1 1   1 1 2 1 2 1 2 1 1 1   1 1 1 1 1 1 1 1 1 2   1 2 1 2 1 1 1 1 1

 Eigenvalues of metric

         1 0.235E-03 0.485E-03 0.875E-03 0.136E-02 0.314E-02 0.736E-02 0.984E-02 0.130E-01
         2 0.531E-02 0.152E-01 0.208E-01 0.335E-01 0.959E-01 0.111E+00 0.124E+00 0.187E+00
         3 0.531E-02 0.152E-01 0.208E-01 0.335E-01 0.959E-01 0.111E+00 0.124E+00 0.187E+00
         4 0.124E+00 0.139E+00 0.190E+00 0.255E+00 0.313E+00 0.379E+00 0.483E+00 0.592E+00


 Contracted 2-electron integrals neglected if value below      1.0D-22

       21837325. INTEGRALS WRITTEN OUT IN    5333 BLOCKS ON RECORD 1290 OF FILE 1


 NUMBER OF SORTED TWO-ELECTRON INTEGRALS:   28272141.     BUFFER LENGTH:  32768
 NUMBER OF SEGMENTS:   2  SEGMENT LENGTH:   15998211      RECORD LENGTH: 524288

 Memory used in sort:      16.56 MW

 SORT1 READ    21837325. AND WROTE    22237342. INTEGRALS IN     65 RECORDS. CPU TIME:     0.48 SEC, REAL TIME:     0.61 SEC
 SORT2 READ    22237342. AND WROTE    28272141. INTEGRALS IN      2 RECORDS. CPU TIME:     0.36 SEC, REAL TIME:     0.48 SEC

 FILE SIZES:   FILE 1:   370.1 MBYTE,  FILE 4:   272.7 MBYTE,   TOTAL:    642.8 MBYTE

 OPERATOR DM      FOR CENTER  0  COORDINATES:    0.000000    0.000000    0.000000


 **********************************************************************************************************************************
 DATASETS  * FILE   NREC   LENGTH (MB)   RECORD NAMES
              1      19      213.99       500      610      700      900      950      970     1000      129      960     1100   
                                          VAR    BASINP    GEOM    SYMINP    ZMAT    AOBASIS   BASIS     P2S    ABASIS      S 
                                         1400     1410     1200     1210     1080     1600     1650     1300     1700   
                                           T        V       H0       H01     AOSYM     SMH    MOLCAS    ERIS     OPER   

 PROGRAMS   *        TOTAL       INT
 CPU TIMES  *         3.13      3.06
 REAL TIME  *         4.00 SEC
 DISK USED  *       643.13 MB      
 **********************************************************************************************************************************


 PROGRAM * RHF-SCF (CLOSED SHELL)       Authors: W. Meyer, H.-J. Werner


 NUMBER OF ELECTRONS:       7+    7-
 CONVERGENCE THRESHOLDS:    1.00E-10 (Density)    1.00E-13 (Energy)
 MAX. NUMBER OF ITERATIONS:      500
 INTERPOLATION TYPE:            DIIS
 INTERPOLATION STEPS:              2 (START)      1 (STEP)
 LEVEL SHIFTS:                  0.00 (CLOSED)  0.00 (OPEN) 



 Orbital guess generated from atomic densities. Full valence occupancy:    7   2   2   0

 Molecular orbital dump at record        2100.2

 Initial occupancy:   5   1   1   0

 ITERATION    DDIFF          GRAD             ENERGY        2-EL.EN.            DIPOLE MOMENTS         DIIS   ORB.
    1      0.000D+00      0.000D+00       -92.77219893    112.355578    0.00000    0.00000   -2.00668    0    start
    2      0.000D+00      0.919D-02       -92.78550664    110.557824    0.00000    0.00000   -0.96347    1    diag
    3      0.332D-01      0.775D-02       -92.80654282    111.493949    0.00000    0.00000   -1.44480    2    diag
    4      0.114D-01      0.558D-03       -92.80678524    111.450362    0.00000    0.00000   -1.43747    3    diag
    5      0.184D-02      0.120D-03       -92.80679916    111.455617    0.00000    0.00000   -1.43635    4    diag
    6      0.489D-03      0.306D-04       -92.80679979    111.452272    0.00000    0.00000   -1.43669    5    diag
    7      0.349D-04      0.105D-04       -92.80679986    111.453298    0.00000    0.00000   -1.43673    6    diag
    8      0.141D-04      0.214D-05       -92.80679987    111.453271    0.00000    0.00000   -1.43671    7    diag
    9      0.712D-05      0.238D-06       -92.80679987    111.453278    0.00000    0.00000   -1.43671    8    diag
   10      0.120D-05      0.277D-07       -92.80679987    111.453280    0.00000    0.00000   -1.43671    9    orth
   11      0.123D-06      0.358D-08       -92.80679987    111.453280    0.00000    0.00000   -1.43671    9    diag
   12      0.119D-07      0.373D-09       -92.80679987    111.453280    0.00000    0.00000   -1.43671    9    diag
   13      0.115D-08      0.473D-10       -92.80679987    111.453280    0.00000    0.00000   -1.43671    9    diag
   14      0.166D-09      0.711D-11       -92.80679987    111.453280    0.00000    0.00000   -1.43671    9    diag
   15      0.282D-10      0.148D-11       -92.80679987    111.453280    0.00000    0.00000   -1.43671    9    diag
   16      0.557D-11      0.403D-12       -92.80679987    111.453280    0.00000    0.00000   -1.43671    9    diag
   17      0.247D-11      0.187D-12       -92.80679987    111.453280    0.00000    0.00000   -1.43671    0    orth

 Final occupancy:   5   1   1   0

 !RHF STATE 1.1 Energy                -92.806799866411
 Nuclear energy                        24.20918814
 One-electron energy                 -172.74262780
 Two-electron energy                   55.72663980
 Virial quotient                       -1.00138563
 !RHF STATE 1.1 Dipole moment           0.00000000     0.00000000    -1.43670547
 Dipole moment /Debye                   0.00000000     0.00000000    -3.65150189

 Orbital energies:

         1.1          2.1          3.1          4.1          5.1          6.1          7.1
    -15.585889   -11.393976    -1.261304    -0.835979    -0.577409     0.032774     0.153187

         1.2          2.2          3.2
     -0.495059     0.136481     0.309942

         1.3          2.3          3.3
     -0.495059     0.136481     0.309942

         1.4          2.4
      0.682930     0.964306

 HOMO      1.2    -0.495059 =     -13.4712eV
 LUMO      6.1     0.032774 =       0.8918eV
 LUMO-HOMO         0.527833 =      14.3631eV


 **********************************************************************************************************************************
 DATASETS  * FILE   NREC   LENGTH (MB)   RECORD NAMES
              1      19      213.99       500      610      700      900      950      970     1000      129      960     1100   
                                          VAR    BASINP    GEOM    SYMINP    ZMAT    AOBASIS   BASIS     P2S    ABASIS      S 
                                         1400     1410     1200     1210     1080     1600     1650     1300     1700   
                                           T        V       H0       H01     AOSYM     SMH    MOLCAS    ERIS     OPER   

              2       4        2.98       700     1000      520     2100   
                                         GEOM     BASIS   MCVARS     RHF  

 PROGRAMS   *        TOTAL        HF       INT
 CPU TIMES  *         4.78      1.65      3.06
 REAL TIME  *         6.03 SEC
 DISK USED  *       643.13 MB      
 **********************************************************************************************************************************


 PROGRAM * CCSD (Closed-shell coupled cluster)     Authors: C. Hampel, H.-J. Werner, 1991, M. Deegan, P.J. Knowles, 1992


 Convergence thresholds:  THRVAR = 1.00D-08  THRDEN = 1.00D-12

 CCSD(T)     terms to be evaluated (factor= 1.000)


 Number of core orbitals:           2 (   2   0   0   0 )
 Number of closed-shell orbitals:   5 (   3   1   1   0 )
 Number of external orbitals:     164 (  70  38  38  18 )

 Molecular orbitals read from record     2100.2  Type=RHF/CANONICAL (state 1.1)

 Number of N-1 electron functions:               5
 Number of N-2 electron functions:              15
 Number of singly external CSFs:               286
 Number of doubly external CSFs:             90562
 Total number of CSFs:                       90849

 Length of J-op  integral file:               0.00 MB
 Length of K-op  integral file:               0.65 MB
 Length of 3-ext integral record:             0.00 MB

 Memory could be reduced to 9.35 Mwords without degradation in triples

 Integral transformation finished. Total CPU:   0.23 sec, npass=  1  Memory used:   1.25 MW

 Reference energy:                    -92.80679987

 MP2 singlet pair energy:              -0.21529263
 MP2 triplet pair energy:              -0.12294644
 MP2 correlation energy:               -0.33823907
 MP2 total energy:                    -93.14503894

 SCS-MP2 correlation energy:           -0.33485117   (PS=  1.200000  PT=  0.333333)
 SCS-MP2 total energy:                -93.14165103

 ITER.      SQ.NORM     CORR.ENERGY   TOTAL ENERGY   ENERGY CHANGE        DEN1      VAR(S)    VAR(P)  DIIS     TIME  TIME/IT
   1      1.10855623    -0.34211052   -93.14891039    -0.00387145     0.00743263  0.21D-02  0.25D-02  1  1     0.45     0.24
   2      1.11661439    -0.34257285   -93.14937271    -0.00046233    -0.00873913  0.69D-04  0.34D-03  2  2     0.68     0.25
   3      1.12110626    -0.34275350   -93.14955337    -0.00018065    -0.00253406  0.95D-05  0.37D-04  3  3     0.89     0.25
   4      1.12277308    -0.34281566   -93.14961553    -0.00006216    -0.00056889  0.85D-06  0.40D-05  4  4     1.11     0.26
   5      1.12324366    -0.34281416   -93.14961403     0.00000150    -0.00014471  0.12D-06  0.31D-06  5  5     1.35     0.26
   6      1.12332223    -0.34281209   -93.14961196     0.00000207    -0.00001998  0.82D-08  0.25D-07  6  6     1.56     0.26
   7      1.12332856    -0.34281328   -93.14961314    -0.00000118     0.00000017  0.13D-08  0.20D-08  6  1     1.78     0.26
   8      1.12333091    -0.34281356   -93.14961343    -0.00000029    -0.00000084  0.24D-09  0.15D-09  6  2     2.00     0.26
   9      1.12333091    -0.34281362   -93.14961349    -0.00000006     0.00000015  0.23D-10  0.16D-10  6  3     2.20     0.26
  10      1.12333099    -0.34281363   -93.14961350    -0.00000001     0.00000005  0.53D-11  0.22D-11  6  4     2.42     0.26
  11      1.12333103    -0.34281363   -93.14961350    -0.00000000     0.00000000  0.42D-12  0.43D-12  6  5     2.64     0.26
  12      1.12333099    -0.34281363   -93.14961350    -0.00000000     0.00000003  0.26D-13  0.10D-12  6  6     2.85     0.26
  13      1.12333096    -0.34281363   -93.14961350    -0.00000000     0.00000001  0.19D-14  0.12D-13  6  1     3.07     0.26
  14      1.12333093    -0.34281363   -93.14961350    -0.00000000     0.00000001  0.61D-15  0.16D-14  6  2     3.29     0.26
  15      1.12333093    -0.34281363   -93.14961350    -0.00000000     0.00000000  0.11D-15  0.24D-15  6  3     3.52     0.26
  16      1.12333092    -0.34281363   -93.14961350    -0.00000000     0.00000000  0.61D-17  0.12D-16  6  5     3.74     0.26
  17      1.12333092    -0.34281363   -93.14961350    -0.00000000     0.00000000  0.38D-18  0.65D-18  6  2     3.97     0.26
  18      1.12333092    -0.34281363   -93.14961350     0.00000000    -0.00000000  0.23D-19  0.46D-19  6  4     4.18     0.26
  19      1.12333092    -0.34281363   -93.14961350     0.00000000    -0.00000000  0.38D-20  0.34D-20  6  6     4.39     0.26
  20      1.12333092    -0.34281363   -93.14961350    -0.00000000     0.00000000  0.43D-21  0.56D-21  6  1     4.62     0.26

 Norm of t1 vector:      0.05979798      S-energy:     0.00000000      T1 diagnostic:  0.01337124
                                                                       D1 diagnostic:  0.02591583

 Doubles amplitudes (print threshold =  0.500E-01):

         I         J         SYM. A    SYM. B    A         B      T(IJ, AB)

         4         4         2         2         1         1     -0.05541969
         5         5         3         3         1         1     -0.05541969


 Total CPU time for triples:      1.36 sec


 RESULTS
 =======

  Reference energy                    -92.806799866411
  CCSD singlet pair energy             -0.237369938574
  CCSD triplet pair energy             -0.105443694914
  CCSD correlation energy              -0.342813633487

  Triples (T) contribution             -0.016592887913
  Total correlation energy             -0.359406521400

  CCSD total energy                   -93.149613499898
  CCSD[T] energy                      -93.166855967925
  CCSD-T energy                       -93.165883275019
 !CCSD(T) total energy                -93.166206387811

 Timing summary (sec):

 STEP                 CPU(USER)    SYS     CPU(TOT)    WALL
 Transformation          0.23      0.06      0.29      0.28
 CCSD iterations         4.40      0.73      5.13      5.14
 Triples                 1.36      0.06      1.42      1.42

 Program statistics:

 Available memory in ccsd:               994999800
 Min. memory needed in ccsd:                377822
 Max. memory used in ccsd:                  449387
 Max. memory used in cckext:                547289 (20 integral passes)



 **********************************************************************************************************************************
 DATASETS  * FILE   NREC   LENGTH (MB)   RECORD NAMES
              1      20      239.17       500      610      700      900      950      970     1000      129      960     1100   
                                          VAR    BASINP    GEOM    SYMINP    ZMAT    AOBASIS   BASIS     P2S    ABASIS      S 
                                         1400     1410     1200     1210     1080     1600     1650     1300     1700     1380   
                                           T        V       H0       H01     AOSYM     SMH    MOLCAS    ERIS     OPER     JKOP   

              2       4        2.98       700     1000      520     2100   
                                         GEOM     BASIS   MCVARS     RHF  

 PROGRAMS   *        TOTAL   CCSD(T)        HF       INT
 CPU TIMES  *        10.80      6.02      1.65      3.06
 REAL TIME  *        12.92 SEC
 DISK USED  *       643.13 MB      
 **********************************************************************************************************************************

 CCSD(T)/USERDEF energy=    -93.166206387811

        CCSD(T)         HF-SCF  
    -93.16620639    -92.80679987
 **********************************************************************************************************************************
 Molpro calculation terminated
 Variable memory released
