
 Primary working directories    : /tmp/r2666/232684.maple
 Secondary working directories  : /tmp/r2666/232684.maple
 Wavefunction directory         : /ddn/home4/r2666/wfu/
 Main file repository           : /tmp/r2666/232684.maple/

 SHA1      : d5ffa45e93fdbca01ffc919aa182cfdae0147319
 NAME      : 2015.1.35
 ARCHNAME  : linux/x86_64
 FC        : /opt/intel/composer_xe_2015.1.133/bin/intel64/ifort
 BLASLIB   : -Wl,-_start-group /opt/intel/mkl/lib/intel64/libmkl_intel_ilp64.a /opt/intel/mkl/lib/intel64/libmkl_intel_thread.a /opt/intel/mkl/lib/intel64/libmkl_core.a -Wl,-_end-group
 id        : olemiss

 Nodes     nprocs
 cn076        1

 Using customized tuning parameters: mindgm=1; mindgv=20; mindgc=4; mindgr=1; noblas=0; minvec=7
 default implementation of scratch files=df  

 ***,hcn CCSD(T)/TZ-F12 QFF
 memory, 995, m;
 gthresh,energy=1.d-12,zero=1.d-22,oneint=1.d-22,twoint=1.d-22;
 gthresh,optgrad=1.d-8,optstep=1.d-8;
 nocompress;
 geomtyp=xyz
 bohr
 geometry={
 3
         18        18
 N       -0.0046180393        0.0000000150        1.1215031264
 C        0.0096153348       -0.0000000004       -1.0478512178
 H       -0.0049972956       -0.0000000147       -3.0707218907
 }
 
 basis={
 default=aug-cc-pvtz
 s,C,8236.0,1235.0,280.8, 79.27,25.59, 8.997,3.319
 s,C,0.9059,0.3643,0.1285000
 p,C,56.0,18.71,4.133,0.2827,0.3827,0.1209
 d,C,30.0,10.0,3.3,1.097,0.318
 f,C,7.0,2.3,0.7610
 s,N,11420.0,1712.0,389.3,110.0,35.57,12.54,4.644
 s,N,1.293,0.5118,0.1787
 p,N,79.89,26.63,5.948,1.742,0.555,0.1725
 d,N,45.0,15.0,5.0,1.654,0.469
 f,N,9.9,3.3,1.093
 s,O,15330.0,2299.0,522.4,147.3,47.55,16.76,6.207
 s,O,1.752,0.6882,0.2384
 p,O,103.5,34.46,7.749,2.28,0.7156,0.214
 d,O,63.0,21.0,7.0,2.314,0.645
 f,O,12.9,4.3,1.428
 s,mg,164900.0,24710.0,5628.0,1596.0,521.0;
 s,mg,188.0,73.01,29.90,12.54,4.306,1.826;
 s,mg,0.7417,0.0761,0.145,0.033,0.0129;
 p,mg,950.70,316.90,74.86,23.72,8.669,3.363;
 p,mg,1.310,0.4911,0.2364,0.08733,0.03237,0.00745;
 d,mg,1.601,0.686,0.126,0.294,0.0468;
 f,mg,1.372,0.588,0.094,0.252;
 }
   {hf,maxit=500;accu,20;}
 {ccsd(t),nocheck,maxit=250;orbital,IGNORE_ERROR;}

 Variables initialized (889), CPU time= 0.00 sec
 Commands  initialized (702), CPU time= 0.01 sec, 572 directives.
 Default parameters read. Elapsed time= 0.05 sec

 Checking input...
 Passed
1


                                         ***  PROGRAM SYSTEM MOLPRO  ***
                                       Copyright, TTI GmbH Stuttgart, 2015
                                    Version 2015.1 linked Jul  9 2018 13:16:40


 **********************************************************************************************************************************
 LABEL *   hcn CCSD(T)/TZ-F12 QFF                                                        
  64 bit serial version                                                                  DATE: 06-Feb-20          TIME: 09:54:47  
 **********************************************************************************************************************************

 SHA1:             d5ffa45e93fdbca01ffc919aa182cfdae0147319
 **********************************************************************************************************************************

 THRESHOLDS:

 ZERO    =  1.00D-22  ONEINT  =  1.00D-22  TWOINT  =  1.00D-22  PREFAC  =  1.00D-14  LOCALI  =  1.00D-09  EORDER  =  1.00D-04
 ENERGY  =  1.00D-12  ETEST   =  0.00D+00  EDENS   =  0.00D+00  THRDEDEF=  1.00D-06  GRADIENT=  1.00D-02  STEP    =  1.00D-03
 ORBITAL =  1.00D-05  CIVEC   =  1.00D-05  COEFF   =  1.00D-04  PRINTCI =  5.00D-02  PUNCHCI =  9.90D+01  OPTGRAD =  3.00D-04
 OPTENERG=  1.00D-06  OPTSTEP =  3.00D-04  THRGRAD =  1.00D-10  COMPRESS=  1.00D-11  VARMIN  =  1.00D-07  VARMAX  =  1.00D-03
 THRDOUB =  0.00D+00  THRDIV  =  1.00D-05  THRRED  =  1.00D-07  THRPSP  =  1.00D+00  THRDC   =  1.00D-10  THRCS   =  1.00D-10
 THRNRM  =  1.00D-08  THREQ   =  0.00D+00  THRDE   =  1.00D+00  THRREF  =  1.00D-05  SPARFAC =  1.00D+00  THRDLP  =  1.00D-07
 THRDIA  =  1.00D-10  THRDLS  =  1.00D-07  THRGPS  =  0.00D+00  THRKEX  =  0.00D+00  THRDIS  =  2.00D-01  THRVAR  =  1.00D-10
 THRLOC  =  1.00D-06  THRGAP  =  1.00D-06  THRLOCT = -1.00D+00  THRGAPT = -1.00D+00  THRORB  =  1.00D-06  THRMLTP =  0.00D+00
 THRCPQCI=  1.00D-10  KEXTA   =  0.00D+00  THRCOARS=  0.00D+00  SYMTOL  =  1.00D-06  GRADTOL =  1.00D-06  THROVL  =  1.00D-08
 THRORTH =  1.00D-08  GRID    =  1.00D-06  GRIDMAX =  1.00D-03  DTMAX   =  0.00D+00  THROCCDE=  1.00D-01  THROCCDE=  1.00D-01



 THRESHOLDS:

 ZERO    =  1.00D-22  ONEINT  =  1.00D-22  TWOINT  =  1.00D-22  PREFAC  =  1.00D-14  LOCALI  =  1.00D-09  EORDER  =  1.00D-04
 ENERGY  =  1.00D-12  ETEST   =  0.00D+00  EDENS   =  0.00D+00  THRDEDEF=  1.00D-06  GRADIENT=  1.00D-02  STEP    =  1.00D-03
 ORBITAL =  1.00D-05  CIVEC   =  1.00D-05  COEFF   =  1.00D-04  PRINTCI =  5.00D-02  PUNCHCI =  9.90D+01  OPTGRAD =  1.00D-08
 OPTENERG=  1.00D-06  OPTSTEP =  1.00D-08  THRGRAD =  1.00D-10  COMPRESS=  1.00D-11  VARMIN  =  1.00D-07  VARMAX  =  1.00D-03
 THRDOUB =  0.00D+00  THRDIV  =  1.00D-05  THRRED  =  1.00D-07  THRPSP  =  1.00D+00  THRDC   =  1.00D-10  THRCS   =  1.00D-10
 THRNRM  =  1.00D-08  THREQ   =  0.00D+00  THRDE   =  1.00D+00  THRREF  =  1.00D-05  SPARFAC =  1.00D+00  THRDLP  =  1.00D-07
 THRDIA  =  1.00D-10  THRDLS  =  1.00D-07  THRGPS  =  0.00D+00  THRKEX  =  0.00D+00  THRDIS  =  2.00D-01  THRVAR  =  1.00D-10
 THRLOC  =  1.00D-06  THRGAP  =  1.00D-06  THRLOCT = -1.00D+00  THRGAPT = -1.00D+00  THRORB  =  1.00D-06  THRMLTP =  0.00D+00
 THRCPQCI=  1.00D-10  KEXTA   =  0.00D+00  THRCOARS=  0.00D+00  SYMTOL  =  1.00D-06  GRADTOL =  1.00D-06  THROVL  =  1.00D-08
 THRORTH =  1.00D-08  GRID    =  1.00D-06  GRIDMAX =  1.00D-03  DTMAX   =  0.00D+00  THROCCDE=  1.00D-01  THROCCDE=  1.00D-01



 Input parameters for SORTINT:

 COMPRESS =    0.000000
 C_FINAL  =    1.000000
 DEBUG    =   -1.000000
 C_SORT1  =    0.000000
 C_SEWARD =    0.000000
 THRESH   =    0.000000
 IO       =  molpro                                                          
 SPRI     =    0.000000
 SETTING GEOMTYP        =    XYZ
 ZUNIT=BOHR
 

 Variable memory set to  995000000 words,  buffer space   230000 words

 SETTING BASIS          =    USERDEF


 Recomputing integrals since basis changed


 Using spherical harmonics

 Library entry H      S aug-cc-pVTZ          selected for orbital group  3
 Library entry H      P aug-cc-pVTZ          selected for orbital group  3
 Library entry H      D aug-cc-pVTZ          selected for orbital group  3


 PROGRAM * SEWARD (Integral evaluation for generally contracted gaussian basis sets)     Author: Roland Lindh, 1990

 Geometry written to block  1 of record 700


 Point group  Cs  



 ATOMIC COORDINATES

 NR  ATOM    CHARGE       X              Y              Z

   1  N       7.00   -0.004618039    0.000000000    1.121503126
   2  C       6.00    0.009615335    0.000000000   -1.047851218
   3  H       1.00   -0.004997296    0.000000000   -3.070721891

 Bond lengths in Bohr (Angstrom)

 1-2  2.169401037  2-3  2.022923451
     ( 1.147997590)     ( 1.070484990)

 Bond angles

  1-2-3  179.21020056

 NUCLEAR CHARGE:                   14
 NUMBER OF PRIMITIVE AOS:         203
 NUMBER OF SYMMETRY AOS:          173
 NUMBER OF CONTRACTIONS:          171   ( 114A'  +  57A"  )
 NUMBER OF CORE ORBITALS:           2   (   2A'  +   0A"  )
 NUMBER OF VALENCE ORBITALS:        9   (   7A'  +   2A"  )


 NUCLEAR REPULSION ENERGY   23.99594467


 Eigenvalues of metric

         1 0.247E-03 0.512E-03 0.913E-03 0.139E-02 0.317E-02 0.540E-02 0.764E-02 0.101E-01
         2 0.540E-02 0.157E-01 0.221E-01 0.346E-01 0.968E-01 0.113E+00 0.124E+00 0.125E+00


 Contracted 2-electron integrals neglected if value below      1.0D-22

       48066671. INTEGRALS WRITTEN OUT IN   11738 BLOCKS ON RECORD 1290 OF FILE 1


 NUMBER OF SORTED TWO-ELECTRON INTEGRALS:   55360566.     BUFFER LENGTH:  32768
 NUMBER OF SEGMENTS:   4  SEGMENT LENGTH:   15997996      RECORD LENGTH: 524288

 Memory used in sort:      16.56 MW

 SORT1 READ    48066671. AND WROTE    48522503. INTEGRALS IN    141 RECORDS. CPU TIME:     0.72 SEC, REAL TIME:     1.04 SEC
 SORT2 READ    48522503. AND WROTE    55360566. INTEGRALS IN      4 RECORDS. CPU TIME:     0.60 SEC, REAL TIME:     0.83 SEC

 FILE SIZES:   FILE 1:   790.0 MBYTE,  FILE 4:   591.4 MBYTE,   TOTAL:   1381.4 MBYTE

 OPERATOR DM      FOR CENTER  0  COORDINATES:    0.000000    0.000000    0.000000


 **********************************************************************************************************************************
 DATASETS  * FILE   NREC   LENGTH (MB)   RECORD NAMES
              1      19      433.08       500      610      700      900      950      970     1000      129      960     1100   
                                          VAR    BASINP    GEOM    SYMINP    ZMAT    AOBASIS   BASIS     P2S    ABASIS      S 
                                         1400     1410     1200     1210     1080     1600     1650     1300     1700   
                                           T        V       H0       H01     AOSYM     SMH    MOLCAS    ERIS     OPER   

 PROGRAMS   *        TOTAL       INT
 CPU TIMES  *         3.97      3.89
 REAL TIME  *         5.55 SEC
 DISK USED  *         1.38 GB      
 **********************************************************************************************************************************


 PROGRAM * RHF-SCF (CLOSED SHELL)       Authors: W. Meyer, H.-J. Werner


 NUMBER OF ELECTRONS:       7+    7-
 CONVERGENCE THRESHOLDS:    1.00E-10 (Density)    1.00E-13 (Energy)
 MAX. NUMBER OF ITERATIONS:      500
 INTERPOLATION TYPE:            DIIS
 INTERPOLATION STEPS:              2 (START)      1 (STEP)
 LEVEL SHIFTS:                  0.00 (CLOSED)  0.00 (OPEN) 



 Orbital guess generated from atomic densities. Full valence occupancy:    9   2

 Molecular orbital dump at record        2100.2

 Initial occupancy:   6   1

 ITERATION    DDIFF          GRAD             ENERGY        2-EL.EN.            DIPOLE MOMENTS         DIIS   ORB.
    1      0.000D+00      0.000D+00       -92.77182578    111.913261    0.00839    0.00000   -2.02667    0    start
    2      0.000D+00      0.714D-02       -92.78451543    110.159039   -0.00317    0.00000   -0.95324    1    diag
    3      0.255D-01      0.613D-02       -92.80639654    111.095518    0.00165    0.00000   -1.45162    2    diag
    4      0.878D-02      0.437D-03       -92.80664288    111.048413    0.00129    0.00000   -1.44437    3    diag
    5      0.139D-02      0.968D-04       -92.80665732    111.055625    0.00118    0.00000   -1.44313    4    diag
    6      0.386D-03      0.252D-04       -92.80665806    111.051662    0.00117    0.00000   -1.44343    5    diag
    7      0.296D-04      0.889D-05       -92.80665815    111.052671    0.00116    0.00000   -1.44349    6    diag
    8      0.115D-04      0.178D-05       -92.80665815    111.052651    0.00116    0.00000   -1.44347    7    diag
    9      0.591D-05      0.196D-06       -92.80665815    111.052658    0.00116    0.00000   -1.44347    8    diag
   10      0.999D-06      0.226D-07       -92.80665815    111.052659    0.00116    0.00000   -1.44347    9    orth
   11      0.998D-07      0.395D-08       -92.80665815    111.052659    0.00116    0.00000   -1.44347    9    diag
   12      0.131D-07      0.143D-08       -92.80665815    111.052659    0.00116    0.00000   -1.44347    9    diag
   13      0.602D-08      0.657D-09       -92.80665815    111.052659    0.00116    0.00000   -1.44347    9    diag
   14      0.421D-08      0.168D-09       -92.80665815    111.052659    0.00116    0.00000   -1.44347    9    diag
   15      0.105D-08      0.625D-10       -92.80665815    111.052659    0.00116    0.00000   -1.44347    9    diag
   16      0.296D-09      0.157D-10       -92.80665815    111.052659    0.00116    0.00000   -1.44347    9    diag
   17      0.780D-10      0.415D-11       -92.80665815    111.052659    0.00116    0.00000   -1.44347    9    diag
   18      0.133D-10      0.101D-11       -92.80665815    111.052659    0.00116    0.00000   -1.44347    9    diag
   19      0.209D-11      0.430D-12       -92.80665815    111.052659    0.00116    0.00000   -1.44347    0    orth

 Final occupancy:   6   1

 !RHF STATE 1.1 Energy                -92.806658148078
 Nuclear energy                        23.99594467
 One-electron energy                 -172.32893240
 Two-electron energy                   55.52632958
 Virial quotient                       -1.00217156
 !RHF STATE 1.1 Dipole moment           0.00116196     0.00000000    -1.44347159
 Dipole moment /Debye                   0.00295322     0.00000000    -3.66869852

 Orbital energies:

         1.1          2.1          3.1          4.1          5.1          6.1          7.1          8.1
    -15.589199   -11.397998    -1.256186    -0.833383    -0.577629    -0.491870     0.032666     0.134505

         1.2          2.2          3.2
     -0.491871     0.134574     0.307478

 HOMO      6.1    -0.491870 =     -13.3845eV
 LUMO      7.1     0.032666 =       0.8889eV
 LUMO-HOMO         0.524536 =      14.2733eV


 **********************************************************************************************************************************
 DATASETS  * FILE   NREC   LENGTH (MB)   RECORD NAMES
              1      19      433.08       500      610      700      900      950      970     1000      129      960     1100   
                                          VAR    BASINP    GEOM    SYMINP    ZMAT    AOBASIS   BASIS     P2S    ABASIS      S 
                                         1400     1410     1200     1210     1080     1600     1650     1300     1700   
                                           T        V       H0       H01     AOSYM     SMH    MOLCAS    ERIS     OPER   

              2       4        3.13       700     1000      520     2100   
                                         GEOM     BASIS   MCVARS     RHF  

 PROGRAMS   *        TOTAL        HF       INT
 CPU TIMES  *         8.58      4.61      3.89
 REAL TIME  *        11.28 SEC
 DISK USED  *         1.38 GB      
 **********************************************************************************************************************************


 PROGRAM * CCSD (Closed-shell coupled cluster)     Authors: C. Hampel, H.-J. Werner, 1991, M. Deegan, P.J. Knowles, 1992


 Convergence thresholds:  THRVAR = 1.00D-08  THRDEN = 1.00D-12

 CCSD(T)     terms to be evaluated (factor= 1.000)


 Number of core orbitals:           2 (   2   0 )
 Number of closed-shell orbitals:   5 (   4   1 )
 Number of external orbitals:     164 ( 108  56 )

 Molecular orbitals read from record     2100.2  Type=RHF/CANONICAL (state 1.1)

 Number of N-1 electron functions:               5
 Number of N-2 electron functions:              15
 Number of singly external CSFs:               488
 Number of doubly external CSFs:            174594
 Total number of CSFs:                      175083

 Length of J-op  integral file:               0.00 MB
 Length of K-op  integral file:               1.15 MB
 Length of 3-ext integral record:             0.00 MB

 Memory could be reduced to 17.82 Mwords without degradation in triples

 Integral transformation finished. Total CPU:   0.58 sec, npass=  1  Memory used:   4.44 MW

 Reference energy:                    -92.80665815

 MP2 singlet pair energy:              -0.21629231
 MP2 triplet pair energy:              -0.12371925
 MP2 correlation energy:               -0.34001156
 MP2 total energy:                    -93.14666971

 SCS-MP2 correlation energy:           -0.33653164   (PS=  1.200000  PT=  0.333333)
 SCS-MP2 total energy:                -93.14318979

 ITER.      SQ.NORM     CORR.ENERGY   TOTAL ENERGY   ENERGY CHANGE        DEN1      VAR(S)    VAR(P)  DIIS     TIME  TIME/IT
   1      1.10990683    -0.34346744   -93.15012558    -0.00345588     0.00819322  0.22D-02  0.26D-02  1  1     1.07     0.54
   2      1.11820711    -0.34388433   -93.15054248    -0.00041689    -0.00894469  0.73D-04  0.35D-03  2  2     1.56     0.55
   3      1.12289015    -0.34407529   -93.15073344    -0.00019096    -0.00260857  0.10D-04  0.39D-04  3  3     2.04     0.56
   4      1.12465091    -0.34414232   -93.15080047    -0.00006704    -0.00059322  0.88D-06  0.44D-05  4  4     2.52     0.56
   5      1.12515491    -0.34414106   -93.15079920     0.00000127    -0.00015317  0.14D-06  0.35D-06  5  5     3.03     0.56
   6      1.12524183    -0.34413881   -93.15079695     0.00000225    -0.00002201  0.89D-08  0.28D-07  6  6     3.52     0.56
   7      1.12524881    -0.34414012   -93.15079827    -0.00000131     0.00000020  0.13D-08  0.23D-08  6  1     4.00     0.56
   8      1.12525149    -0.34414042   -93.15079857    -0.00000030    -0.00000099  0.26D-09  0.17D-09  6  2     4.48     0.56
   9      1.12525148    -0.34414049   -93.15079864    -0.00000007     0.00000017  0.24D-10  0.17D-10  6  3     4.97     0.56
  10      1.12525156    -0.34414050   -93.15079865    -0.00000001     0.00000005  0.56D-11  0.24D-11  6  4     5.47     0.56
  11      1.12525160    -0.34414050   -93.15079865    -0.00000000     0.00000000  0.50D-12  0.47D-12  6  5     5.94     0.56
  12      1.12525155    -0.34414050   -93.15079865    -0.00000000     0.00000003  0.36D-13  0.11D-12  6  6     6.44     0.56
  13      1.12525151    -0.34414050   -93.15079865    -0.00000000     0.00000001  0.26D-14  0.14D-13  6  1     6.93     0.56
  14      1.12525149    -0.34414050   -93.15079865    -0.00000000     0.00000001  0.78D-15  0.18D-14  6  2     7.42     0.56
  15      1.12525148    -0.34414050   -93.15079865    -0.00000000     0.00000000  0.14D-15  0.28D-15  6  3     7.92     0.56
  16      1.12525148    -0.34414050   -93.15079865    -0.00000000     0.00000000  0.12D-16  0.14D-16  6  5     8.36     0.56
  17      1.12525148    -0.34414050   -93.15079865     0.00000000     0.00000000  0.17D-17  0.75D-18  6  4     8.85     0.56
  18      1.12525148    -0.34414050   -93.15079865     0.00000000    -0.00000000  0.47D-18  0.17D-18  6  6     9.35     0.56
  19      1.12525148    -0.34414050   -93.15079865     0.00000000    -0.00000000  0.69D-19  0.29D-19  6  1     9.84     0.56
  20      1.12525148    -0.34414050   -93.15079865    -0.00000000    -0.00000000  0.60D-20  0.74D-20  6  2    10.34     0.56
  21      1.12525148    -0.34414050   -93.15079865    -0.00000000     0.00000000  0.57D-21  0.11D-20  6  3    10.84     0.57

 Norm of t1 vector:      0.06117161      S-energy:    -0.00000000      T1 diagnostic:  0.01367839
                                                                       D1 diagnostic:  0.02650019

 Doubles amplitudes (print threshold =  0.500E-01):

         I         J         SYM. A    SYM. B    A         B      T(IJ, AB)

         4         4         1         1         2         2     -0.05724735
         5         5         2         2         1         1     -0.05736207


 Total CPU time for triples:      4.46 sec


 RESULTS
 =======

  Reference energy                    -92.806658148078
  CCSD singlet pair energy             -0.238479140842
  CCSD triplet pair energy             -0.105661363197
  CCSD correlation energy              -0.344140504039

  Triples (T) contribution             -0.016889508089
  Total correlation energy             -0.361030012128

  CCSD total energy                   -93.150798652117
  CCSD[T] energy                      -93.168369341353
  CCSD-T energy                       -93.167350819080
 !CCSD(T) total energy                -93.167688160205

 Timing summary (sec):

 STEP                 CPU(USER)    SYS     CPU(TOT)    WALL
 Transformation          0.58      0.13      0.71      0.72
 CCSD iterations        10.27      1.63     11.90     11.88
 Triples                 4.46      0.12      4.58      4.59

 Program statistics:

 Available memory in ccsd:               994999800
 Min. memory needed in ccsd:                705325
 Max. memory used in ccsd:                  840968
 Max. memory used in cckext:               1345378 (21 integral passes)



 **********************************************************************************************************************************
 DATASETS  * FILE   NREC   LENGTH (MB)   RECORD NAMES
              1      20      481.71       500      610      700      900      950      970     1000      129      960     1100   
                                          VAR    BASINP    GEOM    SYMINP    ZMAT    AOBASIS   BASIS     P2S    ABASIS      S 
                                         1400     1410     1200     1210     1080     1600     1650     1300     1700     1380   
                                           T        V       H0       H01     AOSYM     SMH    MOLCAS    ERIS     OPER     JKOP   

              2       4        3.13       700     1000      520     2100   
                                         GEOM     BASIS   MCVARS     RHF  

 PROGRAMS   *        TOTAL   CCSD(T)        HF       INT
 CPU TIMES  *        23.91     15.33      4.61      3.89
 REAL TIME  *        28.50 SEC
 DISK USED  *         1.38 GB      
 **********************************************************************************************************************************

 CCSD(T)/USERDEF energy=    -93.167688160205

        CCSD(T)         HF-SCF  
    -93.16768816    -92.80665815
 **********************************************************************************************************************************
 Molpro calculation terminated
 Variable memory released
