
 Primary working directories    : /tmp/r2666/232705.maple
 Secondary working directories  : /tmp/r2666/232705.maple
 Wavefunction directory         : /ddn/home4/r2666/wfu/
 Main file repository           : /tmp/r2666/232705.maple/

 SHA1      : d5ffa45e93fdbca01ffc919aa182cfdae0147319
 NAME      : 2015.1.35
 ARCHNAME  : linux/x86_64
 FC        : /opt/intel/composer_xe_2015.1.133/bin/intel64/ifort
 BLASLIB   : -Wl,-_start-group /opt/intel/mkl/lib/intel64/libmkl_intel_ilp64.a /opt/intel/mkl/lib/intel64/libmkl_intel_thread.a /opt/intel/mkl/lib/intel64/libmkl_core.a -Wl,-_end-group
 id        : olemiss

 Nodes     nprocs
 cn090        1

 Using customized tuning parameters: mindgm=1; mindgv=20; mindgc=4; mindgr=1; noblas=0; minvec=7
 default implementation of scratch files=df  

 ***,hcn CCSD(T)/TZ-F12 QFF
 memory, 995, m;
 gthresh,energy=1.d-12,zero=1.d-22,oneint=1.d-22,twoint=1.d-22;
 gthresh,optgrad=1.d-8,optstep=1.d-8;
 nocompress;
 geomtyp=xyz
 bohr
 geometry={
 3
         39        39
 N       -0.0046142057       -0.0000000114        1.1278023967
 C        0.0096073494        0.0000000003       -1.0604496874
 H       -0.0049931437        0.0000000111       -3.0644226913
 }
 
 basis={
 default=aug-cc-pvtz
 s,C,8236.0,1235.0,280.8, 79.27,25.59, 8.997,3.319
 s,C,0.9059,0.3643,0.1285000
 p,C,56.0,18.71,4.133,0.2827,0.3827,0.1209
 d,C,30.0,10.0,3.3,1.097,0.318
 f,C,7.0,2.3,0.7610
 s,N,11420.0,1712.0,389.3,110.0,35.57,12.54,4.644
 s,N,1.293,0.5118,0.1787
 p,N,79.89,26.63,5.948,1.742,0.555,0.1725
 d,N,45.0,15.0,5.0,1.654,0.469
 f,N,9.9,3.3,1.093
 s,O,15330.0,2299.0,522.4,147.3,47.55,16.76,6.207
 s,O,1.752,0.6882,0.2384
 p,O,103.5,34.46,7.749,2.28,0.7156,0.214
 d,O,63.0,21.0,7.0,2.314,0.645
 f,O,12.9,4.3,1.428
 s,mg,164900.0,24710.0,5628.0,1596.0,521.0;
 s,mg,188.0,73.01,29.90,12.54,4.306,1.826;
 s,mg,0.7417,0.0761,0.145,0.033,0.0129;
 p,mg,950.70,316.90,74.86,23.72,8.669,3.363;
 p,mg,1.310,0.4911,0.2364,0.08733,0.03237,0.00745;
 d,mg,1.601,0.686,0.126,0.294,0.0468;
 f,mg,1.372,0.588,0.094,0.252;
 }
   {hf,maxit=500;accu,20;}
 {ccsd(t),nocheck,maxit=250;orbital,IGNORE_ERROR;}

 Variables initialized (889), CPU time= 0.00 sec
 Commands  initialized (702), CPU time= 0.01 sec, 572 directives.
 Default parameters read. Elapsed time= 0.04 sec

 Checking input...
 Passed
1


                                         ***  PROGRAM SYSTEM MOLPRO  ***
                                       Copyright, TTI GmbH Stuttgart, 2015
                                    Version 2015.1 linked Jul  9 2018 13:16:40


 **********************************************************************************************************************************
 LABEL *   hcn CCSD(T)/TZ-F12 QFF                                                        
  64 bit serial version                                                                  DATE: 06-Feb-20          TIME: 09:55:02  
 **********************************************************************************************************************************

 SHA1:             d5ffa45e93fdbca01ffc919aa182cfdae0147319
 **********************************************************************************************************************************

 THRESHOLDS:

 ZERO    =  1.00D-22  ONEINT  =  1.00D-22  TWOINT  =  1.00D-22  PREFAC  =  1.00D-14  LOCALI  =  1.00D-09  EORDER  =  1.00D-04
 ENERGY  =  1.00D-12  ETEST   =  0.00D+00  EDENS   =  0.00D+00  THRDEDEF=  1.00D-06  GRADIENT=  1.00D-02  STEP    =  1.00D-03
 ORBITAL =  1.00D-05  CIVEC   =  1.00D-05  COEFF   =  1.00D-04  PRINTCI =  5.00D-02  PUNCHCI =  9.90D+01  OPTGRAD =  3.00D-04
 OPTENERG=  1.00D-06  OPTSTEP =  3.00D-04  THRGRAD =  1.00D-10  COMPRESS=  1.00D-11  VARMIN  =  1.00D-07  VARMAX  =  1.00D-03
 THRDOUB =  0.00D+00  THRDIV  =  1.00D-05  THRRED  =  1.00D-07  THRPSP  =  1.00D+00  THRDC   =  1.00D-10  THRCS   =  1.00D-10
 THRNRM  =  1.00D-08  THREQ   =  0.00D+00  THRDE   =  1.00D+00  THRREF  =  1.00D-05  SPARFAC =  1.00D+00  THRDLP  =  1.00D-07
 THRDIA  =  1.00D-10  THRDLS  =  1.00D-07  THRGPS  =  0.00D+00  THRKEX  =  0.00D+00  THRDIS  =  2.00D-01  THRVAR  =  1.00D-10
 THRLOC  =  1.00D-06  THRGAP  =  1.00D-06  THRLOCT = -1.00D+00  THRGAPT = -1.00D+00  THRORB  =  1.00D-06  THRMLTP =  0.00D+00
 THRCPQCI=  1.00D-10  KEXTA   =  0.00D+00  THRCOARS=  0.00D+00  SYMTOL  =  1.00D-06  GRADTOL =  1.00D-06  THROVL  =  1.00D-08
 THRORTH =  1.00D-08  GRID    =  1.00D-06  GRIDMAX =  1.00D-03  DTMAX   =  0.00D+00  THROCCDE=  1.00D-01  THROCCDE=  1.00D-01



 THRESHOLDS:

 ZERO    =  1.00D-22  ONEINT  =  1.00D-22  TWOINT  =  1.00D-22  PREFAC  =  1.00D-14  LOCALI  =  1.00D-09  EORDER  =  1.00D-04
 ENERGY  =  1.00D-12  ETEST   =  0.00D+00  EDENS   =  0.00D+00  THRDEDEF=  1.00D-06  GRADIENT=  1.00D-02  STEP    =  1.00D-03
 ORBITAL =  1.00D-05  CIVEC   =  1.00D-05  COEFF   =  1.00D-04  PRINTCI =  5.00D-02  PUNCHCI =  9.90D+01  OPTGRAD =  1.00D-08
 OPTENERG=  1.00D-06  OPTSTEP =  1.00D-08  THRGRAD =  1.00D-10  COMPRESS=  1.00D-11  VARMIN  =  1.00D-07  VARMAX  =  1.00D-03
 THRDOUB =  0.00D+00  THRDIV  =  1.00D-05  THRRED  =  1.00D-07  THRPSP  =  1.00D+00  THRDC   =  1.00D-10  THRCS   =  1.00D-10
 THRNRM  =  1.00D-08  THREQ   =  0.00D+00  THRDE   =  1.00D+00  THRREF  =  1.00D-05  SPARFAC =  1.00D+00  THRDLP  =  1.00D-07
 THRDIA  =  1.00D-10  THRDLS  =  1.00D-07  THRGPS  =  0.00D+00  THRKEX  =  0.00D+00  THRDIS  =  2.00D-01  THRVAR  =  1.00D-10
 THRLOC  =  1.00D-06  THRGAP  =  1.00D-06  THRLOCT = -1.00D+00  THRGAPT = -1.00D+00  THRORB  =  1.00D-06  THRMLTP =  0.00D+00
 THRCPQCI=  1.00D-10  KEXTA   =  0.00D+00  THRCOARS=  0.00D+00  SYMTOL  =  1.00D-06  GRADTOL =  1.00D-06  THROVL  =  1.00D-08
 THRORTH =  1.00D-08  GRID    =  1.00D-06  GRIDMAX =  1.00D-03  DTMAX   =  0.00D+00  THROCCDE=  1.00D-01  THROCCDE=  1.00D-01



 Input parameters for SORTINT:

 COMPRESS =    0.000000
 C_FINAL  =    1.000000
 DEBUG    =   -1.000000
 C_SORT1  =    0.000000
 C_SEWARD =    0.000000
 THRESH   =    0.000000
 IO       =  molpro                                                          
 SPRI     =    0.000000
 SETTING GEOMTYP        =    XYZ
 ZUNIT=BOHR
 

 Variable memory set to  995000000 words,  buffer space   230000 words

 SETTING BASIS          =    USERDEF


 Recomputing integrals since basis changed


 Using spherical harmonics

 Library entry H      S aug-cc-pVTZ          selected for orbital group  3
 Library entry H      P aug-cc-pVTZ          selected for orbital group  3
 Library entry H      D aug-cc-pVTZ          selected for orbital group  3


 PROGRAM * SEWARD (Integral evaluation for generally contracted gaussian basis sets)     Author: Roland Lindh, 1990

 Geometry written to block  1 of record 700


 Point group  Cs  



 ATOMIC COORDINATES

 NR  ATOM    CHARGE       X              Y              Z

   1  N       7.00   -0.004614206    0.000000000    1.127802397
   2  C       6.00    0.009607349    0.000000000   -1.060449687
   3  H       1.00   -0.004993144    0.000000000   -3.064422691

 Bond lengths in Bohr (Angstrom)

 1-2  2.188298297  2-3  2.004026191
     ( 1.157997589)     ( 1.060484990)

 Bond angles

  1-2-3  179.21020055

 NUCLEAR CHARGE:                   14
 NUMBER OF PRIMITIVE AOS:         203
 NUMBER OF SYMMETRY AOS:          173
 NUMBER OF CONTRACTIONS:          171   ( 114A'  +  57A"  )
 NUMBER OF CORE ORBITALS:           2   (   2A'  +   0A"  )
 NUMBER OF VALENCE ORBITALS:        9   (   7A'  +   2A"  )


 NUCLEAR REPULSION ENERGY   23.85672630


 Eigenvalues of metric

         1 0.240E-03 0.533E-03 0.906E-03 0.137E-02 0.318E-02 0.543E-02 0.748E-02 0.994E-02
         2 0.543E-02 0.157E-01 0.220E-01 0.345E-01 0.962E-01 0.112E+00 0.124E+00 0.125E+00


 Contracted 2-electron integrals neglected if value below      1.0D-22

       47936532. INTEGRALS WRITTEN OUT IN   11707 BLOCKS ON RECORD 1290 OF FILE 1


 NUMBER OF SORTED TWO-ELECTRON INTEGRALS:   55360566.     BUFFER LENGTH:  32768
 NUMBER OF SEGMENTS:   4  SEGMENT LENGTH:   15997996      RECORD LENGTH: 524288

 Memory used in sort:      16.56 MW

 SORT1 READ    47936532. AND WROTE    48391294. INTEGRALS IN    141 RECORDS. CPU TIME:     0.71 SEC, REAL TIME:     1.04 SEC
 SORT2 READ    48391294. AND WROTE    55360566. INTEGRALS IN      4 RECORDS. CPU TIME:     0.66 SEC, REAL TIME:     0.84 SEC

 FILE SIZES:   FILE 1:   788.0 MBYTE,  FILE 4:   591.4 MBYTE,   TOTAL:   1379.4 MBYTE

 OPERATOR DM      FOR CENTER  0  COORDINATES:    0.000000    0.000000    0.000000


 **********************************************************************************************************************************
 DATASETS  * FILE   NREC   LENGTH (MB)   RECORD NAMES
              1      19      432.32       500      610      700      900      950      970     1000      129      960     1100   
                                          VAR    BASINP    GEOM    SYMINP    ZMAT    AOBASIS   BASIS     P2S    ABASIS      S 
                                         1400     1410     1200     1210     1080     1600     1650     1300     1700   
                                           T        V       H0       H01     AOSYM     SMH    MOLCAS    ERIS     OPER   

 PROGRAMS   *        TOTAL       INT
 CPU TIMES  *         4.02      3.94
 REAL TIME  *         5.43 SEC
 DISK USED  *         1.38 GB      
 **********************************************************************************************************************************


 PROGRAM * RHF-SCF (CLOSED SHELL)       Authors: W. Meyer, H.-J. Werner


 NUMBER OF ELECTRONS:       7+    7-
 CONVERGENCE THRESHOLDS:    1.00E-10 (Density)    1.00E-13 (Energy)
 MAX. NUMBER OF ITERATIONS:      500
 INTERPOLATION TYPE:            DIIS
 INTERPOLATION STEPS:              2 (START)      1 (STEP)
 LEVEL SHIFTS:                  0.00 (CLOSED)  0.00 (OPEN) 



 Orbital guess generated from atomic densities. Full valence occupancy:    9   2

 Molecular orbital dump at record        2100.2

 Initial occupancy:   6   1

 ITERATION    DDIFF          GRAD             ENERGY        2-EL.EN.            DIPOLE MOMENTS         DIIS   ORB.
    1      0.000D+00      0.000D+00       -92.77116710    111.563136    0.00835    0.00000   -2.02263    0    start
    2      0.000D+00      0.705D-02       -92.78314507    109.884405   -0.00329    0.00000   -0.93836    1    diag
    3      0.257D-01      0.614D-02       -92.80523721    110.807949    0.00159    0.00000   -1.44749    2    diag
    4      0.884D-02      0.444D-03       -92.80549030    110.755780    0.00122    0.00000   -1.44034    3    diag
    5      0.141D-02      0.999D-04       -92.80550499    110.764789    0.00110    0.00000   -1.43902    4    diag
    6      0.395D-03      0.261D-04       -92.80550583    110.760369    0.00109    0.00000   -1.43925    5    diag
    7      0.335D-04      0.929D-05       -92.80550593    110.761322    0.00108    0.00000   -1.43933    6    diag
    8      0.121D-04      0.186D-05       -92.80550593    110.761308    0.00108    0.00000   -1.43931    7    diag
    9      0.631D-05      0.205D-06       -92.80550593    110.761316    0.00108    0.00000   -1.43931    8    diag
   10      0.106D-05      0.234D-07       -92.80550593    110.761317    0.00108    0.00000   -1.43931    9    orth
   11      0.105D-06      0.434D-08       -92.80550593    110.761317    0.00108    0.00000   -1.43931    9    diag
   12      0.144D-07      0.164D-08       -92.80550593    110.761317    0.00108    0.00000   -1.43931    9    diag
   13      0.712D-08      0.729D-09       -92.80550593    110.761317    0.00108    0.00000   -1.43931    9    diag
   14      0.464D-08      0.201D-09       -92.80550593    110.761317    0.00108    0.00000   -1.43931    9    diag
   15      0.125D-08      0.775D-10       -92.80550593    110.761317    0.00108    0.00000   -1.43931    9    diag
   16      0.413D-09      0.163D-10       -92.80550593    110.761317    0.00108    0.00000   -1.43931    9    diag
   17      0.859D-10      0.395D-11       -92.80550593    110.761317    0.00108    0.00000   -1.43931    9    diag
   18      0.127D-10      0.103D-11       -92.80550593    110.761317    0.00108    0.00000   -1.43931    9    diag
   19      0.261D-11      0.321D-12       -92.80550593    110.761317    0.00108    0.00000   -1.43931    9    fixocc
   20      0.725D-12      0.390D-12       -92.80550593    110.761317    0.00108    0.00000   -1.43931    9    orth
   21      0.550D-12      0.519D-12       -92.80550593    110.761317    0.00108    0.00000   -1.43931    0    orth

 Final occupancy:   6   1

 !RHF STATE 1.1 Energy                -92.805505928796
 Nuclear energy                        23.85672630
 One-electron energy                 -172.04289080
 Two-electron energy                   55.38065857
 Virial quotient                       -1.00259723
 !RHF STATE 1.1 Dipole moment           0.00108088     0.00000000    -1.43930861
 Dipole moment /Debye                   0.00274714     0.00000000    -3.65811799

 Orbital energies:

         1.1          2.1          3.1          4.1          5.1          6.1          7.1          8.1
    -15.592916   -11.401025    -1.251483    -0.838589    -0.578477    -0.489147     0.032654     0.132561

         1.2          2.2          3.2
     -0.489149     0.132620     0.305245

 HOMO      6.1    -0.489147 =     -13.3104eV
 LUMO      7.1     0.032654 =       0.8886eV
 LUMO-HOMO         0.521801 =      14.1989eV


 **********************************************************************************************************************************
 DATASETS  * FILE   NREC   LENGTH (MB)   RECORD NAMES
              1      19      432.32       500      610      700      900      950      970     1000      129      960     1100   
                                          VAR    BASINP    GEOM    SYMINP    ZMAT    AOBASIS   BASIS     P2S    ABASIS      S 
                                         1400     1410     1200     1210     1080     1600     1650     1300     1700   
                                           T        V       H0       H01     AOSYM     SMH    MOLCAS    ERIS     OPER   

              2       4        3.13       700     1000      520     2100   
                                         GEOM     BASIS   MCVARS     RHF  

 PROGRAMS   *        TOTAL        HF       INT
 CPU TIMES  *         9.26      5.23      3.94
 REAL TIME  *        11.77 SEC
 DISK USED  *         1.38 GB      
 **********************************************************************************************************************************


 PROGRAM * CCSD (Closed-shell coupled cluster)     Authors: C. Hampel, H.-J. Werner, 1991, M. Deegan, P.J. Knowles, 1992


 Convergence thresholds:  THRVAR = 1.00D-08  THRDEN = 1.00D-12

 CCSD(T)     terms to be evaluated (factor= 1.000)


 Number of core orbitals:           2 (   2   0 )
 Number of closed-shell orbitals:   5 (   4   1 )
 Number of external orbitals:     164 ( 108  56 )

 Molecular orbitals read from record     2100.2  Type=RHF/CANONICAL (state 1.1)

 Number of N-1 electron functions:               5
 Number of N-2 electron functions:              15
 Number of singly external CSFs:               488
 Number of doubly external CSFs:            174594
 Total number of CSFs:                      175083

 Length of J-op  integral file:               0.00 MB
 Length of K-op  integral file:               1.15 MB
 Length of 3-ext integral record:             0.00 MB

 Memory could be reduced to 17.82 Mwords without degradation in triples

 Integral transformation finished. Total CPU:   0.61 sec, npass=  1  Memory used:   4.44 MW

 Reference energy:                    -92.80550593

 MP2 singlet pair energy:              -0.21716523
 MP2 triplet pair energy:              -0.12444714
 MP2 correlation energy:               -0.34161238
 MP2 total energy:                    -93.14711831

 SCS-MP2 correlation energy:           -0.33803206   (PS=  1.200000  PT=  0.333333)
 SCS-MP2 total energy:                -93.14353799

 ITER.      SQ.NORM     CORR.ENERGY   TOTAL ENERGY   ENERGY CHANGE        DEN1      VAR(S)    VAR(P)  DIIS     TIME  TIME/IT
   1      1.11090671    -0.34462572   -93.15013165    -0.00301334     0.00894702  0.23D-02  0.27D-02  1  1     1.13     0.56
   2      1.11938966    -0.34497695   -93.15048288    -0.00035123    -0.00912164  0.77D-04  0.37D-03  2  2     1.60     0.56
   3      1.12420384    -0.34517253   -93.15067846    -0.00019558    -0.00265664  0.10D-04  0.42D-04  3  3     2.10     0.56
   4      1.12604497    -0.34524401   -93.15074993    -0.00007148    -0.00061332  0.89D-06  0.47D-05  4  4     2.56     0.56
   5      1.12658008    -0.34524258   -93.15074851     0.00000142    -0.00016186  0.13D-06  0.38D-06  5  5     3.05     0.56
   6      1.12667159    -0.34524032   -93.15074625     0.00000226    -0.00002289  0.85D-08  0.31D-07  6  6     3.56     0.56
   7      1.12667894    -0.34524180   -93.15074773    -0.00000148     0.00000018  0.11D-08  0.25D-08  6  1     4.05     0.56
   8      1.12668164    -0.34524215   -93.15074808    -0.00000035    -0.00000103  0.21D-09  0.18D-09  6  2     4.52     0.56
   9      1.12668154    -0.34524222   -93.15074815    -0.00000008     0.00000020  0.15D-10  0.16D-10  6  3     5.01     0.56
  10      1.12668159    -0.34524224   -93.15074817    -0.00000001     0.00000005  0.37D-11  0.18D-11  6  4     5.50     0.56
  11      1.12668162    -0.34524224   -93.15074817    -0.00000000     0.00000000  0.44D-12  0.33D-12  6  5     5.97     0.56
  12      1.12668157    -0.34524224   -93.15074817    -0.00000000     0.00000003  0.44D-13  0.88D-13  6  6     6.51     0.56
  13      1.12668154    -0.34524224   -93.15074817    -0.00000000     0.00000001  0.26D-14  0.11D-13  6  1     7.03     0.57
  14      1.12668152    -0.34524225   -93.15074817    -0.00000000     0.00000001  0.50D-15  0.14D-14  6  2     7.57     0.57
  15      1.12668151    -0.34524225   -93.15074817    -0.00000000     0.00000000  0.95D-16  0.22D-15  6  3     8.08     0.57
  16      1.12668151    -0.34524225   -93.15074817    -0.00000000     0.00000000  0.11D-16  0.94D-17  6  5     8.57     0.57
  17      1.12668151    -0.34524225   -93.15074817     0.00000000     0.00000000  0.17D-17  0.71D-18  6  4     9.09     0.57
  18      1.12668151    -0.34524225   -93.15074817     0.00000000    -0.00000000  0.47D-18  0.17D-18  6  6     9.60     0.57

 Norm of t1 vector:      0.06227580      S-energy:     0.00000000      T1 diagnostic:  0.01392529
                                                                       D1 diagnostic:  0.02710811

 Doubles amplitudes (print threshold =  0.500E-01):

         I         J         SYM. A    SYM. B    A         B      T(IJ, AB)

         4         4         1         1         2         2     -0.05954239
         5         5         2         2         1         1     -0.05961871


 Total CPU time for triples:      4.22 sec


 RESULTS
 =======

  Reference energy                    -92.805505928795
  CCSD singlet pair energy             -0.239370271439
  CCSD triplet pair energy             -0.105871973894
  CCSD correlation energy              -0.345242245322

  Triples (T) contribution             -0.017144475985
  Total correlation energy             -0.362386721307

  CCSD total energy                   -93.150748174117
  CCSD[T] energy                      -93.168603287322
  CCSD-T energy                       -93.167541577128
 !CCSD(T) total energy                -93.167892650102

 Timing summary (sec):

 STEP                 CPU(USER)    SYS     CPU(TOT)    WALL
 Transformation          0.62      0.13      0.75      0.86
 CCSD iterations         8.98      1.34     10.32     10.31
 Triples                 4.22      0.13      4.35      4.35

 Program statistics:

 Available memory in ccsd:               994999800
 Min. memory needed in ccsd:                705325
 Max. memory used in ccsd:                  840968
 Max. memory used in cckext:               1345378 (18 integral passes)



 **********************************************************************************************************************************
 DATASETS  * FILE   NREC   LENGTH (MB)   RECORD NAMES
              1      20      480.95       500      610      700      900      950      970     1000      129      960     1100   
                                          VAR    BASINP    GEOM    SYMINP    ZMAT    AOBASIS   BASIS     P2S    ABASIS      S 
                                         1400     1410     1200     1210     1080     1600     1650     1300     1700     1380   
                                           T        V       H0       H01     AOSYM     SMH    MOLCAS    ERIS     OPER     JKOP   

              2       4        3.13       700     1000      520     2100   
                                         GEOM     BASIS   MCVARS     RHF  

 PROGRAMS   *        TOTAL   CCSD(T)        HF       INT
 CPU TIMES  *        23.11     13.86      5.23      3.94
 REAL TIME  *        27.34 SEC
 DISK USED  *         1.38 GB      
 **********************************************************************************************************************************

 CCSD(T)/USERDEF energy=    -93.167892650102

        CCSD(T)         HF-SCF  
    -93.16789265    -92.80550593
 **********************************************************************************************************************************
 Molpro calculation terminated
 Variable memory released
