
 Primary working directories    : /tmp/r2666/232691.maple
 Secondary working directories  : /tmp/r2666/232691.maple
 Wavefunction directory         : /ddn/home4/r2666/wfu/
 Main file repository           : /tmp/r2666/232691.maple/

 SHA1      : d5ffa45e93fdbca01ffc919aa182cfdae0147319
 NAME      : 2015.1.35
 ARCHNAME  : linux/x86_64
 FC        : /opt/intel/composer_xe_2015.1.133/bin/intel64/ifort
 BLASLIB   : -Wl,-_start-group /opt/intel/mkl/lib/intel64/libmkl_intel_ilp64.a /opt/intel/mkl/lib/intel64/libmkl_intel_thread.a /opt/intel/mkl/lib/intel64/libmkl_core.a -Wl,-_end-group
 id        : olemiss

 Nodes     nprocs
 cn052        1

 Using customized tuning parameters: mindgm=1; mindgv=20; mindgc=4; mindgr=1; noblas=0; minvec=7
 default implementation of scratch files=df  

 ***,hcn CCSD(T)/TZ-F12 QFF
 memory, 995, m;
 gthresh,energy=1.d-12,zero=1.d-22,oneint=1.d-22,twoint=1.d-22;
 gthresh,optgrad=1.d-8,optstep=1.d-8;
 nocompress;
 geomtyp=xyz
 bohr
 geometry={
 3
         25        25
 N        0.0000000000        0.0000000000        1.1215518477
 C        0.0000000000        0.0000000000       -1.0572978193
 H        0.0000000000        0.0000000000       -3.0613240104
 }
 
 basis={
 default=aug-cc-pvtz
 s,C,8236.0,1235.0,280.8, 79.27,25.59, 8.997,3.319
 s,C,0.9059,0.3643,0.1285000
 p,C,56.0,18.71,4.133,0.2827,0.3827,0.1209
 d,C,30.0,10.0,3.3,1.097,0.318
 f,C,7.0,2.3,0.7610
 s,N,11420.0,1712.0,389.3,110.0,35.57,12.54,4.644
 s,N,1.293,0.5118,0.1787
 p,N,79.89,26.63,5.948,1.742,0.555,0.1725
 d,N,45.0,15.0,5.0,1.654,0.469
 f,N,9.9,3.3,1.093
 s,O,15330.0,2299.0,522.4,147.3,47.55,16.76,6.207
 s,O,1.752,0.6882,0.2384
 p,O,103.5,34.46,7.749,2.28,0.7156,0.214
 d,O,63.0,21.0,7.0,2.314,0.645
 f,O,12.9,4.3,1.428
 s,mg,164900.0,24710.0,5628.0,1596.0,521.0;
 s,mg,188.0,73.01,29.90,12.54,4.306,1.826;
 s,mg,0.7417,0.0761,0.145,0.033,0.0129;
 p,mg,950.70,316.90,74.86,23.72,8.669,3.363;
 p,mg,1.310,0.4911,0.2364,0.08733,0.03237,0.00745;
 d,mg,1.601,0.686,0.126,0.294,0.0468;
 f,mg,1.372,0.588,0.094,0.252;
 }
   {hf,maxit=500;accu,20;}
 {ccsd(t),nocheck,maxit=250;orbital,IGNORE_ERROR;}

 Variables initialized (889), CPU time= 0.00 sec
 Commands  initialized (702), CPU time= 0.01 sec, 572 directives.
 Default parameters read. Elapsed time= 0.06 sec

 Checking input...
 Passed
1


                                         ***  PROGRAM SYSTEM MOLPRO  ***
                                       Copyright, TTI GmbH Stuttgart, 2015
                                    Version 2015.1 linked Jul  9 2018 13:16:40


 **********************************************************************************************************************************
 LABEL *   hcn CCSD(T)/TZ-F12 QFF                                                        
  64 bit serial version                                                                  DATE: 06-Feb-20          TIME: 09:54:47  
 **********************************************************************************************************************************

 SHA1:             d5ffa45e93fdbca01ffc919aa182cfdae0147319
 **********************************************************************************************************************************

 THRESHOLDS:

 ZERO    =  1.00D-22  ONEINT  =  1.00D-22  TWOINT  =  1.00D-22  PREFAC  =  1.00D-14  LOCALI  =  1.00D-09  EORDER  =  1.00D-04
 ENERGY  =  1.00D-12  ETEST   =  0.00D+00  EDENS   =  0.00D+00  THRDEDEF=  1.00D-06  GRADIENT=  1.00D-02  STEP    =  1.00D-03
 ORBITAL =  1.00D-05  CIVEC   =  1.00D-05  COEFF   =  1.00D-04  PRINTCI =  5.00D-02  PUNCHCI =  9.90D+01  OPTGRAD =  3.00D-04
 OPTENERG=  1.00D-06  OPTSTEP =  3.00D-04  THRGRAD =  1.00D-10  COMPRESS=  1.00D-11  VARMIN  =  1.00D-07  VARMAX  =  1.00D-03
 THRDOUB =  0.00D+00  THRDIV  =  1.00D-05  THRRED  =  1.00D-07  THRPSP  =  1.00D+00  THRDC   =  1.00D-10  THRCS   =  1.00D-10
 THRNRM  =  1.00D-08  THREQ   =  0.00D+00  THRDE   =  1.00D+00  THRREF  =  1.00D-05  SPARFAC =  1.00D+00  THRDLP  =  1.00D-07
 THRDIA  =  1.00D-10  THRDLS  =  1.00D-07  THRGPS  =  0.00D+00  THRKEX  =  0.00D+00  THRDIS  =  2.00D-01  THRVAR  =  1.00D-10
 THRLOC  =  1.00D-06  THRGAP  =  1.00D-06  THRLOCT = -1.00D+00  THRGAPT = -1.00D+00  THRORB  =  1.00D-06  THRMLTP =  0.00D+00
 THRCPQCI=  1.00D-10  KEXTA   =  0.00D+00  THRCOARS=  0.00D+00  SYMTOL  =  1.00D-06  GRADTOL =  1.00D-06  THROVL  =  1.00D-08
 THRORTH =  1.00D-08  GRID    =  1.00D-06  GRIDMAX =  1.00D-03  DTMAX   =  0.00D+00  THROCCDE=  1.00D-01  THROCCDE=  1.00D-01



 THRESHOLDS:

 ZERO    =  1.00D-22  ONEINT  =  1.00D-22  TWOINT  =  1.00D-22  PREFAC  =  1.00D-14  LOCALI  =  1.00D-09  EORDER  =  1.00D-04
 ENERGY  =  1.00D-12  ETEST   =  0.00D+00  EDENS   =  0.00D+00  THRDEDEF=  1.00D-06  GRADIENT=  1.00D-02  STEP    =  1.00D-03
 ORBITAL =  1.00D-05  CIVEC   =  1.00D-05  COEFF   =  1.00D-04  PRINTCI =  5.00D-02  PUNCHCI =  9.90D+01  OPTGRAD =  1.00D-08
 OPTENERG=  1.00D-06  OPTSTEP =  1.00D-08  THRGRAD =  1.00D-10  COMPRESS=  1.00D-11  VARMIN  =  1.00D-07  VARMAX  =  1.00D-03
 THRDOUB =  0.00D+00  THRDIV  =  1.00D-05  THRRED  =  1.00D-07  THRPSP  =  1.00D+00  THRDC   =  1.00D-10  THRCS   =  1.00D-10
 THRNRM  =  1.00D-08  THREQ   =  0.00D+00  THRDE   =  1.00D+00  THRREF  =  1.00D-05  SPARFAC =  1.00D+00  THRDLP  =  1.00D-07
 THRDIA  =  1.00D-10  THRDLS  =  1.00D-07  THRGPS  =  0.00D+00  THRKEX  =  0.00D+00  THRDIS  =  2.00D-01  THRVAR  =  1.00D-10
 THRLOC  =  1.00D-06  THRGAP  =  1.00D-06  THRLOCT = -1.00D+00  THRGAPT = -1.00D+00  THRORB  =  1.00D-06  THRMLTP =  0.00D+00
 THRCPQCI=  1.00D-10  KEXTA   =  0.00D+00  THRCOARS=  0.00D+00  SYMTOL  =  1.00D-06  GRADTOL =  1.00D-06  THROVL  =  1.00D-08
 THRORTH =  1.00D-08  GRID    =  1.00D-06  GRIDMAX =  1.00D-03  DTMAX   =  0.00D+00  THROCCDE=  1.00D-01  THROCCDE=  1.00D-01



 Input parameters for SORTINT:

 COMPRESS =    0.000000
 C_FINAL  =    1.000000
 DEBUG    =   -1.000000
 C_SORT1  =    0.000000
 C_SEWARD =    0.000000
 THRESH   =    0.000000
 IO       =  molpro                                                          
 SPRI     =    0.000000
 SETTING GEOMTYP        =    XYZ
 ZUNIT=BOHR
 

 Variable memory set to  995000000 words,  buffer space   230000 words

 SETTING BASIS          =    USERDEF


 Recomputing integrals since basis changed


 Using spherical harmonics

 Library entry H      S aug-cc-pVTZ          selected for orbital group  3
 Library entry H      P aug-cc-pVTZ          selected for orbital group  3
 Library entry H      D aug-cc-pVTZ          selected for orbital group  3


 PROGRAM * SEWARD (Integral evaluation for generally contracted gaussian basis sets)     Author: Roland Lindh, 1990

 Geometry written to block  1 of record 700


 Point group  C2v 



 ATOMIC COORDINATES

 NR  ATOM    CHARGE       X              Y              Z

   1  N       7.00    0.000000000    0.000000000    1.121551848
   2  C       6.00    0.000000000    0.000000000   -1.057297819
   3  H       1.00    0.000000000    0.000000000   -3.061324010

 Bond lengths in Bohr (Angstrom)

 1-2  2.178849667  2-3  2.004026191
     ( 1.152997590)     ( 1.060484990)

 Bond angles

  1-2-3  180.00000000

 NUCLEAR CHARGE:                   14
 NUMBER OF PRIMITIVE AOS:         203
 NUMBER OF SYMMETRY AOS:          173
 NUMBER OF CONTRACTIONS:          171   (  75A1  +  39B1  +  39B2  +  18A2  )
 NUMBER OF CORE ORBITALS:           2   (   2A1  +   0B1  +   0B2  +   0A2  )
 NUMBER OF VALENCE ORBITALS:        9   (   5A1  +   2B1  +   2B2  +   0A2  )


 NUCLEAR REPULSION ENERGY   23.94368927

 EXTRA SYMMETRY OF AOS IN SYMMETRY 1:   1 1 1 1 1 1 1 1 1 1   1 1 1 1 1 1 1 2 1 2   1 2 1 2 1 2 1 2 1 2   1 2 1 1 1 1 1 1 1 1
                                        1 1 1 1 1 1 1 1 1 2   1 2 1 2 1 2 1 2 1 2   1 2 1 2 1 1 1 1 1 1   1 1 2 1 2
 EXTRA SYMMETRY OF AOS IN SYMMETRY 2:   1 1 1 1 1 1 1 1 1 1   1 1 2 1 2 1 2 1 1 1   1 1 1 1 1 1 1 1 1 2   1 2 1 2 1 1 1 1 1
 EXTRA SYMMETRY OF AOS IN SYMMETRY 3:   1 1 1 1 1 1 1 1 1 1   1 1 2 1 2 1 2 1 1 1   1 1 1 1 1 1 1 1 1 2   1 2 1 2 1 1 1 1 1

 Eigenvalues of metric

         1 0.239E-03 0.520E-03 0.898E-03 0.137E-02 0.317E-02 0.745E-02 0.991E-02 0.131E-01
         2 0.540E-02 0.156E-01 0.217E-01 0.342E-01 0.961E-01 0.112E+00 0.125E+00 0.188E+00
         3 0.540E-02 0.156E-01 0.217E-01 0.342E-01 0.961E-01 0.112E+00 0.125E+00 0.188E+00
         4 0.124E+00 0.140E+00 0.194E+00 0.255E+00 0.314E+00 0.379E+00 0.484E+00 0.597E+00


 Contracted 2-electron integrals neglected if value below      1.0D-22

       21748879. INTEGRALS WRITTEN OUT IN    5312 BLOCKS ON RECORD 1290 OF FILE 1


 NUMBER OF SORTED TWO-ELECTRON INTEGRALS:   28272141.     BUFFER LENGTH:  32768
 NUMBER OF SEGMENTS:   2  SEGMENT LENGTH:   15998211      RECORD LENGTH: 524288

 Memory used in sort:      16.56 MW

 SORT1 READ    21748879. AND WROTE    22147180. INTEGRALS IN     65 RECORDS. CPU TIME:     0.95 SEC, REAL TIME:     1.15 SEC
 SORT2 READ    22147180. AND WROTE    28272141. INTEGRALS IN      2 RECORDS. CPU TIME:     0.66 SEC, REAL TIME:     0.80 SEC

 FILE SIZES:   FILE 1:   368.7 MBYTE,  FILE 4:   272.7 MBYTE,   TOTAL:    641.4 MBYTE

 OPERATOR DM      FOR CENTER  0  COORDINATES:    0.000000    0.000000    0.000000


 **********************************************************************************************************************************
 DATASETS  * FILE   NREC   LENGTH (MB)   RECORD NAMES
              1      19      213.51       500      610      700      900      950      970     1000      129      960     1100   
                                          VAR    BASINP    GEOM    SYMINP    ZMAT    AOBASIS   BASIS     P2S    ABASIS      S 
                                         1400     1410     1200     1210     1080     1600     1650     1300     1700   
                                           T        V       H0       H01     AOSYM     SMH    MOLCAS    ERIS     OPER   

 PROGRAMS   *        TOTAL       INT
 CPU TIMES  *         5.45      5.34
 REAL TIME  *         6.78 SEC
 DISK USED  *       641.75 MB      
 **********************************************************************************************************************************


 PROGRAM * RHF-SCF (CLOSED SHELL)       Authors: W. Meyer, H.-J. Werner


 NUMBER OF ELECTRONS:       7+    7-
 CONVERGENCE THRESHOLDS:    1.00E-10 (Density)    1.00E-13 (Energy)
 MAX. NUMBER OF ITERATIONS:      500
 INTERPOLATION TYPE:            DIIS
 INTERPOLATION STEPS:              2 (START)      1 (STEP)
 LEVEL SHIFTS:                  0.00 (CLOSED)  0.00 (OPEN) 



 Orbital guess generated from atomic densities. Full valence occupancy:    7   2   2   0

 Molecular orbital dump at record        2100.2

 Initial occupancy:   5   1   1   0

 ITERATION    DDIFF          GRAD             ENERGY        2-EL.EN.            DIPOLE MOMENTS         DIIS   ORB.
    1      0.000D+00      0.000D+00       -92.77161855    111.758546    0.00000    0.00000   -2.01864    0    start
    2      0.000D+00      0.909D-02       -92.78392738    110.051154    0.00000    0.00000   -0.94482    1    diag
    3      0.341D-01      0.785D-02       -92.80574259    110.977415    0.00000    0.00000   -1.44680    2    diag
    4      0.117D-01      0.567D-03       -92.80599292    110.927464    0.00000    0.00000   -1.43965    3    diag
    5      0.188D-02      0.126D-03       -92.80600740    110.935570    0.00000    0.00000   -1.43837    4    diag
    6      0.520D-03      0.328D-04       -92.80600818    110.931378    0.00000    0.00000   -1.43863    5    diag
    7      0.418D-04      0.116D-04       -92.80600827    110.932350    0.00000    0.00000   -1.43870    6    diag
    8      0.157D-04      0.233D-05       -92.80600827    110.932333    0.00000    0.00000   -1.43868    7    diag
    9      0.811D-05      0.257D-06       -92.80600827    110.932340    0.00000    0.00000   -1.43868    8    diag
   10      0.136D-05      0.287D-07       -92.80600827    110.932342    0.00000    0.00000   -1.43868    9    orth
   11      0.135D-06      0.373D-08       -92.80600827    110.932342    0.00000    0.00000   -1.43868    9    diag
   12      0.122D-07      0.389D-09       -92.80600827    110.932342    0.00000    0.00000   -1.43868    9    diag
   13      0.118D-08      0.501D-10       -92.80600827    110.932342    0.00000    0.00000   -1.43868    9    diag
   14      0.172D-09      0.718D-11       -92.80600827    110.932342    0.00000    0.00000   -1.43868    9    diag
   15      0.265D-10      0.151D-11       -92.80600827    110.932342    0.00000    0.00000   -1.43868    9    diag
   16      0.904D-11      0.405D-12       -92.80600827    110.932342    0.00000    0.00000   -1.43868    9    diag
   17      0.121D-11      0.350D-12       -92.80600827    110.932342    0.00000    0.00000   -1.43868    0    orth

 Final occupancy:   5   1   1   0

 !RHF STATE 1.1 Energy                -92.806008271020
 Nuclear energy                        23.94368927
 One-electron energy                 -172.21586836
 Two-electron energy                   55.46617082
 Virial quotient                       -1.00230444
 !RHF STATE 1.1 Dipole moment           0.00000000     0.00000000    -1.43867704
 Dipole moment /Debye                   0.00000000     0.00000000    -3.65651278

 Orbital energies:

         1.1          2.1          3.1          4.1          5.1          6.1          7.1
    -15.591174   -11.399279    -1.253932    -0.837939    -0.578224     0.032683     0.152641

         1.2          2.2          3.2
     -0.490607     0.133596     0.306401

         1.3          2.3          3.3
     -0.490607     0.133596     0.306401

         1.4          2.4
      0.682540     0.963985

 HOMO      1.2    -0.490607 =     -13.3501eV
 LUMO      6.1     0.032683 =       0.8893eV
 LUMO-HOMO         0.523290 =      14.2394eV


 **********************************************************************************************************************************
 DATASETS  * FILE   NREC   LENGTH (MB)   RECORD NAMES
              1      19      213.51       500      610      700      900      950      970     1000      129      960     1100   
                                          VAR    BASINP    GEOM    SYMINP    ZMAT    AOBASIS   BASIS     P2S    ABASIS      S 
                                         1400     1410     1200     1210     1080     1600     1650     1300     1700   
                                           T        V       H0       H01     AOSYM     SMH    MOLCAS    ERIS     OPER   

              2       4        2.98       700     1000      520     2100   
                                         GEOM     BASIS   MCVARS     RHF  

 PROGRAMS   *        TOTAL        HF       INT
 CPU TIMES  *         7.88      2.43      5.34
 REAL TIME  *         9.80 SEC
 DISK USED  *       641.75 MB      
 **********************************************************************************************************************************


 PROGRAM * CCSD (Closed-shell coupled cluster)     Authors: C. Hampel, H.-J. Werner, 1991, M. Deegan, P.J. Knowles, 1992


 Convergence thresholds:  THRVAR = 1.00D-08  THRDEN = 1.00D-12

 CCSD(T)     terms to be evaluated (factor= 1.000)


 Number of core orbitals:           2 (   2   0   0   0 )
 Number of closed-shell orbitals:   5 (   3   1   1   0 )
 Number of external orbitals:     164 (  70  38  38  18 )

 Molecular orbitals read from record     2100.2  Type=RHF/CANONICAL (state 1.1)

 Number of N-1 electron functions:               5
 Number of N-2 electron functions:              15
 Number of singly external CSFs:               286
 Number of doubly external CSFs:             90562
 Total number of CSFs:                       90849

 Length of J-op  integral file:               0.00 MB
 Length of K-op  integral file:               0.65 MB
 Length of 3-ext integral record:             0.00 MB

 Memory could be reduced to 9.35 Mwords without degradation in triples

 Integral transformation finished. Total CPU:   0.40 sec, npass=  1  Memory used:   1.25 MW

 Reference energy:                    -92.80600827

 MP2 singlet pair energy:              -0.21668857
 MP2 triplet pair energy:              -0.12406431
 MP2 correlation energy:               -0.34075288
 MP2 total energy:                    -93.14676115

 SCS-MP2 correlation energy:           -0.33722185   (PS=  1.200000  PT=  0.333333)
 SCS-MP2 total energy:                -93.14323012

 ITER.      SQ.NORM     CORR.ENERGY   TOTAL ENERGY   ENERGY CHANGE        DEN1      VAR(S)    VAR(P)  DIIS     TIME  TIME/IT
   1      1.11031370    -0.34398649   -93.14999476    -0.00323362     0.00855721  0.23D-02  0.26D-02  1  1     0.78     0.42
   2      1.11868735    -0.34436720   -93.15037547    -0.00038071    -0.00902310  0.75D-04  0.36D-03  2  2     1.14     0.42
   3      1.12341887    -0.34455901   -93.15056729    -0.00019182    -0.00262549  0.10D-04  0.41D-04  3  3     1.48     0.43
   4      1.12521473    -0.34462803   -93.15063630    -0.00006901    -0.00060191  0.88D-06  0.45D-05  4  4     1.87     0.43
   5      1.12573291    -0.34462658   -93.15063485     0.00000145    -0.00015740  0.13D-06  0.36D-06  5  5     2.27     0.43
   6      1.12582097    -0.34462436   -93.15063264     0.00000221    -0.00002212  0.84D-08  0.29D-07  6  6     2.66     0.43
   7      1.12582803    -0.34462577   -93.15063404    -0.00000140     0.00000018  0.11D-08  0.23D-08  6  1     3.05     0.43
   8      1.12583064    -0.34462610   -93.15063437    -0.00000033    -0.00000098  0.22D-09  0.18D-09  6  2     3.42     0.43
   9      1.12583057    -0.34462617   -93.15063444    -0.00000007     0.00000019  0.17D-10  0.15D-10  6  3     3.83     0.43
  10      1.12583062    -0.34462618   -93.15063445    -0.00000001     0.00000005  0.41D-11  0.19D-11  6  4     4.22     0.43
  11      1.12583065    -0.34462619   -93.15063446    -0.00000000     0.00000000  0.44D-12  0.36D-12  6  5     4.60     0.44
  12      1.12583060    -0.34462619   -93.15063446    -0.00000000     0.00000003  0.38D-13  0.92D-13  6  6     4.97     0.44
  13      1.12583057    -0.34462619   -93.15063446    -0.00000000     0.00000001  0.19D-14  0.11D-13  6  1     5.32     0.44
  14      1.12583055    -0.34462619   -93.15063446    -0.00000000     0.00000001  0.44D-15  0.15D-14  6  2     5.70     0.43
  15      1.12583054    -0.34462619   -93.15063446    -0.00000000     0.00000000  0.77D-16  0.23D-15  6  3     6.06     0.43
  16      1.12583054    -0.34462619   -93.15063446    -0.00000000     0.00000000  0.65D-17  0.98D-17  6  5     6.44     0.43
  17      1.12583054    -0.34462619   -93.15063446    -0.00000000     0.00000000  0.55D-18  0.49D-18  6  4     6.81     0.43
  18      1.12583054    -0.34462619   -93.15063446     0.00000000    -0.00000000  0.86D-19  0.74D-19  6  6     7.19     0.43
  19      1.12583054    -0.34462619   -93.15063446     0.00000000     0.00000000  0.15D-19  0.48D-20  6  1     7.57     0.43
  20      1.12583054    -0.34462619   -93.15063446    -0.00000000     0.00000000  0.19D-20  0.16D-20  6  2     7.97     0.43

 Norm of t1 vector:      0.06165040      S-energy:     0.00000000      T1 diagnostic:  0.01378545
                                                                       D1 diagnostic:  0.02680599

 Doubles amplitudes (print threshold =  0.500E-01):

         I         J         SYM. A    SYM. B    A         B      T(IJ, AB)

         4         4         2         2         1         1     -0.05855411
         5         5         3         3         1         1     -0.05855411


 Total CPU time for triples:      2.60 sec


 RESULTS
 =======

  Reference energy                    -92.806008271020
  CCSD singlet pair energy             -0.238862020619
  CCSD triplet pair energy             -0.105764167533
  CCSD correlation energy              -0.344626188151

  Triples (T) contribution             -0.017004378530
  Total correlation energy             -0.361630566681

  CCSD total energy                   -93.150634459171
  CCSD[T] energy                      -93.168333730322
  CCSD-T energy                       -93.167294924957
 !CCSD(T) total energy                -93.167638837701

 Timing summary (sec):

 STEP                 CPU(USER)    SYS     CPU(TOT)    WALL
 Transformation          0.41      0.08      0.49      0.49
 CCSD iterations         7.57      1.13      8.70      8.70
 Triples                 2.60      0.08      2.68      2.68

 Program statistics:

 Available memory in ccsd:               994999800
 Min. memory needed in ccsd:                377822
 Max. memory used in ccsd:                  449387
 Max. memory used in cckext:                547289 (20 integral passes)



 **********************************************************************************************************************************
 DATASETS  * FILE   NREC   LENGTH (MB)   RECORD NAMES
              1      20      238.69       500      610      700      900      950      970     1000      129      960     1100   
                                          VAR    BASINP    GEOM    SYMINP    ZMAT    AOBASIS   BASIS     P2S    ABASIS      S 
                                         1400     1410     1200     1210     1080     1600     1650     1300     1700     1380   
                                           T        V       H0       H01     AOSYM     SMH    MOLCAS    ERIS     OPER     JKOP   

              2       4        2.98       700     1000      520     2100   
                                         GEOM     BASIS   MCVARS     RHF  

 PROGRAMS   *        TOTAL   CCSD(T)        HF       INT
 CPU TIMES  *        18.49     10.60      2.43      5.34
 REAL TIME  *        21.71 SEC
 DISK USED  *       641.75 MB      
 **********************************************************************************************************************************

 CCSD(T)/USERDEF energy=    -93.167638837701

        CCSD(T)         HF-SCF  
    -93.16763884    -92.80600827
 **********************************************************************************************************************************
 Molpro calculation terminated
 Variable memory released
