
 Primary working directories    : /tmp/r2666/232685.maple
 Secondary working directories  : /tmp/r2666/232685.maple
 Wavefunction directory         : /ddn/home4/r2666/wfu/
 Main file repository           : /tmp/r2666/232685.maple/

 SHA1      : d5ffa45e93fdbca01ffc919aa182cfdae0147319
 NAME      : 2015.1.35
 ARCHNAME  : linux/x86_64
 FC        : /opt/intel/composer_xe_2015.1.133/bin/intel64/ifort
 BLASLIB   : -Wl,-_start-group /opt/intel/mkl/lib/intel64/libmkl_intel_ilp64.a /opt/intel/mkl/lib/intel64/libmkl_intel_thread.a /opt/intel/mkl/lib/intel64/libmkl_core.a -Wl,-_end-group
 id        : olemiss

 Nodes     nprocs
 cn075        1

 Using customized tuning parameters: mindgm=1; mindgv=20; mindgc=4; mindgr=1; noblas=0; minvec=7
 default implementation of scratch files=df  

 ***,hcn CCSD(T)/TZ-F12 QFF
 memory, 995, m;
 gthresh,energy=1.d-12,zero=1.d-22,oneint=1.d-22,twoint=1.d-22;
 gthresh,optgrad=1.d-8,optstep=1.d-8;
 nocompress;
 geomtyp=xyz
 bohr
 geometry={
 3
         19        19
 N        0.0000000000        0.0000000000        1.1247013910
 C        0.0000000000        0.0000000000       -1.0446996461
 H        0.0000000000        0.0000000000       -3.0770717269
 }
 
 basis={
 default=aug-cc-pvtz
 s,C,8236.0,1235.0,280.8, 79.27,25.59, 8.997,3.319
 s,C,0.9059,0.3643,0.1285000
 p,C,56.0,18.71,4.133,0.2827,0.3827,0.1209
 d,C,30.0,10.0,3.3,1.097,0.318
 f,C,7.0,2.3,0.7610
 s,N,11420.0,1712.0,389.3,110.0,35.57,12.54,4.644
 s,N,1.293,0.5118,0.1787
 p,N,79.89,26.63,5.948,1.742,0.555,0.1725
 d,N,45.0,15.0,5.0,1.654,0.469
 f,N,9.9,3.3,1.093
 s,O,15330.0,2299.0,522.4,147.3,47.55,16.76,6.207
 s,O,1.752,0.6882,0.2384
 p,O,103.5,34.46,7.749,2.28,0.7156,0.214
 d,O,63.0,21.0,7.0,2.314,0.645
 f,O,12.9,4.3,1.428
 s,mg,164900.0,24710.0,5628.0,1596.0,521.0;
 s,mg,188.0,73.01,29.90,12.54,4.306,1.826;
 s,mg,0.7417,0.0761,0.145,0.033,0.0129;
 p,mg,950.70,316.90,74.86,23.72,8.669,3.363;
 p,mg,1.310,0.4911,0.2364,0.08733,0.03237,0.00745;
 d,mg,1.601,0.686,0.126,0.294,0.0468;
 f,mg,1.372,0.588,0.094,0.252;
 }
   {hf,maxit=500;accu,20;}
 {ccsd(t),nocheck,maxit=250;orbital,IGNORE_ERROR;}

 Variables initialized (889), CPU time= 0.00 sec
 Commands  initialized (702), CPU time= 0.01 sec, 572 directives.
 Default parameters read. Elapsed time= 0.04 sec

 Checking input...
 Passed
1


                                         ***  PROGRAM SYSTEM MOLPRO  ***
                                       Copyright, TTI GmbH Stuttgart, 2015
                                    Version 2015.1 linked Jul  9 2018 13:16:40


 **********************************************************************************************************************************
 LABEL *   hcn CCSD(T)/TZ-F12 QFF                                                        
  64 bit serial version                                                                  DATE: 06-Feb-20          TIME: 09:54:47  
 **********************************************************************************************************************************

 SHA1:             d5ffa45e93fdbca01ffc919aa182cfdae0147319
 **********************************************************************************************************************************

 THRESHOLDS:

 ZERO    =  1.00D-22  ONEINT  =  1.00D-22  TWOINT  =  1.00D-22  PREFAC  =  1.00D-14  LOCALI  =  1.00D-09  EORDER  =  1.00D-04
 ENERGY  =  1.00D-12  ETEST   =  0.00D+00  EDENS   =  0.00D+00  THRDEDEF=  1.00D-06  GRADIENT=  1.00D-02  STEP    =  1.00D-03
 ORBITAL =  1.00D-05  CIVEC   =  1.00D-05  COEFF   =  1.00D-04  PRINTCI =  5.00D-02  PUNCHCI =  9.90D+01  OPTGRAD =  3.00D-04
 OPTENERG=  1.00D-06  OPTSTEP =  3.00D-04  THRGRAD =  1.00D-10  COMPRESS=  1.00D-11  VARMIN  =  1.00D-07  VARMAX  =  1.00D-03
 THRDOUB =  0.00D+00  THRDIV  =  1.00D-05  THRRED  =  1.00D-07  THRPSP  =  1.00D+00  THRDC   =  1.00D-10  THRCS   =  1.00D-10
 THRNRM  =  1.00D-08  THREQ   =  0.00D+00  THRDE   =  1.00D+00  THRREF  =  1.00D-05  SPARFAC =  1.00D+00  THRDLP  =  1.00D-07
 THRDIA  =  1.00D-10  THRDLS  =  1.00D-07  THRGPS  =  0.00D+00  THRKEX  =  0.00D+00  THRDIS  =  2.00D-01  THRVAR  =  1.00D-10
 THRLOC  =  1.00D-06  THRGAP  =  1.00D-06  THRLOCT = -1.00D+00  THRGAPT = -1.00D+00  THRORB  =  1.00D-06  THRMLTP =  0.00D+00
 THRCPQCI=  1.00D-10  KEXTA   =  0.00D+00  THRCOARS=  0.00D+00  SYMTOL  =  1.00D-06  GRADTOL =  1.00D-06  THROVL  =  1.00D-08
 THRORTH =  1.00D-08  GRID    =  1.00D-06  GRIDMAX =  1.00D-03  DTMAX   =  0.00D+00  THROCCDE=  1.00D-01  THROCCDE=  1.00D-01



 THRESHOLDS:

 ZERO    =  1.00D-22  ONEINT  =  1.00D-22  TWOINT  =  1.00D-22  PREFAC  =  1.00D-14  LOCALI  =  1.00D-09  EORDER  =  1.00D-04
 ENERGY  =  1.00D-12  ETEST   =  0.00D+00  EDENS   =  0.00D+00  THRDEDEF=  1.00D-06  GRADIENT=  1.00D-02  STEP    =  1.00D-03
 ORBITAL =  1.00D-05  CIVEC   =  1.00D-05  COEFF   =  1.00D-04  PRINTCI =  5.00D-02  PUNCHCI =  9.90D+01  OPTGRAD =  1.00D-08
 OPTENERG=  1.00D-06  OPTSTEP =  1.00D-08  THRGRAD =  1.00D-10  COMPRESS=  1.00D-11  VARMIN  =  1.00D-07  VARMAX  =  1.00D-03
 THRDOUB =  0.00D+00  THRDIV  =  1.00D-05  THRRED  =  1.00D-07  THRPSP  =  1.00D+00  THRDC   =  1.00D-10  THRCS   =  1.00D-10
 THRNRM  =  1.00D-08  THREQ   =  0.00D+00  THRDE   =  1.00D+00  THRREF  =  1.00D-05  SPARFAC =  1.00D+00  THRDLP  =  1.00D-07
 THRDIA  =  1.00D-10  THRDLS  =  1.00D-07  THRGPS  =  0.00D+00  THRKEX  =  0.00D+00  THRDIS  =  2.00D-01  THRVAR  =  1.00D-10
 THRLOC  =  1.00D-06  THRGAP  =  1.00D-06  THRLOCT = -1.00D+00  THRGAPT = -1.00D+00  THRORB  =  1.00D-06  THRMLTP =  0.00D+00
 THRCPQCI=  1.00D-10  KEXTA   =  0.00D+00  THRCOARS=  0.00D+00  SYMTOL  =  1.00D-06  GRADTOL =  1.00D-06  THROVL  =  1.00D-08
 THRORTH =  1.00D-08  GRID    =  1.00D-06  GRIDMAX =  1.00D-03  DTMAX   =  0.00D+00  THROCCDE=  1.00D-01  THROCCDE=  1.00D-01



 Input parameters for SORTINT:

 COMPRESS =    0.000000
 C_FINAL  =    1.000000
 DEBUG    =   -1.000000
 C_SORT1  =    0.000000
 C_SEWARD =    0.000000
 THRESH   =    0.000000
 IO       =  molpro                                                          
 SPRI     =    0.000000
 SETTING GEOMTYP        =    XYZ
 ZUNIT=BOHR
 

 Variable memory set to  995000000 words,  buffer space   230000 words

 SETTING BASIS          =    USERDEF


 Recomputing integrals since basis changed


 Using spherical harmonics

 Library entry H      S aug-cc-pVTZ          selected for orbital group  3
 Library entry H      P aug-cc-pVTZ          selected for orbital group  3
 Library entry H      D aug-cc-pVTZ          selected for orbital group  3


 PROGRAM * SEWARD (Integral evaluation for generally contracted gaussian basis sets)     Author: Roland Lindh, 1990

 Geometry written to block  1 of record 700


 Point group  C2v 



 ATOMIC COORDINATES

 NR  ATOM    CHARGE       X              Y              Z

   1  N       7.00    0.000000000    0.000000000    1.124701391
   2  C       6.00    0.000000000    0.000000000   -1.044699646
   3  H       1.00    0.000000000    0.000000000   -3.077071727

 Bond lengths in Bohr (Angstrom)

 1-2  2.169401037  2-3  2.032372081
     ( 1.147997590)     ( 1.075484989)

 Bond angles

  1-2-3  180.00000000

 NUCLEAR CHARGE:                   14
 NUMBER OF PRIMITIVE AOS:         203
 NUMBER OF SYMMETRY AOS:          173
 NUMBER OF CONTRACTIONS:          171   (  75A1  +  39B1  +  39B2  +  18A2  )
 NUMBER OF CORE ORBITALS:           2   (   2A1  +   0B1  +   0B2  +   0A2  )
 NUMBER OF VALENCE ORBITALS:        9   (   5A1  +   2B1  +   2B2  +   0A2  )


 NUCLEAR REPULSION ENERGY   23.97836117

 EXTRA SYMMETRY OF AOS IN SYMMETRY 1:   1 1 1 1 1 1 1 1 1 1   1 1 1 1 1 1 1 2 1 2   1 2 1 2 1 2 1 2 1 2   1 2 1 1 1 1 1 1 1 1
                                        1 1 1 1 1 1 1 1 1 2   1 2 1 2 1 2 1 2 1 2   1 2 1 2 1 1 1 1 1 1   1 1 2 1 2
 EXTRA SYMMETRY OF AOS IN SYMMETRY 2:   1 1 1 1 1 1 1 1 1 1   1 1 2 1 2 1 2 1 1 1   1 1 1 1 1 1 1 1 1 2   1 2 1 2 1 1 1 1 1
 EXTRA SYMMETRY OF AOS IN SYMMETRY 3:   1 1 1 1 1 1 1 1 1 1   1 1 2 1 2 1 2 1 1 1   1 1 1 1 1 1 1 1 1 2   1 2 1 2 1 1 1 1 1

 Eigenvalues of metric

         1 0.251E-03 0.514E-03 0.925E-03 0.140E-02 0.318E-02 0.775E-02 0.102E-01 0.133E-01
         2 0.541E-02 0.157E-01 0.225E-01 0.350E-01 0.971E-01 0.113E+00 0.125E+00 0.188E+00
         3 0.541E-02 0.157E-01 0.225E-01 0.350E-01 0.971E-01 0.113E+00 0.125E+00 0.188E+00
         4 0.125E+00 0.140E+00 0.194E+00 0.258E+00 0.314E+00 0.379E+00 0.484E+00 0.598E+00


 Contracted 2-electron integrals neglected if value below      1.0D-22

       21774568. INTEGRALS WRITTEN OUT IN    5318 BLOCKS ON RECORD 1290 OF FILE 1


 NUMBER OF SORTED TWO-ELECTRON INTEGRALS:   28272141.     BUFFER LENGTH:  32768
 NUMBER OF SEGMENTS:   2  SEGMENT LENGTH:   15998211      RECORD LENGTH: 524288

 Memory used in sort:      16.56 MW

 SORT1 READ    21774568. AND WROTE    22173344. INTEGRALS IN     65 RECORDS. CPU TIME:     0.52 SEC, REAL TIME:     0.67 SEC
 SORT2 READ    22173344. AND WROTE    28272141. INTEGRALS IN      2 RECORDS. CPU TIME:     0.41 SEC, REAL TIME:     0.55 SEC

 FILE SIZES:   FILE 1:   369.1 MBYTE,  FILE 4:   272.7 MBYTE,   TOTAL:    641.8 MBYTE

 OPERATOR DM      FOR CENTER  0  COORDINATES:    0.000000    0.000000    0.000000


 **********************************************************************************************************************************
 DATASETS  * FILE   NREC   LENGTH (MB)   RECORD NAMES
              1      19      213.65       500      610      700      900      950      970     1000      129      960     1100   
                                          VAR    BASINP    GEOM    SYMINP    ZMAT    AOBASIS   BASIS     P2S    ABASIS      S 
                                         1400     1410     1200     1210     1080     1600     1650     1300     1700   
                                           T        V       H0       H01     AOSYM     SMH    MOLCAS    ERIS     OPER   

 PROGRAMS   *        TOTAL       INT
 CPU TIMES  *         3.74      3.64
 REAL TIME  *         4.87 SEC
 DISK USED  *       642.14 MB      
 **********************************************************************************************************************************


 PROGRAM * RHF-SCF (CLOSED SHELL)       Authors: W. Meyer, H.-J. Werner


 NUMBER OF ELECTRONS:       7+    7-
 CONVERGENCE THRESHOLDS:    1.00E-10 (Density)    1.00E-13 (Energy)
 MAX. NUMBER OF ITERATIONS:      500
 INTERPOLATION TYPE:            DIIS
 INTERPOLATION STEPS:              2 (START)      1 (STEP)
 LEVEL SHIFTS:                  0.00 (CLOSED)  0.00 (OPEN) 



 Orbital guess generated from atomic densities. Full valence occupancy:    7   2   2   0

 Molecular orbital dump at record        2100.2

 Initial occupancy:   5   1   1   0

 ITERATION    DDIFF          GRAD             ENERGY        2-EL.EN.            DIPOLE MOMENTS         DIIS   ORB.
    1      0.000D+00      0.000D+00       -92.77174124    111.892278    0.00000    0.00000   -2.03279    0    start
    2      0.000D+00      0.920D-02       -92.78445503    110.129427    0.00000    0.00000   -0.95448    1    diag
    3      0.343D-01      0.791D-02       -92.80649878    111.069428    0.00000    0.00000   -1.45453    2    diag
    4      0.118D-01      0.560D-03       -92.80674445    111.022659    0.00000    0.00000   -1.44725    3    diag
    5      0.185D-02      0.124D-03       -92.80675896    111.029879    0.00000    0.00000   -1.44601    4    diag
    6      0.521D-03      0.325D-04       -92.80675971    111.025905    0.00000    0.00000   -1.44631    5    diag
    7      0.398D-04      0.115D-04       -92.80675980    111.026922    0.00000    0.00000   -1.44638    6    diag
    8      0.155D-04      0.230D-05       -92.80675980    111.026901    0.00000    0.00000   -1.44636    7    diag
    9      0.797D-05      0.253D-06       -92.80675980    111.026909    0.00000    0.00000   -1.44636    8    diag
   10      0.135D-05      0.281D-07       -92.80675980    111.026910    0.00000    0.00000   -1.44636    9    orth
   11      0.132D-06      0.365D-08       -92.80675980    111.026910    0.00000    0.00000   -1.44636    9    diag
   12      0.119D-07      0.387D-09       -92.80675980    111.026910    0.00000    0.00000   -1.44636    9    diag
   13      0.115D-08      0.498D-10       -92.80675980    111.026910    0.00000    0.00000   -1.44636    9    diag
   14      0.175D-09      0.765D-11       -92.80675980    111.026910    0.00000    0.00000   -1.44636    9    diag
   15      0.287D-10      0.155D-11       -92.80675980    111.026910    0.00000    0.00000   -1.44636    9    diag
   16      0.840D-11      0.487D-12       -92.80675980    111.026910    0.00000    0.00000   -1.44636    9    diag
   17      0.113D-11      0.302D-12       -92.80675980    111.026910    0.00000    0.00000   -1.44636    9    diag
   18      0.416D-12      0.434D-12       -92.80675980    111.026910    0.00000    0.00000   -1.44636    0    orth

 Final occupancy:   5   1   1   0

 !RHF STATE 1.1 Energy                -92.806759799913
 Nuclear energy                        23.97836117
 One-electron energy                 -172.29857598
 Two-electron energy                   55.51345501
 Virial quotient                       -1.00225298
 !RHF STATE 1.1 Dipole moment           0.00000000     0.00000000    -1.44635790
 Dipole moment /Debye                   0.00000000     0.00000000    -3.67603430

 Orbital energies:

         1.1          2.1          3.1          4.1          5.1          6.1          7.1
    -15.589079   -11.398228    -1.256081    -0.831463    -0.577458     0.032638     0.150623

         1.2          2.2          3.2
     -0.491762     0.134574     0.307439

         1.3          2.3          3.3
     -0.491762     0.134574     0.307439

         1.4          2.4
      0.682832     0.962136

 HOMO      1.2    -0.491762 =     -13.3815eV
 LUMO      6.1     0.032638 =       0.8881eV
 LUMO-HOMO         0.524399 =      14.2696eV


 **********************************************************************************************************************************
 DATASETS  * FILE   NREC   LENGTH (MB)   RECORD NAMES
              1      19      213.65       500      610      700      900      950      970     1000      129      960     1100   
                                          VAR    BASINP    GEOM    SYMINP    ZMAT    AOBASIS   BASIS     P2S    ABASIS      S 
                                         1400     1410     1200     1210     1080     1600     1650     1300     1700   
                                           T        V       H0       H01     AOSYM     SMH    MOLCAS    ERIS     OPER   

              2       4        2.98       700     1000      520     2100   
                                         GEOM     BASIS   MCVARS     RHF  

 PROGRAMS   *        TOTAL        HF       INT
 CPU TIMES  *         5.86      2.12      3.64
 REAL TIME  *         7.36 SEC
 DISK USED  *       642.14 MB      
 **********************************************************************************************************************************


 PROGRAM * CCSD (Closed-shell coupled cluster)     Authors: C. Hampel, H.-J. Werner, 1991, M. Deegan, P.J. Knowles, 1992


 Convergence thresholds:  THRVAR = 1.00D-08  THRDEN = 1.00D-12

 CCSD(T)     terms to be evaluated (factor= 1.000)


 Number of core orbitals:           2 (   2   0   0   0 )
 Number of closed-shell orbitals:   5 (   3   1   1   0 )
 Number of external orbitals:     164 (  70  38  38  18 )

 Molecular orbitals read from record     2100.2  Type=RHF/CANONICAL (state 1.1)

 Number of N-1 electron functions:               5
 Number of N-2 electron functions:              15
 Number of singly external CSFs:               286
 Number of doubly external CSFs:             90562
 Total number of CSFs:                       90849

 Length of J-op  integral file:               0.00 MB
 Length of K-op  integral file:               0.65 MB
 Length of 3-ext integral record:             0.00 MB

 Memory could be reduced to 9.35 Mwords without degradation in triples

 Integral transformation finished. Total CPU:   0.24 sec, npass=  1  Memory used:   1.25 MW

 Reference energy:                    -92.80675980

 MP2 singlet pair energy:              -0.21632889
 MP2 triplet pair energy:              -0.12373513
 MP2 correlation energy:               -0.34006402
 MP2 total energy:                    -93.14682382

 SCS-MP2 correlation energy:           -0.33658542   (PS=  1.200000  PT=  0.333333)
 SCS-MP2 total energy:                -93.14334522

 ITER.      SQ.NORM     CORR.ENERGY   TOTAL ENERGY   ENERGY CHANGE        DEN1      VAR(S)    VAR(P)  DIIS     TIME  TIME/IT
   1      1.10999657    -0.34352330   -93.15028310    -0.00345928     0.00820163  0.22D-02  0.26D-02  1  1     0.49     0.29
   2      1.11831363    -0.34394422   -93.15070402    -0.00042092    -0.00895366  0.73D-04  0.36D-03  2  2     0.75     0.29
   3      1.12301303    -0.34413664   -93.15089644    -0.00019243    -0.00261552  0.10D-04  0.39D-04  3  3     1.02     0.29
   4      1.12477826    -0.34420387   -93.15096367    -0.00006722    -0.00059448  0.88D-06  0.44D-05  4  4     1.29     0.29
   5      1.12528331    -0.34420270   -93.15096250     0.00000116    -0.00015321  0.14D-06  0.35D-06  5  5     1.55     0.29
   6      1.12537135    -0.34420041   -93.15096021     0.00000229    -0.00002233  0.92D-08  0.28D-07  6  6     1.81     0.29
   7      1.12537842    -0.34420172   -93.15096152    -0.00000131     0.00000021  0.14D-08  0.23D-08  6  1     2.07     0.29
   8      1.12538119    -0.34420201   -93.15096181    -0.00000030    -0.00000102  0.28D-09  0.18D-09  6  2     2.32     0.30
   9      1.12538119    -0.34420208   -93.15096188    -0.00000006     0.00000017  0.26D-10  0.18D-10  6  3     2.58     0.30
  10      1.12538127    -0.34420209   -93.15096189    -0.00000001     0.00000005  0.61D-11  0.26D-11  6  4     2.86     0.30
  11      1.12538132    -0.34420209   -93.15096189    -0.00000000     0.00000000  0.50D-12  0.51D-12  6  5     3.15     0.30
  12      1.12538127    -0.34420209   -93.15096189    -0.00000000     0.00000003  0.33D-13  0.12D-12  6  6     3.43     0.30
  13      1.12538123    -0.34420209   -93.15096189    -0.00000000     0.00000001  0.23D-14  0.15D-13  6  1     3.71     0.30
  14      1.12538121    -0.34420209   -93.15096189    -0.00000000     0.00000001  0.72D-15  0.19D-14  6  2     3.97     0.30
  15      1.12538120    -0.34420209   -93.15096189    -0.00000000     0.00000000  0.12D-15  0.29D-15  6  3     4.26     0.30
  16      1.12538120    -0.34420209   -93.15096189    -0.00000000     0.00000000  0.84D-17  0.15D-16  6  5     4.54     0.30
  17      1.12538120    -0.34420209   -93.15096189     0.00000000     0.00000000  0.63D-18  0.58D-18  6  4     4.81     0.30
  18      1.12538120    -0.34420209   -93.15096189     0.00000000    -0.00000000  0.83D-19  0.81D-19  6  6     5.07     0.30
  19      1.12538120    -0.34420209   -93.15096189     0.00000000    -0.00000000  0.15D-19  0.53D-20  6  1     5.34     0.30
  20      1.12538120    -0.34420209   -93.15096189    -0.00000000     0.00000000  0.17D-20  0.18D-20  6  2     5.61     0.30
  21      1.12538120    -0.34420209   -93.15096189    -0.00000000    -0.00000000  0.39D-21  0.13D-21  6  5     5.88     0.30

 Norm of t1 vector:      0.06124465      S-energy:     0.00000000      T1 diagnostic:  0.01369472
                                                                       D1 diagnostic:  0.02649496

 Doubles amplitudes (print threshold =  0.500E-01):

         I         J         SYM. A    SYM. B    A         B      T(IJ, AB)

         4         4         2         2         1         1     -0.05729003
         5         5         3         3         1         1     -0.05729003


 Total CPU time for triples:      2.07 sec


 RESULTS
 =======

  Reference energy                    -92.806759799913
  CCSD singlet pair energy             -0.238538257664
  CCSD triplet pair energy             -0.105663836773
  CCSD correlation energy              -0.344202094437

  Triples (T) contribution             -0.016901060162
  Total correlation energy             -0.361103154599

  CCSD total energy                   -93.150961894350
  CCSD[T] energy                      -93.168544992445
  CCSD-T energy                       -93.167525376302
 !CCSD(T) total energy                -93.167862954512

 Timing summary (sec):

 STEP                 CPU(USER)    SYS     CPU(TOT)    WALL
 Transformation          0.24      0.07      0.31      0.33
 CCSD iterations         5.64      0.74      6.38      6.38
 Triples                 2.07      0.07      2.14      2.14

 Program statistics:

 Available memory in ccsd:               994999800
 Min. memory needed in ccsd:                377822
 Max. memory used in ccsd:                  449387
 Max. memory used in cckext:                547289 (21 integral passes)



 **********************************************************************************************************************************
 DATASETS  * FILE   NREC   LENGTH (MB)   RECORD NAMES
              1      20      238.83       500      610      700      900      950      970     1000      129      960     1100   
                                          VAR    BASINP    GEOM    SYMINP    ZMAT    AOBASIS   BASIS     P2S    ABASIS      S 
                                         1400     1410     1200     1210     1080     1600     1650     1300     1700     1380   
                                           T        V       H0       H01     AOSYM     SMH    MOLCAS    ERIS     OPER     JKOP   

              2       4        2.98       700     1000      520     2100   
                                         GEOM     BASIS   MCVARS     RHF  

 PROGRAMS   *        TOTAL   CCSD(T)        HF       INT
 CPU TIMES  *        13.86      8.00      2.12      3.64
 REAL TIME  *        16.55 SEC
 DISK USED  *       642.14 MB      
 **********************************************************************************************************************************

 CCSD(T)/USERDEF energy=    -93.167862954512

        CCSD(T)         HF-SCF  
    -93.16786295    -92.80675980
 **********************************************************************************************************************************
 Molpro calculation terminated
 Variable memory released
