
 Primary working directories    : /tmp/r2666/232709.maple
 Secondary working directories  : /tmp/r2666/232709.maple
 Wavefunction directory         : /ddn/home4/r2666/wfu/
 Main file repository           : /tmp/r2666/232709.maple/

 SHA1      : d5ffa45e93fdbca01ffc919aa182cfdae0147319
 NAME      : 2015.1.35
 ARCHNAME  : linux/x86_64
 FC        : /opt/intel/composer_xe_2015.1.133/bin/intel64/ifort
 BLASLIB   : -Wl,-_start-group /opt/intel/mkl/lib/intel64/libmkl_intel_ilp64.a /opt/intel/mkl/lib/intel64/libmkl_intel_thread.a /opt/intel/mkl/lib/intel64/libmkl_core.a -Wl,-_end-group
 id        : olemiss

 Nodes     nprocs
 cn088        1

 Using customized tuning parameters: mindgm=1; mindgv=20; mindgc=4; mindgr=1; noblas=0; minvec=7
 default implementation of scratch files=df  

 ***,hcn CCSD(T)/TZ-F12 QFF
 memory, 995, m;
 gthresh,energy=1.d-12,zero=1.d-22,oneint=1.d-22,twoint=1.d-22;
 gthresh,optgrad=1.d-8,optstep=1.d-8;
 nocompress;
 geomtyp=xyz
 bohr
 geometry={
 3
         43        43
 N       -0.0046370942        0.0000001456        1.1341011678
 C        0.0096550187       -0.0000000038       -1.0541504567
 H       -0.0050179246       -0.0000001418       -3.0770206931
 }
 
 basis={
 default=aug-cc-pvtz
 s,C,8236.0,1235.0,280.8, 79.27,25.59, 8.997,3.319
 s,C,0.9059,0.3643,0.1285000
 p,C,56.0,18.71,4.133,0.2827,0.3827,0.1209
 d,C,30.0,10.0,3.3,1.097,0.318
 f,C,7.0,2.3,0.7610
 s,N,11420.0,1712.0,389.3,110.0,35.57,12.54,4.644
 s,N,1.293,0.5118,0.1787
 p,N,79.89,26.63,5.948,1.742,0.555,0.1725
 d,N,45.0,15.0,5.0,1.654,0.469
 f,N,9.9,3.3,1.093
 s,O,15330.0,2299.0,522.4,147.3,47.55,16.76,6.207
 s,O,1.752,0.6882,0.2384
 p,O,103.5,34.46,7.749,2.28,0.7156,0.214
 d,O,63.0,21.0,7.0,2.314,0.645
 f,O,12.9,4.3,1.428
 s,mg,164900.0,24710.0,5628.0,1596.0,521.0;
 s,mg,188.0,73.01,29.90,12.54,4.306,1.826;
 s,mg,0.7417,0.0761,0.145,0.033,0.0129;
 p,mg,950.70,316.90,74.86,23.72,8.669,3.363;
 p,mg,1.310,0.4911,0.2364,0.08733,0.03237,0.00745;
 d,mg,1.601,0.686,0.126,0.294,0.0468;
 f,mg,1.372,0.588,0.094,0.252;
 }
   {hf,maxit=500;accu,20;}
 {ccsd(t),nocheck,maxit=250;orbital,IGNORE_ERROR;}

 Variables initialized (889), CPU time= 0.01 sec
 Commands  initialized (702), CPU time= 0.00 sec, 572 directives.
 Default parameters read. Elapsed time= 0.07 sec

 Checking input...
 Passed
1


                                         ***  PROGRAM SYSTEM MOLPRO  ***
                                       Copyright, TTI GmbH Stuttgart, 2015
                                    Version 2015.1 linked Jul  9 2018 13:16:40


 **********************************************************************************************************************************
 LABEL *   hcn CCSD(T)/TZ-F12 QFF                                                        
  64 bit serial version                                                                  DATE: 06-Feb-20          TIME: 09:55:03  
 **********************************************************************************************************************************

 SHA1:             d5ffa45e93fdbca01ffc919aa182cfdae0147319
 **********************************************************************************************************************************

 THRESHOLDS:

 ZERO    =  1.00D-22  ONEINT  =  1.00D-22  TWOINT  =  1.00D-22  PREFAC  =  1.00D-14  LOCALI  =  1.00D-09  EORDER  =  1.00D-04
 ENERGY  =  1.00D-12  ETEST   =  0.00D+00  EDENS   =  0.00D+00  THRDEDEF=  1.00D-06  GRADIENT=  1.00D-02  STEP    =  1.00D-03
 ORBITAL =  1.00D-05  CIVEC   =  1.00D-05  COEFF   =  1.00D-04  PRINTCI =  5.00D-02  PUNCHCI =  9.90D+01  OPTGRAD =  3.00D-04
 OPTENERG=  1.00D-06  OPTSTEP =  3.00D-04  THRGRAD =  1.00D-10  COMPRESS=  1.00D-11  VARMIN  =  1.00D-07  VARMAX  =  1.00D-03
 THRDOUB =  0.00D+00  THRDIV  =  1.00D-05  THRRED  =  1.00D-07  THRPSP  =  1.00D+00  THRDC   =  1.00D-10  THRCS   =  1.00D-10
 THRNRM  =  1.00D-08  THREQ   =  0.00D+00  THRDE   =  1.00D+00  THRREF  =  1.00D-05  SPARFAC =  1.00D+00  THRDLP  =  1.00D-07
 THRDIA  =  1.00D-10  THRDLS  =  1.00D-07  THRGPS  =  0.00D+00  THRKEX  =  0.00D+00  THRDIS  =  2.00D-01  THRVAR  =  1.00D-10
 THRLOC  =  1.00D-06  THRGAP  =  1.00D-06  THRLOCT = -1.00D+00  THRGAPT = -1.00D+00  THRORB  =  1.00D-06  THRMLTP =  0.00D+00
 THRCPQCI=  1.00D-10  KEXTA   =  0.00D+00  THRCOARS=  0.00D+00  SYMTOL  =  1.00D-06  GRADTOL =  1.00D-06  THROVL  =  1.00D-08
 THRORTH =  1.00D-08  GRID    =  1.00D-06  GRIDMAX =  1.00D-03  DTMAX   =  0.00D+00  THROCCDE=  1.00D-01  THROCCDE=  1.00D-01



 THRESHOLDS:

 ZERO    =  1.00D-22  ONEINT  =  1.00D-22  TWOINT  =  1.00D-22  PREFAC  =  1.00D-14  LOCALI  =  1.00D-09  EORDER  =  1.00D-04
 ENERGY  =  1.00D-12  ETEST   =  0.00D+00  EDENS   =  0.00D+00  THRDEDEF=  1.00D-06  GRADIENT=  1.00D-02  STEP    =  1.00D-03
 ORBITAL =  1.00D-05  CIVEC   =  1.00D-05  COEFF   =  1.00D-04  PRINTCI =  5.00D-02  PUNCHCI =  9.90D+01  OPTGRAD =  1.00D-08
 OPTENERG=  1.00D-06  OPTSTEP =  1.00D-08  THRGRAD =  1.00D-10  COMPRESS=  1.00D-11  VARMIN  =  1.00D-07  VARMAX  =  1.00D-03
 THRDOUB =  0.00D+00  THRDIV  =  1.00D-05  THRRED  =  1.00D-07  THRPSP  =  1.00D+00  THRDC   =  1.00D-10  THRCS   =  1.00D-10
 THRNRM  =  1.00D-08  THREQ   =  0.00D+00  THRDE   =  1.00D+00  THRREF  =  1.00D-05  SPARFAC =  1.00D+00  THRDLP  =  1.00D-07
 THRDIA  =  1.00D-10  THRDLS  =  1.00D-07  THRGPS  =  0.00D+00  THRKEX  =  0.00D+00  THRDIS  =  2.00D-01  THRVAR  =  1.00D-10
 THRLOC  =  1.00D-06  THRGAP  =  1.00D-06  THRLOCT = -1.00D+00  THRGAPT = -1.00D+00  THRORB  =  1.00D-06  THRMLTP =  0.00D+00
 THRCPQCI=  1.00D-10  KEXTA   =  0.00D+00  THRCOARS=  0.00D+00  SYMTOL  =  1.00D-06  GRADTOL =  1.00D-06  THROVL  =  1.00D-08
 THRORTH =  1.00D-08  GRID    =  1.00D-06  GRIDMAX =  1.00D-03  DTMAX   =  0.00D+00  THROCCDE=  1.00D-01  THROCCDE=  1.00D-01



 Input parameters for SORTINT:

 COMPRESS =    0.000000
 C_FINAL  =    1.000000
 DEBUG    =   -1.000000
 C_SORT1  =    0.000000
 C_SEWARD =    0.000000
 THRESH   =    0.000000
 IO       =  molpro                                                          
 SPRI     =    0.000000
 SETTING GEOMTYP        =    XYZ
 ZUNIT=BOHR
 

 Variable memory set to  995000000 words,  buffer space   230000 words

 SETTING BASIS          =    USERDEF


 Recomputing integrals since basis changed


 Using spherical harmonics

 Library entry H      S aug-cc-pVTZ          selected for orbital group  3
 Library entry H      P aug-cc-pVTZ          selected for orbital group  3
 Library entry H      D aug-cc-pVTZ          selected for orbital group  3


 PROGRAM * SEWARD (Integral evaluation for generally contracted gaussian basis sets)     Author: Roland Lindh, 1990

 Geometry written to block  1 of record 700


 Point group  Cs  



 ATOMIC COORDINATES

 NR  ATOM    CHARGE       X              Y              Z

   1  N       7.00   -0.004637094    0.000000000    1.134101168
   2  C       6.00    0.009655019    0.000000000   -1.054150457
   3  H       1.00   -0.005017925    0.000000000   -3.077020693

 Bond lengths in Bohr (Angstrom)

 1-2  2.188298297  2-3  2.022923451
     ( 1.157997589)     ( 1.070484990)

 Bond angles

  1-2-3  179.21020061

 NUCLEAR CHARGE:                   14
 NUMBER OF PRIMITIVE AOS:         203
 NUMBER OF SYMMETRY AOS:          173
 NUMBER OF CONTRACTIONS:          171   ( 114A'  +  57A"  )
 NUMBER OF CORE ORBITALS:           2   (   2A'  +   0A"  )
 NUMBER OF VALENCE ORBITALS:        9   (   7A'  +   2A"  )


 NUCLEAR REPULSION ENERGY   23.82126514


 Eigenvalues of metric

         1 0.249E-03 0.538E-03 0.929E-03 0.139E-02 0.319E-02 0.546E-02 0.771E-02 0.102E-01
         2 0.546E-02 0.160E-01 0.227E-01 0.351E-01 0.969E-01 0.113E+00 0.125E+00 0.126E+00


 Contracted 2-electron integrals neglected if value below      1.0D-22

       47934066. INTEGRALS WRITTEN OUT IN   11706 BLOCKS ON RECORD 1290 OF FILE 1


 NUMBER OF SORTED TWO-ELECTRON INTEGRALS:   55360566.     BUFFER LENGTH:  32768
 NUMBER OF SEGMENTS:   4  SEGMENT LENGTH:   15997996      RECORD LENGTH: 524288

 Memory used in sort:      16.56 MW

 SORT1 READ    47934066. AND WROTE    48388778. INTEGRALS IN    141 RECORDS. CPU TIME:     0.73 SEC, REAL TIME:     1.09 SEC
 SORT2 READ    48388778. AND WROTE    55360566. INTEGRALS IN      4 RECORDS. CPU TIME:     0.66 SEC, REAL TIME:     0.88 SEC

 FILE SIZES:   FILE 1:   787.9 MBYTE,  FILE 4:   591.4 MBYTE,   TOTAL:   1379.3 MBYTE

 OPERATOR DM      FOR CENTER  0  COORDINATES:    0.000000    0.000000    0.000000


 **********************************************************************************************************************************
 DATASETS  * FILE   NREC   LENGTH (MB)   RECORD NAMES
              1      19      432.30       500      610      700      900      950      970     1000      129      960     1100   
                                          VAR    BASINP    GEOM    SYMINP    ZMAT    AOBASIS   BASIS     P2S    ABASIS      S 
                                         1400     1410     1200     1210     1080     1600     1650     1300     1700   
                                           T        V       H0       H01     AOSYM     SMH    MOLCAS    ERIS     OPER   

 PROGRAMS   *        TOTAL       INT
 CPU TIMES  *         4.17      4.08
 REAL TIME  *         5.60 SEC
 DISK USED  *         1.38 GB      
 **********************************************************************************************************************************


 PROGRAM * RHF-SCF (CLOSED SHELL)       Authors: W. Meyer, H.-J. Werner


 NUMBER OF ELECTRONS:       7+    7-
 CONVERGENCE THRESHOLDS:    1.00E-10 (Density)    1.00E-13 (Energy)
 MAX. NUMBER OF ITERATIONS:      500
 INTERPOLATION TYPE:            DIIS
 INTERPOLATION STEPS:              2 (START)      1 (STEP)
 LEVEL SHIFTS:                  0.00 (CLOSED)  0.00 (OPEN) 



 Orbital guess generated from atomic densities. Full valence occupancy:    9   2

 Molecular orbital dump at record        2100.2

 Initial occupancy:   6   1

 ITERATION    DDIFF          GRAD             ENERGY        2-EL.EN.            DIPOLE MOMENTS         DIIS   ORB.
    1      0.000D+00      0.000D+00       -92.77107691    111.520776    0.00840    0.00000   -2.03489    0    start
    2      0.000D+00      0.710D-02       -92.78309286    109.824525   -0.00334    0.00000   -0.94035    1    diag
    3      0.259D-01      0.619D-02       -92.80553441    110.755376    0.00159    0.00000   -1.45309    2    diag
    4      0.894D-02      0.442D-03       -92.80578606    110.703893    0.00122    0.00000   -1.44590    3    diag
    5      0.140D-02      0.100D-03       -92.80580090    110.712948    0.00111    0.00000   -1.44459    4    diag
    6      0.401D-03      0.263D-04       -92.80580176    110.708498    0.00109    0.00000   -1.44482    5    diag
    7      0.340D-04      0.938D-05       -92.80580185    110.709468    0.00109    0.00000   -1.44490    6    diag
    8      0.122D-04      0.188D-05       -92.80580185    110.709453    0.00109    0.00000   -1.44488    7    diag
    9      0.642D-05      0.206D-06       -92.80580185    110.709461    0.00108    0.00000   -1.44488    8    diag
   10      0.108D-05      0.233D-07       -92.80580185    110.709462    0.00108    0.00000   -1.44488    9    orth
   11      0.106D-06      0.433D-08       -92.80580185    110.709462    0.00108    0.00000   -1.44488    9    diag
   12      0.143D-07      0.163D-08       -92.80580185    110.709462    0.00108    0.00000   -1.44488    9    diag
   13      0.709D-08      0.726D-09       -92.80580185    110.709462    0.00108    0.00000   -1.44488    9    diag
   14      0.459D-08      0.203D-09       -92.80580185    110.709462    0.00108    0.00000   -1.44488    9    diag
   15      0.126D-08      0.785D-10       -92.80580185    110.709462    0.00108    0.00000   -1.44488    9    diag
   16      0.416D-09      0.176D-10       -92.80580185    110.709462    0.00108    0.00000   -1.44488    9    diag
   17      0.895D-10      0.502D-11       -92.80580185    110.709462    0.00108    0.00000   -1.44488    0    orth

 Final occupancy:   6   1

 !RHF STATE 1.1 Energy                -92.805801852890
 Nuclear energy                        23.82126514
 One-electron energy                 -171.98179798
 Two-electron energy                   55.35473099
 Virial quotient                       -1.00276427
 !RHF STATE 1.1 Dipole moment           0.00108466     0.00000000    -1.44488206
 Dipole moment /Debye                   0.00275676     0.00000000    -3.67228336

 Orbital energies:

         1.1          2.1          3.1          4.1          5.1          6.1          7.1          8.1
    -15.592686   -11.401493    -1.251272    -0.834710    -0.578134    -0.488936     0.032604     0.132564

         1.2          2.2          3.2
     -0.488938     0.132628     0.305165

 HOMO      6.1    -0.488936 =     -13.3046eV
 LUMO      7.1     0.032604 =       0.8872eV
 LUMO-HOMO         0.521540 =      14.1918eV


 **********************************************************************************************************************************
 DATASETS  * FILE   NREC   LENGTH (MB)   RECORD NAMES
              1      19      432.30       500      610      700      900      950      970     1000      129      960     1100   
                                          VAR    BASINP    GEOM    SYMINP    ZMAT    AOBASIS   BASIS     P2S    ABASIS      S 
                                         1400     1410     1200     1210     1080     1600     1650     1300     1700   
                                           T        V       H0       H01     AOSYM     SMH    MOLCAS    ERIS     OPER   

              2       4        3.13       700     1000      520     2100   
                                         GEOM     BASIS   MCVARS     RHF  

 PROGRAMS   *        TOTAL        HF       INT
 CPU TIMES  *         8.58      4.41      4.08
 REAL TIME  *        10.95 SEC
 DISK USED  *         1.38 GB      
 **********************************************************************************************************************************


 PROGRAM * CCSD (Closed-shell coupled cluster)     Authors: C. Hampel, H.-J. Werner, 1991, M. Deegan, P.J. Knowles, 1992


 Convergence thresholds:  THRVAR = 1.00D-08  THRDEN = 1.00D-12

 CCSD(T)     terms to be evaluated (factor= 1.000)


 Number of core orbitals:           2 (   2   0 )
 Number of closed-shell orbitals:   5 (   4   1 )
 Number of external orbitals:     164 ( 108  56 )

 Molecular orbitals read from record     2100.2  Type=RHF/CANONICAL (state 1.1)

 Number of N-1 electron functions:               5
 Number of N-2 electron functions:              15
 Number of singly external CSFs:               488
 Number of doubly external CSFs:            174594
 Total number of CSFs:                      175083

 Length of J-op  integral file:               0.00 MB
 Length of K-op  integral file:               1.15 MB
 Length of 3-ext integral record:             0.00 MB

 Memory could be reduced to 17.82 Mwords without degradation in triples

 Integral transformation finished. Total CPU:   0.66 sec, npass=  1  Memory used:   4.44 MW

 Reference energy:                    -92.80580185

 MP2 singlet pair energy:              -0.21723806
 MP2 triplet pair energy:              -0.12448003
 MP2 correlation energy:               -0.34171809
 MP2 total energy:                    -93.14751994

 SCS-MP2 correlation energy:           -0.33813991   (PS=  1.200000  PT=  0.333333)
 SCS-MP2 total energy:                -93.14394176

 ITER.      SQ.NORM     CORR.ENERGY   TOTAL ENERGY   ENERGY CHANGE        DEN1      VAR(S)    VAR(P)  DIIS     TIME  TIME/IT
   1      1.11108688    -0.34473685   -93.15053870    -0.00301876     0.00896568  0.23D-02  0.27D-02  1  1     1.16     0.57
   2      1.11960324    -0.34509570   -93.15089755    -0.00035885    -0.00913963  0.77D-04  0.37D-03  2  2     1.69     0.58
   3      1.12445015    -0.34529415   -93.15109601    -0.00019846    -0.00267046  0.10D-04  0.42D-04  3  3     2.18     0.60
   4      1.12630013    -0.34536600   -93.15116785    -0.00007185    -0.00061579  0.90D-06  0.47D-05  4  4     2.72     0.61
   5      1.12683734    -0.34536479   -93.15116664     0.00000121    -0.00016192  0.14D-06  0.38D-06  5  5     3.24     0.61
   6      1.12693112    -0.34536243   -93.15116429     0.00000236    -0.00002355  0.91D-08  0.31D-07  6  6     3.76     0.60
   7      1.12693863    -0.34536390   -93.15116575    -0.00000147     0.00000021  0.12D-08  0.25D-08  6  1     4.25     0.60
   8      1.12694150    -0.34536424   -93.15116609    -0.00000033    -0.00000109  0.24D-09  0.19D-09  6  2     4.82     0.60
   9      1.12694143    -0.34536431   -93.15116616    -0.00000007     0.00000020  0.19D-10  0.17D-10  6  3     5.35     0.60
  10      1.12694149    -0.34536432   -93.15116618    -0.00000001     0.00000006  0.47D-11  0.21D-11  6  4     5.88     0.60
  11      1.12694152    -0.34536433   -93.15116618    -0.00000000     0.00000000  0.51D-12  0.41D-12  6  5     6.43     0.60
  12      1.12694148    -0.34536433   -93.15116618    -0.00000000     0.00000003  0.45D-13  0.11D-12  6  6     6.93     0.60
  13      1.12694144    -0.34536433   -93.15116618    -0.00000000     0.00000001  0.27D-14  0.13D-13  6  1     7.43     0.60
  14      1.12694142    -0.34536433   -93.15116618    -0.00000000     0.00000001  0.64D-15  0.17D-14  6  2     7.97     0.60
  15      1.12694141    -0.34536433   -93.15116618    -0.00000000     0.00000000  0.12D-15  0.26D-15  6  3     8.51     0.60
  16      1.12694141    -0.34536433   -93.15116618    -0.00000000     0.00000000  0.13D-16  0.12D-16  6  5     9.05     0.60
  17      1.12694141    -0.34536433   -93.15116618    -0.00000000     0.00000000  0.18D-17  0.78D-18  6  4     9.59     0.60
  18      1.12694141    -0.34536433   -93.15116618     0.00000000    -0.00000000  0.41D-18  0.14D-18  6  5    10.10     0.60
  19      1.12694141    -0.34536433   -93.15116618     0.00000000     0.00000000  0.60D-19  0.25D-19  6  6    10.63     0.60
  20      1.12694141    -0.34536433   -93.15116618    -0.00000000     0.00000000  0.71D-20  0.42D-20  6  1    11.18     0.60

 Norm of t1 vector:      0.06241906      S-energy:    -0.00000000      T1 diagnostic:  0.01395733
                                                                       D1 diagnostic:  0.02710023

 Doubles amplitudes (print threshold =  0.500E-01):

         I         J         SYM. A    SYM. B    A         B      T(IJ, AB)

         4         4         1         1         2         2     -0.05937783
         5         5         2         2         1         1     -0.05947548


 Total CPU time for triples:      4.73 sec


 RESULTS
 =======

  Reference energy                    -92.805801852890
  CCSD singlet pair energy             -0.239487241484
  CCSD triplet pair energy             -0.105877088868
  CCSD correlation energy              -0.345364330352

  Triples (T) contribution             -0.017168130639
  Total correlation energy             -0.362532460991

  CCSD total energy                   -93.151166183242
  CCSD[T] energy                      -93.169046713936
  CCSD-T energy                       -93.167982751108
 !CCSD(T) total energy                -93.168334313881

 Timing summary (sec):

 STEP                 CPU(USER)    SYS     CPU(TOT)    WALL
 Transformation          0.66      0.10      0.76      0.76
 CCSD iterations        10.52      1.59     12.11     12.11
 Triples                 4.73      0.14      4.87      4.87

 Program statistics:

 Available memory in ccsd:               994999800
 Min. memory needed in ccsd:                705325
 Max. memory used in ccsd:                  840968
 Max. memory used in cckext:               1345378 (20 integral passes)



 **********************************************************************************************************************************
 DATASETS  * FILE   NREC   LENGTH (MB)   RECORD NAMES
              1      20      480.93       500      610      700      900      950      970     1000      129      960     1100   
                                          VAR    BASINP    GEOM    SYMINP    ZMAT    AOBASIS   BASIS     P2S    ABASIS      S 
                                         1400     1410     1200     1210     1080     1600     1650     1300     1700     1380   
                                           T        V       H0       H01     AOSYM     SMH    MOLCAS    ERIS     OPER     JKOP   

              2       4        3.13       700     1000      520     2100   
                                         GEOM     BASIS   MCVARS     RHF  

 PROGRAMS   *        TOTAL   CCSD(T)        HF       INT
 CPU TIMES  *        24.52     15.94      4.41      4.08
 REAL TIME  *        28.74 SEC
 DISK USED  *         1.38 GB      
 **********************************************************************************************************************************

 CCSD(T)/USERDEF energy=    -93.168334313881

        CCSD(T)         HF-SCF  
    -93.16833431    -92.80580185
 **********************************************************************************************************************************
 Molpro calculation terminated
 Variable memory released
