
 Primary working directories    : /tmp/r2666/232704.maple
 Secondary working directories  : /tmp/r2666/232704.maple
 Wavefunction directory         : /ddn/home4/r2666/wfu/
 Main file repository           : /tmp/r2666/232704.maple/

 SHA1      : d5ffa45e93fdbca01ffc919aa182cfdae0147319
 NAME      : 2015.1.35
 ARCHNAME  : linux/x86_64
 FC        : /opt/intel/composer_xe_2015.1.133/bin/intel64/ifort
 BLASLIB   : -Wl,-_start-group /opt/intel/mkl/lib/intel64/libmkl_intel_ilp64.a /opt/intel/mkl/lib/intel64/libmkl_intel_thread.a /opt/intel/mkl/lib/intel64/libmkl_core.a -Wl,-_end-group
 id        : olemiss

 Nodes     nprocs
 cn090        1

 Using customized tuning parameters: mindgm=1; mindgv=20; mindgc=4; mindgr=1; noblas=0; minvec=7
 default implementation of scratch files=df  

 ***,hcn CCSD(T)/TZ-F12 QFF
 memory, 995, m;
 gthresh,energy=1.d-12,zero=1.d-22,oneint=1.d-22,twoint=1.d-22;
 gthresh,optgrad=1.d-8,optstep=1.d-8;
 nocompress;
 geomtyp=xyz
 bohr
 geometry={
 3
         38        38
 N        0.0000000000        0.0000000000        1.1278509343
 C        0.0000000000        0.0000000000       -1.0604473626
 H        0.0000000000        0.0000000000       -3.0644735537
 }
 
 basis={
 default=aug-cc-pvtz
 s,C,8236.0,1235.0,280.8, 79.27,25.59, 8.997,3.319
 s,C,0.9059,0.3643,0.1285000
 p,C,56.0,18.71,4.133,0.2827,0.3827,0.1209
 d,C,30.0,10.0,3.3,1.097,0.318
 f,C,7.0,2.3,0.7610
 s,N,11420.0,1712.0,389.3,110.0,35.57,12.54,4.644
 s,N,1.293,0.5118,0.1787
 p,N,79.89,26.63,5.948,1.742,0.555,0.1725
 d,N,45.0,15.0,5.0,1.654,0.469
 f,N,9.9,3.3,1.093
 s,O,15330.0,2299.0,522.4,147.3,47.55,16.76,6.207
 s,O,1.752,0.6882,0.2384
 p,O,103.5,34.46,7.749,2.28,0.7156,0.214
 d,O,63.0,21.0,7.0,2.314,0.645
 f,O,12.9,4.3,1.428
 s,mg,164900.0,24710.0,5628.0,1596.0,521.0;
 s,mg,188.0,73.01,29.90,12.54,4.306,1.826;
 s,mg,0.7417,0.0761,0.145,0.033,0.0129;
 p,mg,950.70,316.90,74.86,23.72,8.669,3.363;
 p,mg,1.310,0.4911,0.2364,0.08733,0.03237,0.00745;
 d,mg,1.601,0.686,0.126,0.294,0.0468;
 f,mg,1.372,0.588,0.094,0.252;
 }
   {hf,maxit=500;accu,20;}
 {ccsd(t),nocheck,maxit=250;orbital,IGNORE_ERROR;}

 Variables initialized (889), CPU time= 0.01 sec
 Commands  initialized (702), CPU time= 0.01 sec, 572 directives.
 Default parameters read. Elapsed time= 0.09 sec

 Checking input...
 Passed
1


                                         ***  PROGRAM SYSTEM MOLPRO  ***
                                       Copyright, TTI GmbH Stuttgart, 2015
                                    Version 2015.1 linked Jul  9 2018 13:16:40


 **********************************************************************************************************************************
 LABEL *   hcn CCSD(T)/TZ-F12 QFF                                                        
  64 bit serial version                                                                  DATE: 06-Feb-20          TIME: 09:55:02  
 **********************************************************************************************************************************

 SHA1:             d5ffa45e93fdbca01ffc919aa182cfdae0147319
 **********************************************************************************************************************************

 THRESHOLDS:

 ZERO    =  1.00D-22  ONEINT  =  1.00D-22  TWOINT  =  1.00D-22  PREFAC  =  1.00D-14  LOCALI  =  1.00D-09  EORDER  =  1.00D-04
 ENERGY  =  1.00D-12  ETEST   =  0.00D+00  EDENS   =  0.00D+00  THRDEDEF=  1.00D-06  GRADIENT=  1.00D-02  STEP    =  1.00D-03
 ORBITAL =  1.00D-05  CIVEC   =  1.00D-05  COEFF   =  1.00D-04  PRINTCI =  5.00D-02  PUNCHCI =  9.90D+01  OPTGRAD =  3.00D-04
 OPTENERG=  1.00D-06  OPTSTEP =  3.00D-04  THRGRAD =  1.00D-10  COMPRESS=  1.00D-11  VARMIN  =  1.00D-07  VARMAX  =  1.00D-03
 THRDOUB =  0.00D+00  THRDIV  =  1.00D-05  THRRED  =  1.00D-07  THRPSP  =  1.00D+00  THRDC   =  1.00D-10  THRCS   =  1.00D-10
 THRNRM  =  1.00D-08  THREQ   =  0.00D+00  THRDE   =  1.00D+00  THRREF  =  1.00D-05  SPARFAC =  1.00D+00  THRDLP  =  1.00D-07
 THRDIA  =  1.00D-10  THRDLS  =  1.00D-07  THRGPS  =  0.00D+00  THRKEX  =  0.00D+00  THRDIS  =  2.00D-01  THRVAR  =  1.00D-10
 THRLOC  =  1.00D-06  THRGAP  =  1.00D-06  THRLOCT = -1.00D+00  THRGAPT = -1.00D+00  THRORB  =  1.00D-06  THRMLTP =  0.00D+00
 THRCPQCI=  1.00D-10  KEXTA   =  0.00D+00  THRCOARS=  0.00D+00  SYMTOL  =  1.00D-06  GRADTOL =  1.00D-06  THROVL  =  1.00D-08
 THRORTH =  1.00D-08  GRID    =  1.00D-06  GRIDMAX =  1.00D-03  DTMAX   =  0.00D+00  THROCCDE=  1.00D-01  THROCCDE=  1.00D-01



 THRESHOLDS:

 ZERO    =  1.00D-22  ONEINT  =  1.00D-22  TWOINT  =  1.00D-22  PREFAC  =  1.00D-14  LOCALI  =  1.00D-09  EORDER  =  1.00D-04
 ENERGY  =  1.00D-12  ETEST   =  0.00D+00  EDENS   =  0.00D+00  THRDEDEF=  1.00D-06  GRADIENT=  1.00D-02  STEP    =  1.00D-03
 ORBITAL =  1.00D-05  CIVEC   =  1.00D-05  COEFF   =  1.00D-04  PRINTCI =  5.00D-02  PUNCHCI =  9.90D+01  OPTGRAD =  1.00D-08
 OPTENERG=  1.00D-06  OPTSTEP =  1.00D-08  THRGRAD =  1.00D-10  COMPRESS=  1.00D-11  VARMIN  =  1.00D-07  VARMAX  =  1.00D-03
 THRDOUB =  0.00D+00  THRDIV  =  1.00D-05  THRRED  =  1.00D-07  THRPSP  =  1.00D+00  THRDC   =  1.00D-10  THRCS   =  1.00D-10
 THRNRM  =  1.00D-08  THREQ   =  0.00D+00  THRDE   =  1.00D+00  THRREF  =  1.00D-05  SPARFAC =  1.00D+00  THRDLP  =  1.00D-07
 THRDIA  =  1.00D-10  THRDLS  =  1.00D-07  THRGPS  =  0.00D+00  THRKEX  =  0.00D+00  THRDIS  =  2.00D-01  THRVAR  =  1.00D-10
 THRLOC  =  1.00D-06  THRGAP  =  1.00D-06  THRLOCT = -1.00D+00  THRGAPT = -1.00D+00  THRORB  =  1.00D-06  THRMLTP =  0.00D+00
 THRCPQCI=  1.00D-10  KEXTA   =  0.00D+00  THRCOARS=  0.00D+00  SYMTOL  =  1.00D-06  GRADTOL =  1.00D-06  THROVL  =  1.00D-08
 THRORTH =  1.00D-08  GRID    =  1.00D-06  GRIDMAX =  1.00D-03  DTMAX   =  0.00D+00  THROCCDE=  1.00D-01  THROCCDE=  1.00D-01



 Input parameters for SORTINT:

 COMPRESS =    0.000000
 C_FINAL  =    1.000000
 DEBUG    =   -1.000000
 C_SORT1  =    0.000000
 C_SEWARD =    0.000000
 THRESH   =    0.000000
 IO       =  molpro                                                          
 SPRI     =    0.000000
 SETTING GEOMTYP        =    XYZ
 ZUNIT=BOHR
 

 Variable memory set to  995000000 words,  buffer space   230000 words

 SETTING BASIS          =    USERDEF


 Recomputing integrals since basis changed


 Using spherical harmonics

 Library entry H      S aug-cc-pVTZ          selected for orbital group  3
 Library entry H      P aug-cc-pVTZ          selected for orbital group  3
 Library entry H      D aug-cc-pVTZ          selected for orbital group  3


 PROGRAM * SEWARD (Integral evaluation for generally contracted gaussian basis sets)     Author: Roland Lindh, 1990

 Geometry written to block  1 of record 700


 Point group  C2v 



 ATOMIC COORDINATES

 NR  ATOM    CHARGE       X              Y              Z

   1  N       7.00    0.000000000    0.000000000    1.127850934
   2  C       6.00    0.000000000    0.000000000   -1.060447363
   3  H       1.00    0.000000000    0.000000000   -3.064473554

 Bond lengths in Bohr (Angstrom)

 1-2  2.188298297  2-3  2.004026191
     ( 1.157997589)     ( 1.060484990)

 Bond angles

  1-2-3  179.99999879

 NUCLEAR CHARGE:                   14
 NUMBER OF PRIMITIVE AOS:         203
 NUMBER OF SYMMETRY AOS:          173
 NUMBER OF CONTRACTIONS:          171   (  75A1  +  39B1  +  39B2  +  18A2  )
 NUMBER OF CORE ORBITALS:           2   (   2A1  +   0B1  +   0B2  +   0A2  )
 NUMBER OF VALENCE ORBITALS:        9   (   5A1  +   2B1  +   2B2  +   0A2  )


 NUCLEAR REPULSION ENERGY   23.85668672

 EXTRA SYMMETRY OF AOS IN SYMMETRY 1:   1 1 1 1 1 1 1 1 1 1   1 1 1 1 1 1 1 2 1 2   1 2 1 2 1 2 1 2 1 2   1 2 1 1 1 1 1 1 1 1
                                        1 1 1 1 1 1 1 1 1 2   1 2 1 2 1 2 1 2 1 2   1 2 1 2 1 1 1 1 1 1   1 1 2 1 2
 EXTRA SYMMETRY OF AOS IN SYMMETRY 2:   1 1 1 1 1 1 1 1 1 1   1 1 2 1 2 1 2 1 1 1   1 1 1 1 1 1 1 1 1 2   1 2 1 2 1 1 1 1 1
 EXTRA SYMMETRY OF AOS IN SYMMETRY 3:   1 1 1 1 1 1 1 1 1 1   1 1 2 1 2 1 2 1 1 1   1 1 1 1 1 1 1 1 1 2   1 2 1 2 1 1 1 1 1

 Eigenvalues of metric

         1 0.240E-03 0.533E-03 0.906E-03 0.137E-02 0.318E-02 0.748E-02 0.994E-02 0.132E-01
         2 0.543E-02 0.157E-01 0.220E-01 0.345E-01 0.962E-01 0.112E+00 0.125E+00 0.188E+00
         3 0.543E-02 0.157E-01 0.220E-01 0.345E-01 0.962E-01 0.112E+00 0.125E+00 0.188E+00
         4 0.124E+00 0.140E+00 0.196E+00 0.256E+00 0.315E+00 0.379E+00 0.485E+00 0.599E+00


 Contracted 2-electron integrals neglected if value below      1.0D-22

       21715567. INTEGRALS WRITTEN OUT IN    5303 BLOCKS ON RECORD 1290 OF FILE 1


 NUMBER OF SORTED TWO-ELECTRON INTEGRALS:   28272141.     BUFFER LENGTH:  32768
 NUMBER OF SEGMENTS:   2  SEGMENT LENGTH:   15998211      RECORD LENGTH: 524288

 Memory used in sort:      16.56 MW

 SORT1 READ    21715567. AND WROTE    22113416. INTEGRALS IN     65 RECORDS. CPU TIME:     0.54 SEC, REAL TIME:     0.65 SEC
 SORT2 READ    22113416. AND WROTE    28272141. INTEGRALS IN      2 RECORDS. CPU TIME:     0.37 SEC, REAL TIME:     0.50 SEC

 FILE SIZES:   FILE 1:   368.2 MBYTE,  FILE 4:   272.7 MBYTE,   TOTAL:    640.8 MBYTE

 OPERATOR DM      FOR CENTER  0  COORDINATES:    0.000000    0.000000    0.000000


 **********************************************************************************************************************************
 DATASETS  * FILE   NREC   LENGTH (MB)   RECORD NAMES
              1      19      213.34       500      610      700      900      950      970     1000      129      960     1100   
                                          VAR    BASINP    GEOM    SYMINP    ZMAT    AOBASIS   BASIS     P2S    ABASIS      S 
                                         1400     1410     1200     1210     1080     1600     1650     1300     1700   
                                           T        V       H0       H01     AOSYM     SMH    MOLCAS    ERIS     OPER   

 PROGRAMS   *        TOTAL       INT
 CPU TIMES  *         3.26      3.13
 REAL TIME  *         4.22 SEC
 DISK USED  *       641.16 MB      
 **********************************************************************************************************************************


 PROGRAM * RHF-SCF (CLOSED SHELL)       Authors: W. Meyer, H.-J. Werner


 NUMBER OF ELECTRONS:       7+    7-
 CONVERGENCE THRESHOLDS:    1.00E-10 (Density)    1.00E-13 (Energy)
 MAX. NUMBER OF ITERATIONS:      500
 INTERPOLATION TYPE:            DIIS
 INTERPOLATION STEPS:              2 (START)      1 (STEP)
 LEVEL SHIFTS:                  0.00 (CLOSED)  0.00 (OPEN) 



 Orbital guess generated from atomic densities. Full valence occupancy:    7   2   2   0

 Molecular orbital dump at record        2100.2

 Initial occupancy:   5   1   1   0

 ITERATION    DDIFF          GRAD             ENERGY        2-EL.EN.            DIPOLE MOMENTS         DIIS   ORB.
    1      0.000D+00      0.000D+00       -92.77118162    111.563094    0.00000    0.00000   -2.02270    0    start
    2      0.000D+00      0.907D-02       -92.78315976    109.884391    0.00000    0.00000   -0.93842    1    diag
    3      0.344D-01      0.789D-02       -92.80525094    110.807921    0.00000    0.00000   -1.44756    2    diag
    4      0.118D-01      0.571D-03       -92.80550400    110.755752    0.00000    0.00000   -1.44041    3    diag
    5      0.189D-02      0.128D-03       -92.80551869    110.764760    0.00000    0.00000   -1.43909    4    diag
    6      0.529D-03      0.335D-04       -92.80551953    110.760340    0.00000    0.00000   -1.43933    5    diag
    7      0.449D-04      0.119D-04       -92.80551962    110.761293    0.00000    0.00000   -1.43940    6    diag
    8      0.162D-04      0.240D-05       -92.80551962    110.761279    0.00000    0.00000   -1.43938    7    diag
    9      0.845D-05      0.263D-06       -92.80551962    110.761287    0.00000    0.00000   -1.43938    8    diag
   10      0.142D-05      0.290D-07       -92.80551962    110.761288    0.00000    0.00000   -1.43938    9    orth
   11      0.139D-06      0.378D-08       -92.80551962    110.761288    0.00000    0.00000   -1.43938    9    diag
   12      0.123D-07      0.396D-09       -92.80551962    110.761288    0.00000    0.00000   -1.43938    9    diag
   13      0.119D-08      0.511D-10       -92.80551962    110.761288    0.00000    0.00000   -1.43938    9    diag
   14      0.174D-09      0.731D-11       -92.80551962    110.761288    0.00000    0.00000   -1.43938    9    diag
   15      0.270D-10      0.150D-11       -92.80551962    110.761288    0.00000    0.00000   -1.43938    9    diag
   16      0.616D-11      0.687D-12       -92.80551962    110.761288    0.00000    0.00000   -1.43938    9    diag
   17      0.124D-11      0.385D-12       -92.80551962    110.761288    0.00000    0.00000   -1.43938    9    diag
   18      0.111D-11      0.162D-12       -92.80551962    110.761288    0.00000    0.00000   -1.43938    9    diag
   19      0.106D-11      0.315D-12       -92.80551962    110.761288    0.00000    0.00000   -1.43938    9    fixocc
   20      0.526D-12      0.234D-12       -92.80551962    110.761288    0.00000    0.00000   -1.43938    9    orth
   21      0.898D-12      0.306D-12       -92.80551962    110.761288    0.00000    0.00000   -1.43938    9    diag
   22      0.845D-12      0.350D-12       -92.80551962    110.761288    0.00000    0.00000   -1.43938    0    orth

 Final occupancy:   5   1   1   0

 !RHF STATE 1.1 Energy                -92.805519620286
 Nuclear energy                        23.85668672
 One-electron energy                 -172.04285017
 Two-electron energy                   55.38064383
 Virial quotient                       -1.00259751
 !RHF STATE 1.1 Dipole moment           0.00000000     0.00000000    -1.43937928
 Dipole moment /Debye                   0.00000000     0.00000000    -3.65829758

 Orbital energies:

         1.1          2.1          3.1          4.1          5.1          6.1          7.1
    -15.592913   -11.401023    -1.251480    -0.838598    -0.578475     0.032652     0.152453

         1.2          2.2          3.2
     -0.489146     0.132617     0.305254

         1.3          2.3          3.3
     -0.489146     0.132617     0.305254

         1.4          2.4
      0.682411     0.963888

 HOMO      1.2    -0.489146 =     -13.3103eV
 LUMO      6.1     0.032652 =       0.8885eV
 LUMO-HOMO         0.521798 =      14.1988eV


 **********************************************************************************************************************************
 DATASETS  * FILE   NREC   LENGTH (MB)   RECORD NAMES
              1      19      213.34       500      610      700      900      950      970     1000      129      960     1100   
                                          VAR    BASINP    GEOM    SYMINP    ZMAT    AOBASIS   BASIS     P2S    ABASIS      S 
                                         1400     1410     1200     1210     1080     1600     1650     1300     1700   
                                           T        V       H0       H01     AOSYM     SMH    MOLCAS    ERIS     OPER   

              2       4        2.98       700     1000      520     2100   
                                         GEOM     BASIS   MCVARS     RHF  

 PROGRAMS   *        TOTAL        HF       INT
 CPU TIMES  *         5.52      2.26      3.13
 REAL TIME  *         6.91 SEC
 DISK USED  *       641.16 MB      
 **********************************************************************************************************************************


 PROGRAM * CCSD (Closed-shell coupled cluster)     Authors: C. Hampel, H.-J. Werner, 1991, M. Deegan, P.J. Knowles, 1992


 Convergence thresholds:  THRVAR = 1.00D-08  THRDEN = 1.00D-12

 CCSD(T)     terms to be evaluated (factor= 1.000)


 Number of core orbitals:           2 (   2   0   0   0 )
 Number of closed-shell orbitals:   5 (   3   1   1   0 )
 Number of external orbitals:     164 (  70  38  38  18 )

 Molecular orbitals read from record     2100.2  Type=RHF/CANONICAL (state 1.1)

 Number of N-1 electron functions:               5
 Number of N-2 electron functions:              15
 Number of singly external CSFs:               286
 Number of doubly external CSFs:             90562
 Total number of CSFs:                       90849

 Length of J-op  integral file:               0.00 MB
 Length of K-op  integral file:               0.65 MB
 Length of 3-ext integral record:             0.00 MB

 Memory could be reduced to 9.35 Mwords without degradation in triples

 Integral transformation finished. Total CPU:   0.21 sec, npass=  1  Memory used:   1.25 MW

 Reference energy:                    -92.80551962

 MP2 singlet pair energy:              -0.21716401
 MP2 triplet pair energy:              -0.12444656
 MP2 correlation energy:               -0.34161057
 MP2 total energy:                    -93.14713019

 SCS-MP2 correlation energy:           -0.33803023   (PS=  1.200000  PT=  0.333333)
 SCS-MP2 total energy:                -93.14354985

 ITER.      SQ.NORM     CORR.ENERGY   TOTAL ENERGY   ENERGY CHANGE        DEN1      VAR(S)    VAR(P)  DIIS     TIME  TIME/IT
   1      1.11090506    -0.34462412   -93.15014374    -0.00301355     0.00894653  0.23D-02  0.27D-02  1  1     0.45     0.26
   2      1.11938768    -0.34497534   -93.15049496    -0.00035122    -0.00912146  0.77D-04  0.37D-03  2  2     0.68     0.26
   3      1.12420157    -0.34517090   -93.15069052    -0.00019556    -0.00265655  0.10D-04  0.42D-04  3  3     0.92     0.26
   4      1.12604253    -0.34524237   -93.15076199    -0.00007147    -0.00061328  0.89D-06  0.47D-05  4  4     1.17     0.26
   5      1.12657758    -0.34524094   -93.15076056     0.00000142    -0.00016184  0.13D-06  0.38D-06  5  5     1.39     0.26
   6      1.12666908    -0.34523868   -93.15075830     0.00000226    -0.00002289  0.85D-08  0.31D-07  6  6     1.63     0.26
   7      1.12667643    -0.34524016   -93.15075978    -0.00000148     0.00000018  0.11D-08  0.25D-08  6  1     1.85     0.27
   8      1.12667913    -0.34524051   -93.15076013    -0.00000035    -0.00000103  0.21D-09  0.18D-09  6  2     2.10     0.27
   9      1.12667903    -0.34524058   -93.15076021    -0.00000008     0.00000020  0.15D-10  0.15D-10  6  3     2.31     0.27
  10      1.12667908    -0.34524060   -93.15076022    -0.00000001     0.00000005  0.37D-11  0.18D-11  6  4     2.55     0.27
  11      1.12667910    -0.34524060   -93.15076022    -0.00000000     0.00000000  0.43D-12  0.33D-12  6  5     2.78     0.27
  12      1.12667906    -0.34524061   -93.15076023    -0.00000000     0.00000003  0.41D-13  0.87D-13  6  6     3.01     0.27
  13      1.12667902    -0.34524061   -93.15076023    -0.00000000     0.00000001  0.21D-14  0.11D-13  6  1     3.25     0.27
  14      1.12667900    -0.34524061   -93.15076023    -0.00000000     0.00000001  0.37D-15  0.14D-14  6  2     3.47     0.27
  15      1.12667900    -0.34524061   -93.15076023    -0.00000000     0.00000000  0.64D-16  0.21D-15  6  3     3.71     0.27
  16      1.12667899    -0.34524061   -93.15076023    -0.00000000     0.00000000  0.67D-17  0.90D-17  6  5     3.93     0.27
  17      1.12667899    -0.34524061   -93.15076023    -0.00000000     0.00000000  0.57D-18  0.50D-18  6  4     4.18     0.27
  18      1.12667899    -0.34524061   -93.15076023     0.00000000    -0.00000000  0.98D-19  0.77D-19  6  6     4.43     0.27

 Norm of t1 vector:      0.06227542      S-energy:     0.00000000      T1 diagnostic:  0.01392521
                                                                       D1 diagnostic:  0.02710706

 Doubles amplitudes (print threshold =  0.500E-01):

         I         J         SYM. A    SYM. B    A         B      T(IJ, AB)

         4         4         2         2         1         1     -0.05961764
         5         5         3         3         1         1     -0.05961764


 Total CPU time for triples:      1.48 sec


 RESULTS
 =======

  Reference energy                    -92.805519620285
  CCSD singlet pair energy             -0.239368683784
  CCSD triplet pair energy             -0.105871923132
  CCSD correlation energy              -0.345240606905

  Triples (T) contribution             -0.017144170857
  Total correlation energy             -0.362384777762

  CCSD total energy                   -93.150760227191
  CCSD[T] energy                      -93.168615023504
  CCSD-T energy                       -93.167553328213
 !CCSD(T) total energy                -93.167904398048

 Timing summary (sec):

 STEP                 CPU(USER)    SYS     CPU(TOT)    WALL
 Transformation          0.22      0.08      0.30      0.29
 CCSD iterations         4.21      0.60      4.81      4.83
 Triples                 1.48      0.08      1.56      1.56

 Program statistics:

 Available memory in ccsd:               994999800
 Min. memory needed in ccsd:                377822
 Max. memory used in ccsd:                  449387
 Max. memory used in cckext:                547289 (18 integral passes)



 **********************************************************************************************************************************
 DATASETS  * FILE   NREC   LENGTH (MB)   RECORD NAMES
              1      20      238.52       500      610      700      900      950      970     1000      129      960     1100   
                                          VAR    BASINP    GEOM    SYMINP    ZMAT    AOBASIS   BASIS     P2S    ABASIS      S 
                                         1400     1410     1200     1210     1080     1600     1650     1300     1700     1380   
                                           T        V       H0       H01     AOSYM     SMH    MOLCAS    ERIS     OPER     JKOP   

              2       4        2.98       700     1000      520     2100   
                                         GEOM     BASIS   MCVARS     RHF  

 PROGRAMS   *        TOTAL   CCSD(T)        HF       INT
 CPU TIMES  *        11.46      5.94      2.26      3.13
 REAL TIME  *        15.39 SEC
 DISK USED  *       641.16 MB      
 **********************************************************************************************************************************

 CCSD(T)/USERDEF energy=    -93.167904398048

        CCSD(T)         HF-SCF  
    -93.16790440    -92.80551962
 **********************************************************************************************************************************
 Molpro calculation terminated
 Variable memory released
