
 Primary working directories    : /tmp/r2666/232711.maple
 Secondary working directories  : /tmp/r2666/232711.maple
 Wavefunction directory         : /ddn/home4/r2666/wfu/
 Main file repository           : /tmp/r2666/232711.maple/

 SHA1      : d5ffa45e93fdbca01ffc919aa182cfdae0147319
 NAME      : 2015.1.35
 ARCHNAME  : linux/x86_64
 FC        : /opt/intel/composer_xe_2015.1.133/bin/intel64/ifort
 BLASLIB   : -Wl,-_start-group /opt/intel/mkl/lib/intel64/libmkl_intel_ilp64.a /opt/intel/mkl/lib/intel64/libmkl_intel_thread.a /opt/intel/mkl/lib/intel64/libmkl_core.a -Wl,-_end-group
 id        : olemiss

 Nodes     nprocs
 cn079        1

 Using customized tuning parameters: mindgm=1; mindgv=20; mindgc=4; mindgr=1; noblas=0; minvec=7
 default implementation of scratch files=df  

 ***,hcn CCSD(T)/TZ-F12 QFF
 memory, 995, m;
 gthresh,energy=1.d-12,zero=1.d-22,oneint=1.d-22,twoint=1.d-22;
 gthresh,optgrad=1.d-8,optstep=1.d-8;
 nocompress;
 geomtyp=xyz
 bohr
 geometry={
 3
         45        45
 N        0.0000000000        0.0000000000        1.1404491076
 C        0.0000000000        0.0000000000       -1.0478491894
 H        0.0000000000        0.0000000000       -3.0896699002
 }
 
 basis={
 default=aug-cc-pvtz
 s,C,8236.0,1235.0,280.8, 79.27,25.59, 8.997,3.319
 s,C,0.9059,0.3643,0.1285000
 p,C,56.0,18.71,4.133,0.2827,0.3827,0.1209
 d,C,30.0,10.0,3.3,1.097,0.318
 f,C,7.0,2.3,0.7610
 s,N,11420.0,1712.0,389.3,110.0,35.57,12.54,4.644
 s,N,1.293,0.5118,0.1787
 p,N,79.89,26.63,5.948,1.742,0.555,0.1725
 d,N,45.0,15.0,5.0,1.654,0.469
 f,N,9.9,3.3,1.093
 s,O,15330.0,2299.0,522.4,147.3,47.55,16.76,6.207
 s,O,1.752,0.6882,0.2384
 p,O,103.5,34.46,7.749,2.28,0.7156,0.214
 d,O,63.0,21.0,7.0,2.314,0.645
 f,O,12.9,4.3,1.428
 s,mg,164900.0,24710.0,5628.0,1596.0,521.0;
 s,mg,188.0,73.01,29.90,12.54,4.306,1.826;
 s,mg,0.7417,0.0761,0.145,0.033,0.0129;
 p,mg,950.70,316.90,74.86,23.72,8.669,3.363;
 p,mg,1.310,0.4911,0.2364,0.08733,0.03237,0.00745;
 d,mg,1.601,0.686,0.126,0.294,0.0468;
 f,mg,1.372,0.588,0.094,0.252;
 }
   {hf,maxit=500;accu,20;}
 {ccsd(t),nocheck,maxit=250;orbital,IGNORE_ERROR;}

 Variables initialized (889), CPU time= 0.01 sec
 Commands  initialized (702), CPU time= 0.00 sec, 572 directives.
 Default parameters read. Elapsed time= 0.07 sec

 Checking input...
 Passed
1


                                         ***  PROGRAM SYSTEM MOLPRO  ***
                                       Copyright, TTI GmbH Stuttgart, 2015
                                    Version 2015.1 linked Jul  9 2018 13:16:40


 **********************************************************************************************************************************
 LABEL *   hcn CCSD(T)/TZ-F12 QFF                                                        
  64 bit serial version                                                                  DATE: 06-Feb-20          TIME: 09:55:03  
 **********************************************************************************************************************************

 SHA1:             d5ffa45e93fdbca01ffc919aa182cfdae0147319
 **********************************************************************************************************************************

 THRESHOLDS:

 ZERO    =  1.00D-22  ONEINT  =  1.00D-22  TWOINT  =  1.00D-22  PREFAC  =  1.00D-14  LOCALI  =  1.00D-09  EORDER  =  1.00D-04
 ENERGY  =  1.00D-12  ETEST   =  0.00D+00  EDENS   =  0.00D+00  THRDEDEF=  1.00D-06  GRADIENT=  1.00D-02  STEP    =  1.00D-03
 ORBITAL =  1.00D-05  CIVEC   =  1.00D-05  COEFF   =  1.00D-04  PRINTCI =  5.00D-02  PUNCHCI =  9.90D+01  OPTGRAD =  3.00D-04
 OPTENERG=  1.00D-06  OPTSTEP =  3.00D-04  THRGRAD =  1.00D-10  COMPRESS=  1.00D-11  VARMIN  =  1.00D-07  VARMAX  =  1.00D-03
 THRDOUB =  0.00D+00  THRDIV  =  1.00D-05  THRRED  =  1.00D-07  THRPSP  =  1.00D+00  THRDC   =  1.00D-10  THRCS   =  1.00D-10
 THRNRM  =  1.00D-08  THREQ   =  0.00D+00  THRDE   =  1.00D+00  THRREF  =  1.00D-05  SPARFAC =  1.00D+00  THRDLP  =  1.00D-07
 THRDIA  =  1.00D-10  THRDLS  =  1.00D-07  THRGPS  =  0.00D+00  THRKEX  =  0.00D+00  THRDIS  =  2.00D-01  THRVAR  =  1.00D-10
 THRLOC  =  1.00D-06  THRGAP  =  1.00D-06  THRLOCT = -1.00D+00  THRGAPT = -1.00D+00  THRORB  =  1.00D-06  THRMLTP =  0.00D+00
 THRCPQCI=  1.00D-10  KEXTA   =  0.00D+00  THRCOARS=  0.00D+00  SYMTOL  =  1.00D-06  GRADTOL =  1.00D-06  THROVL  =  1.00D-08
 THRORTH =  1.00D-08  GRID    =  1.00D-06  GRIDMAX =  1.00D-03  DTMAX   =  0.00D+00  THROCCDE=  1.00D-01  THROCCDE=  1.00D-01



 THRESHOLDS:

 ZERO    =  1.00D-22  ONEINT  =  1.00D-22  TWOINT  =  1.00D-22  PREFAC  =  1.00D-14  LOCALI  =  1.00D-09  EORDER  =  1.00D-04
 ENERGY  =  1.00D-12  ETEST   =  0.00D+00  EDENS   =  0.00D+00  THRDEDEF=  1.00D-06  GRADIENT=  1.00D-02  STEP    =  1.00D-03
 ORBITAL =  1.00D-05  CIVEC   =  1.00D-05  COEFF   =  1.00D-04  PRINTCI =  5.00D-02  PUNCHCI =  9.90D+01  OPTGRAD =  1.00D-08
 OPTENERG=  1.00D-06  OPTSTEP =  1.00D-08  THRGRAD =  1.00D-10  COMPRESS=  1.00D-11  VARMIN  =  1.00D-07  VARMAX  =  1.00D-03
 THRDOUB =  0.00D+00  THRDIV  =  1.00D-05  THRRED  =  1.00D-07  THRPSP  =  1.00D+00  THRDC   =  1.00D-10  THRCS   =  1.00D-10
 THRNRM  =  1.00D-08  THREQ   =  0.00D+00  THRDE   =  1.00D+00  THRREF  =  1.00D-05  SPARFAC =  1.00D+00  THRDLP  =  1.00D-07
 THRDIA  =  1.00D-10  THRDLS  =  1.00D-07  THRGPS  =  0.00D+00  THRKEX  =  0.00D+00  THRDIS  =  2.00D-01  THRVAR  =  1.00D-10
 THRLOC  =  1.00D-06  THRGAP  =  1.00D-06  THRLOCT = -1.00D+00  THRGAPT = -1.00D+00  THRORB  =  1.00D-06  THRMLTP =  0.00D+00
 THRCPQCI=  1.00D-10  KEXTA   =  0.00D+00  THRCOARS=  0.00D+00  SYMTOL  =  1.00D-06  GRADTOL =  1.00D-06  THROVL  =  1.00D-08
 THRORTH =  1.00D-08  GRID    =  1.00D-06  GRIDMAX =  1.00D-03  DTMAX   =  0.00D+00  THROCCDE=  1.00D-01  THROCCDE=  1.00D-01



 Input parameters for SORTINT:

 COMPRESS =    0.000000
 C_FINAL  =    1.000000
 DEBUG    =   -1.000000
 C_SORT1  =    0.000000
 C_SEWARD =    0.000000
 THRESH   =    0.000000
 IO       =  molpro                                                          
 SPRI     =    0.000000
 SETTING GEOMTYP        =    XYZ
 ZUNIT=BOHR
 

 Variable memory set to  995000000 words,  buffer space   230000 words

 SETTING BASIS          =    USERDEF


 Recomputing integrals since basis changed


 Using spherical harmonics

 Library entry H      S aug-cc-pVTZ          selected for orbital group  3
 Library entry H      P aug-cc-pVTZ          selected for orbital group  3
 Library entry H      D aug-cc-pVTZ          selected for orbital group  3


 PROGRAM * SEWARD (Integral evaluation for generally contracted gaussian basis sets)     Author: Roland Lindh, 1990

 Geometry written to block  1 of record 700


 Point group  C2v 



 ATOMIC COORDINATES

 NR  ATOM    CHARGE       X              Y              Z

   1  N       7.00    0.000000000    0.000000000    1.140449108
   2  C       6.00    0.000000000    0.000000000   -1.047849189
   3  H       1.00    0.000000000    0.000000000   -3.089669900

 Bond lengths in Bohr (Angstrom)

 1-2  2.188298297  2-3  2.041820711
     ( 1.157997589)     ( 1.080484989)

 Bond angles

  1-2-3  179.99999829

 NUCLEAR CHARGE:                   14
 NUMBER OF PRIMITIVE AOS:         203
 NUMBER OF SYMMETRY AOS:          173
 NUMBER OF CONTRACTIONS:          171   (  75A1  +  39B1  +  39B2  +  18A2  )
 NUMBER OF CORE ORBITALS:           2   (   2A1  +   0B1  +   0B2  +   0A2  )
 NUMBER OF VALENCE ORBITALS:        9   (   5A1  +   2B1  +   2B2  +   0A2  )


 NUCLEAR REPULSION ENERGY   23.78634936

 EXTRA SYMMETRY OF AOS IN SYMMETRY 1:   1 1 1 1 1 1 1 1 1 1   1 1 1 1 1 1 1 2 1 2   1 2 1 2 1 2 1 2 1 2   1 2 1 1 1 1 1 1 1 1
                                        1 1 1 1 1 1 1 1 1 2   1 2 1 2 1 2 1 2 1 2   1 2 1 2 1 1 1 1 1 1   1 1 2 1 2
 EXTRA SYMMETRY OF AOS IN SYMMETRY 2:   1 1 1 1 1 1 1 1 1 1   1 1 2 1 2 1 2 1 1 1   1 1 1 1 1 1 1 1 1 2   1 2 1 2 1 1 1 1 1
 EXTRA SYMMETRY OF AOS IN SYMMETRY 3:   1 1 1 1 1 1 1 1 1 1   1 1 2 1 2 1 2 1 1 1   1 1 1 1 1 1 1 1 1 2   1 2 1 2 1 1 1 1 1

 Eigenvalues of metric

         1 0.259E-03 0.542E-03 0.952E-03 0.142E-02 0.320E-02 0.793E-02 0.104E-01 0.134E-01
         2 0.548E-02 0.161E-01 0.234E-01 0.358E-01 0.976E-01 0.114E+00 0.126E+00 0.189E+00
         3 0.548E-02 0.161E-01 0.234E-01 0.358E-01 0.976E-01 0.114E+00 0.126E+00 0.189E+00
         4 0.125E+00 0.140E+00 0.197E+00 0.259E+00 0.315E+00 0.379E+00 0.486E+00 0.602E+00


 Contracted 2-electron integrals neglected if value below      1.0D-22

       21708482. INTEGRALS WRITTEN OUT IN    5302 BLOCKS ON RECORD 1290 OF FILE 1


 NUMBER OF SORTED TWO-ELECTRON INTEGRALS:   28272141.     BUFFER LENGTH:  32768
 NUMBER OF SEGMENTS:   2  SEGMENT LENGTH:   15998211      RECORD LENGTH: 524288

 Memory used in sort:      16.56 MW

 SORT1 READ    21708482. AND WROTE    22106167. INTEGRALS IN     65 RECORDS. CPU TIME:     0.50 SEC, REAL TIME:     0.62 SEC
 SORT2 READ    22106167. AND WROTE    28272141. INTEGRALS IN      2 RECORDS. CPU TIME:     0.36 SEC, REAL TIME:     0.50 SEC

 FILE SIZES:   FILE 1:   368.1 MBYTE,  FILE 4:   272.7 MBYTE,   TOTAL:    640.8 MBYTE

 OPERATOR DM      FOR CENTER  0  COORDINATES:    0.000000    0.000000    0.000000


 **********************************************************************************************************************************
 DATASETS  * FILE   NREC   LENGTH (MB)   RECORD NAMES
              1      19      213.29       500      610      700      900      950      970     1000      129      960     1100   
                                          VAR    BASINP    GEOM    SYMINP    ZMAT    AOBASIS   BASIS     P2S    ABASIS      S 
                                         1400     1410     1200     1210     1080     1600     1650     1300     1700   
                                           T        V       H0       H01     AOSYM     SMH    MOLCAS    ERIS     OPER   

 PROGRAMS   *        TOTAL       INT
 CPU TIMES  *         3.20      3.10
 REAL TIME  *         4.28 SEC
 DISK USED  *       641.09 MB      
 **********************************************************************************************************************************


 PROGRAM * RHF-SCF (CLOSED SHELL)       Authors: W. Meyer, H.-J. Werner


 NUMBER OF ELECTRONS:       7+    7-
 CONVERGENCE THRESHOLDS:    1.00E-10 (Density)    1.00E-13 (Energy)
 MAX. NUMBER OF ITERATIONS:      500
 INTERPOLATION TYPE:            DIIS
 INTERPOLATION STEPS:              2 (START)      1 (STEP)
 LEVEL SHIFTS:                  0.00 (CLOSED)  0.00 (OPEN) 



 Orbital guess generated from atomic densities. Full valence occupancy:    7   2   2   0

 Molecular orbital dump at record        2100.2

 Initial occupancy:   5   1   1   0

 ITERATION    DDIFF          GRAD             ENERGY        2-EL.EN.            DIPOLE MOMENTS         DIIS   ORB.
    1      0.000D+00      0.000D+00       -92.77086525    111.479247    0.00000    0.00000   -2.04717    0    start
    2      0.000D+00      0.917D-02       -92.78291749    109.765631    0.00000    0.00000   -0.94266    1    diag
    3      0.349D-01      0.801D-02       -92.80569994    110.703604    0.00000    0.00000   -1.45889    2    diag
    4      0.121D-01      0.565D-03       -92.80595019    110.652805    0.00000    0.00000   -1.45164    3    diag
    5      0.186D-02      0.129D-03       -92.80596517    110.661890    0.00000    0.00000   -1.45034    4    diag
    6      0.544D-03      0.340D-04       -92.80596605    110.657411    0.00000    0.00000   -1.45057    5    diag
    7      0.460D-04      0.122D-04       -92.80596614    110.658398    0.00000    0.00000   -1.45066    6    diag
    8      0.165D-04      0.244D-05       -92.80596615    110.658382    0.00000    0.00000   -1.45065    7    diag
    9      0.870D-05      0.266D-06       -92.80596615    110.658390    0.00000    0.00000   -1.45064    8    diag
   10      0.147D-05      0.287D-07       -92.80596615    110.658391    0.00000    0.00000   -1.45065    9    orth
   11      0.141D-06      0.374D-08       -92.80596615    110.658391    0.00000    0.00000   -1.45065    9    diag
   12      0.120D-07      0.399D-09       -92.80596615    110.658391    0.00000    0.00000   -1.45065    9    diag
   13      0.117D-08      0.518D-10       -92.80596615    110.658391    0.00000    0.00000   -1.45065    9    diag
   14      0.180D-09      0.799D-11       -92.80596615    110.658391    0.00000    0.00000   -1.45065    9    diag
   15      0.294D-10      0.172D-11       -92.80596615    110.658391    0.00000    0.00000   -1.45065    9    diag
   16      0.532D-11      0.574D-12       -92.80596615    110.658391    0.00000    0.00000   -1.45065    9    diag
   17      0.170D-11      0.593D-12       -92.80596615    110.658391    0.00000    0.00000   -1.45065    0    orth

 Final occupancy:   5   1   1   0

 !RHF STATE 1.1 Energy                -92.805966145393
 Nuclear energy                        23.78634936
 One-electron energy                 -171.92151111
 Two-electron energy                   55.32919560
 Virial quotient                       -1.00292536
 !RHF STATE 1.1 Dipole moment           0.00000000     0.00000000    -1.45064554
 Dipole moment /Debye                   0.00000000     0.00000000    -3.68693170

 Orbital energies:

         1.1          2.1          3.1          4.1          5.1          6.1          7.1
    -15.592448   -11.401947    -1.251058    -0.830884    -0.577784     0.032547     0.149473

         1.2          2.2          3.2
     -0.488719     0.132637     0.305073

         1.3          2.3          3.3
     -0.488719     0.132637     0.305073

         1.4          2.4
      0.682628     0.961295

 HOMO      1.2    -0.488719 =     -13.2987eV
 LUMO      6.1     0.032547 =       0.8856eV
 LUMO-HOMO         0.521266 =      14.1844eV


 **********************************************************************************************************************************
 DATASETS  * FILE   NREC   LENGTH (MB)   RECORD NAMES
              1      19      213.29       500      610      700      900      950      970     1000      129      960     1100   
                                          VAR    BASINP    GEOM    SYMINP    ZMAT    AOBASIS   BASIS     P2S    ABASIS      S 
                                         1400     1410     1200     1210     1080     1600     1650     1300     1700   
                                           T        V       H0       H01     AOSYM     SMH    MOLCAS    ERIS     OPER   

              2       4        2.98       700     1000      520     2100   
                                         GEOM     BASIS   MCVARS     RHF  

 PROGRAMS   *        TOTAL        HF       INT
 CPU TIMES  *         4.96      1.76      3.10
 REAL TIME  *         6.37 SEC
 DISK USED  *       641.09 MB      
 **********************************************************************************************************************************


 PROGRAM * CCSD (Closed-shell coupled cluster)     Authors: C. Hampel, H.-J. Werner, 1991, M. Deegan, P.J. Knowles, 1992


 Convergence thresholds:  THRVAR = 1.00D-08  THRDEN = 1.00D-12

 CCSD(T)     terms to be evaluated (factor= 1.000)


 Number of core orbitals:           2 (   2   0   0   0 )
 Number of closed-shell orbitals:   5 (   3   1   1   0 )
 Number of external orbitals:     164 (  70  38  38  18 )

 Molecular orbitals read from record     2100.2  Type=RHF/CANONICAL (state 1.1)

 Number of N-1 electron functions:               5
 Number of N-2 electron functions:              15
 Number of singly external CSFs:               286
 Number of doubly external CSFs:             90562
 Total number of CSFs:                       90849

 Length of J-op  integral file:               0.00 MB
 Length of K-op  integral file:               0.65 MB
 Length of 3-ext integral record:             0.00 MB

 Memory could be reduced to 9.35 Mwords without degradation in triples

 Integral transformation finished. Total CPU:   0.22 sec, npass=  1  Memory used:   1.25 MW

 Reference energy:                    -92.80596615

 MP2 singlet pair energy:              -0.21731326
 MP2 triplet pair energy:              -0.12451390
 MP2 correlation energy:               -0.34182716
 MP2 total energy:                    -93.14779330

 SCS-MP2 correlation energy:           -0.33825123   (PS=  1.200000  PT=  0.333333)
 SCS-MP2 total energy:                -93.14421737

 ITER.      SQ.NORM     CORR.ENERGY   TOTAL ENERGY   ENERGY CHANGE        DEN1      VAR(S)    VAR(P)  DIIS     TIME  TIME/IT
   1      1.11126893    -0.34485188   -93.15081803    -0.00302473     0.00898421  0.23D-02  0.27D-02  1  1     0.45     0.25
   2      1.11981949    -0.34521860   -93.15118475    -0.00036672    -0.00915797  0.77D-04  0.37D-03  2  2     0.67     0.25
   3      1.12470012    -0.34542008   -93.15138622    -0.00020147    -0.00268458  0.11D-04  0.42D-04  3  3     0.88     0.25
   4      1.12655942    -0.34549230   -93.15145845    -0.00007223    -0.00061842  0.91D-06  0.48D-05  4  4     1.12     0.26
   5      1.12709880    -0.34549132   -93.15145746     0.00000099    -0.00016198  0.15D-06  0.39D-06  5  5     1.37     0.26
   6      1.12719498    -0.34548886   -93.15145501     0.00000246    -0.00002425  0.98D-08  0.32D-07  6  6     1.61     0.26
   7      1.12720267    -0.34549032   -93.15145646    -0.00000146     0.00000024  0.13D-08  0.26D-08  6  1     1.86     0.26
   8      1.12720572    -0.34549064   -93.15145678    -0.00000032    -0.00000115  0.27D-09  0.19D-09  6  2     2.09     0.26
   9      1.12720569    -0.34549071   -93.15145685    -0.00000007     0.00000019  0.24D-10  0.19D-10  6  3     2.30     0.26
  10      1.12720577    -0.34549072   -93.15145687    -0.00000001     0.00000006  0.57D-11  0.25D-11  6  4     2.54     0.26
  11      1.12720581    -0.34549073   -93.15145687    -0.00000000     0.00000000  0.55D-12  0.50D-12  6  5     2.77     0.26
  12      1.12720576    -0.34549073   -93.15145687    -0.00000000     0.00000004  0.42D-13  0.12D-12  6  6     2.99     0.26
  13      1.12720572    -0.34549073   -93.15145687    -0.00000000     0.00000001  0.24D-14  0.16D-13  6  1     3.20     0.26
  14      1.12720569    -0.34549073   -93.15145687    -0.00000000     0.00000001  0.66D-15  0.20D-14  6  2     3.42     0.26
  15      1.12720569    -0.34549073   -93.15145687    -0.00000000     0.00000000  0.11D-15  0.31D-15  6  3     3.66     0.26
  16      1.12720568    -0.34549073   -93.15145687    -0.00000000     0.00000000  0.31D-16  0.29D-16  6  4     3.88     0.26
  17      1.12720568    -0.34549073   -93.15145687     0.00000000     0.00000000  0.33D-17  0.26D-17  6  5     4.11     0.26
  18      1.12720568    -0.34549073   -93.15145687     0.00000000    -0.00000000  0.64D-18  0.41D-18  6  6     4.34     0.26
  19      1.12720568    -0.34549073   -93.15145687     0.00000000     0.00000000  0.14D-18  0.59D-19  6  1     4.56     0.26
  20      1.12720568    -0.34549073   -93.15145687    -0.00000000     0.00000000  0.22D-19  0.17D-19  6  2     4.79     0.26
  21      1.12720568    -0.34549073   -93.15145687    -0.00000000    -0.00000000  0.33D-20  0.37D-20  6  3     5.01     0.26

 Norm of t1 vector:      0.06256849      S-energy:     0.00000000      T1 diagnostic:  0.01399074
                                                                       D1 diagnostic:  0.02709160

 Doubles amplitudes (print threshold =  0.500E-01):

         I         J         SYM. A    SYM. B    A         B      T(IJ, AB)

         4         4         2         2         1         1     -0.05932683
         5         5         3         3         1         1     -0.05932683


 Total CPU time for triples:      1.38 sec


 RESULTS
 =======

  Reference energy                    -92.805966145393
  CCSD singlet pair energy             -0.239607708359
  CCSD triplet pair energy             -0.105883020912
  CCSD correlation energy              -0.345490729270

  Triples (T) contribution             -0.017192040554
  Total correlation energy             -0.362682769824

  CCSD total energy                   -93.151456874662
  CCSD[T] energy                      -93.169363129527
  CCSD-T energy                       -93.168296850860
 !CCSD(T) total energy                -93.168648915217

 Timing summary (sec):

 STEP                 CPU(USER)    SYS     CPU(TOT)    WALL
 Transformation          0.22      0.06      0.28      0.28
 CCSD iterations         4.79      0.69      5.48      5.47
 Triples                 1.38      0.05      1.43      1.44

 Program statistics:

 Available memory in ccsd:               994999800
 Min. memory needed in ccsd:                377822
 Max. memory used in ccsd:                  449387
 Max. memory used in cckext:                547289 (21 integral passes)



 **********************************************************************************************************************************
 DATASETS  * FILE   NREC   LENGTH (MB)   RECORD NAMES
              1      20      238.47       500      610      700      900      950      970     1000      129      960     1100   
                                          VAR    BASINP    GEOM    SYMINP    ZMAT    AOBASIS   BASIS     P2S    ABASIS      S 
                                         1400     1410     1200     1210     1080     1600     1650     1300     1700     1380   
                                           T        V       H0       H01     AOSYM     SMH    MOLCAS    ERIS     OPER     JKOP   

              2       4        2.98       700     1000      520     2100   
                                         GEOM     BASIS   MCVARS     RHF  

 PROGRAMS   *        TOTAL   CCSD(T)        HF       INT
 CPU TIMES  *        11.37      6.41      1.76      3.10
 REAL TIME  *        13.93 SEC
 DISK USED  *       641.09 MB      
 **********************************************************************************************************************************

 CCSD(T)/USERDEF energy=    -93.168648915217

        CCSD(T)         HF-SCF  
    -93.16864892    -92.80596615
 **********************************************************************************************************************************
 Molpro calculation terminated
 Variable memory released
