
 Primary working directories    : /tmp/r2666/232697.maple
 Secondary working directories  : /tmp/r2666/232697.maple
 Wavefunction directory         : /ddn/home4/r2666/wfu/
 Main file repository           : /tmp/r2666/232697.maple/

 SHA1      : d5ffa45e93fdbca01ffc919aa182cfdae0147319
 NAME      : 2015.1.35
 ARCHNAME  : linux/x86_64
 FC        : /opt/intel/composer_xe_2015.1.133/bin/intel64/ifort
 BLASLIB   : -Wl,-_start-group /opt/intel/mkl/lib/intel64/libmkl_intel_ilp64.a /opt/intel/mkl/lib/intel64/libmkl_intel_thread.a /opt/intel/mkl/lib/intel64/libmkl_core.a -Wl,-_end-group
 id        : olemiss

 Nodes     nprocs
 cn094        1

 Using customized tuning parameters: mindgm=1; mindgv=20; mindgc=4; mindgr=1; noblas=0; minvec=7
 default implementation of scratch files=df  

 ***,hcn CCSD(T)/TZ-F12 QFF
 memory, 995, m;
 gthresh,energy=1.d-12,zero=1.d-22,oneint=1.d-22,twoint=1.d-22;
 gthresh,optgrad=1.d-8,optstep=1.d-8;
 nocompress;
 geomtyp=xyz
 bohr
 geometry={
 3
         31        31
 N       -0.0046276102        0.0000000806        1.1278021468
 C        0.0096352225       -0.0000000021       -1.0510008372
 H       -0.0050076123       -0.0000000785       -3.0738712917
 }
 
 basis={
 default=aug-cc-pvtz
 s,C,8236.0,1235.0,280.8, 79.27,25.59, 8.997,3.319
 s,C,0.9059,0.3643,0.1285000
 p,C,56.0,18.71,4.133,0.2827,0.3827,0.1209
 d,C,30.0,10.0,3.3,1.097,0.318
 f,C,7.0,2.3,0.7610
 s,N,11420.0,1712.0,389.3,110.0,35.57,12.54,4.644
 s,N,1.293,0.5118,0.1787
 p,N,79.89,26.63,5.948,1.742,0.555,0.1725
 d,N,45.0,15.0,5.0,1.654,0.469
 f,N,9.9,3.3,1.093
 s,O,15330.0,2299.0,522.4,147.3,47.55,16.76,6.207
 s,O,1.752,0.6882,0.2384
 p,O,103.5,34.46,7.749,2.28,0.7156,0.214
 d,O,63.0,21.0,7.0,2.314,0.645
 f,O,12.9,4.3,1.428
 s,mg,164900.0,24710.0,5628.0,1596.0,521.0;
 s,mg,188.0,73.01,29.90,12.54,4.306,1.826;
 s,mg,0.7417,0.0761,0.145,0.033,0.0129;
 p,mg,950.70,316.90,74.86,23.72,8.669,3.363;
 p,mg,1.310,0.4911,0.2364,0.08733,0.03237,0.00745;
 d,mg,1.601,0.686,0.126,0.294,0.0468;
 f,mg,1.372,0.588,0.094,0.252;
 }
   {hf,maxit=500;accu,20;}
 {ccsd(t),nocheck,maxit=250;orbital,IGNORE_ERROR;}

 Variables initialized (889), CPU time= 0.01 sec
 Commands  initialized (702), CPU time= 0.01 sec, 572 directives.
 Default parameters read. Elapsed time= 0.04 sec

 Checking input...
 Passed
1


                                         ***  PROGRAM SYSTEM MOLPRO  ***
                                       Copyright, TTI GmbH Stuttgart, 2015
                                    Version 2015.1 linked Jul  9 2018 13:16:40


 **********************************************************************************************************************************
 LABEL *   hcn CCSD(T)/TZ-F12 QFF                                                        
  64 bit serial version                                                                  DATE: 06-Feb-20          TIME: 09:54:47  
 **********************************************************************************************************************************

 SHA1:             d5ffa45e93fdbca01ffc919aa182cfdae0147319
 **********************************************************************************************************************************

 THRESHOLDS:

 ZERO    =  1.00D-22  ONEINT  =  1.00D-22  TWOINT  =  1.00D-22  PREFAC  =  1.00D-14  LOCALI  =  1.00D-09  EORDER  =  1.00D-04
 ENERGY  =  1.00D-12  ETEST   =  0.00D+00  EDENS   =  0.00D+00  THRDEDEF=  1.00D-06  GRADIENT=  1.00D-02  STEP    =  1.00D-03
 ORBITAL =  1.00D-05  CIVEC   =  1.00D-05  COEFF   =  1.00D-04  PRINTCI =  5.00D-02  PUNCHCI =  9.90D+01  OPTGRAD =  3.00D-04
 OPTENERG=  1.00D-06  OPTSTEP =  3.00D-04  THRGRAD =  1.00D-10  COMPRESS=  1.00D-11  VARMIN  =  1.00D-07  VARMAX  =  1.00D-03
 THRDOUB =  0.00D+00  THRDIV  =  1.00D-05  THRRED  =  1.00D-07  THRPSP  =  1.00D+00  THRDC   =  1.00D-10  THRCS   =  1.00D-10
 THRNRM  =  1.00D-08  THREQ   =  0.00D+00  THRDE   =  1.00D+00  THRREF  =  1.00D-05  SPARFAC =  1.00D+00  THRDLP  =  1.00D-07
 THRDIA  =  1.00D-10  THRDLS  =  1.00D-07  THRGPS  =  0.00D+00  THRKEX  =  0.00D+00  THRDIS  =  2.00D-01  THRVAR  =  1.00D-10
 THRLOC  =  1.00D-06  THRGAP  =  1.00D-06  THRLOCT = -1.00D+00  THRGAPT = -1.00D+00  THRORB  =  1.00D-06  THRMLTP =  0.00D+00
 THRCPQCI=  1.00D-10  KEXTA   =  0.00D+00  THRCOARS=  0.00D+00  SYMTOL  =  1.00D-06  GRADTOL =  1.00D-06  THROVL  =  1.00D-08
 THRORTH =  1.00D-08  GRID    =  1.00D-06  GRIDMAX =  1.00D-03  DTMAX   =  0.00D+00  THROCCDE=  1.00D-01  THROCCDE=  1.00D-01



 THRESHOLDS:

 ZERO    =  1.00D-22  ONEINT  =  1.00D-22  TWOINT  =  1.00D-22  PREFAC  =  1.00D-14  LOCALI  =  1.00D-09  EORDER  =  1.00D-04
 ENERGY  =  1.00D-12  ETEST   =  0.00D+00  EDENS   =  0.00D+00  THRDEDEF=  1.00D-06  GRADIENT=  1.00D-02  STEP    =  1.00D-03
 ORBITAL =  1.00D-05  CIVEC   =  1.00D-05  COEFF   =  1.00D-04  PRINTCI =  5.00D-02  PUNCHCI =  9.90D+01  OPTGRAD =  1.00D-08
 OPTENERG=  1.00D-06  OPTSTEP =  1.00D-08  THRGRAD =  1.00D-10  COMPRESS=  1.00D-11  VARMIN  =  1.00D-07  VARMAX  =  1.00D-03
 THRDOUB =  0.00D+00  THRDIV  =  1.00D-05  THRRED  =  1.00D-07  THRPSP  =  1.00D+00  THRDC   =  1.00D-10  THRCS   =  1.00D-10
 THRNRM  =  1.00D-08  THREQ   =  0.00D+00  THRDE   =  1.00D+00  THRREF  =  1.00D-05  SPARFAC =  1.00D+00  THRDLP  =  1.00D-07
 THRDIA  =  1.00D-10  THRDLS  =  1.00D-07  THRGPS  =  0.00D+00  THRKEX  =  0.00D+00  THRDIS  =  2.00D-01  THRVAR  =  1.00D-10
 THRLOC  =  1.00D-06  THRGAP  =  1.00D-06  THRLOCT = -1.00D+00  THRGAPT = -1.00D+00  THRORB  =  1.00D-06  THRMLTP =  0.00D+00
 THRCPQCI=  1.00D-10  KEXTA   =  0.00D+00  THRCOARS=  0.00D+00  SYMTOL  =  1.00D-06  GRADTOL =  1.00D-06  THROVL  =  1.00D-08
 THRORTH =  1.00D-08  GRID    =  1.00D-06  GRIDMAX =  1.00D-03  DTMAX   =  0.00D+00  THROCCDE=  1.00D-01  THROCCDE=  1.00D-01



 Input parameters for SORTINT:

 COMPRESS =    0.000000
 C_FINAL  =    1.000000
 DEBUG    =   -1.000000
 C_SORT1  =    0.000000
 C_SEWARD =    0.000000
 THRESH   =    0.000000
 IO       =  molpro                                                          
 SPRI     =    0.000000
 SETTING GEOMTYP        =    XYZ
 ZUNIT=BOHR
 

 Variable memory set to  995000000 words,  buffer space   230000 words

 SETTING BASIS          =    USERDEF


 Recomputing integrals since basis changed


 Using spherical harmonics

 Library entry H      S aug-cc-pVTZ          selected for orbital group  3
 Library entry H      P aug-cc-pVTZ          selected for orbital group  3
 Library entry H      D aug-cc-pVTZ          selected for orbital group  3


 PROGRAM * SEWARD (Integral evaluation for generally contracted gaussian basis sets)     Author: Roland Lindh, 1990

 Geometry written to block  1 of record 700


 Point group  Cs  



 ATOMIC COORDINATES

 NR  ATOM    CHARGE       X              Y              Z

   1  N       7.00   -0.004627610    0.000000000    1.127802147
   2  C       6.00    0.009635223    0.000000000   -1.051000837
   3  H       1.00   -0.005007612    0.000000000   -3.073871292

 Bond lengths in Bohr (Angstrom)

 1-2  2.178849667  2-3  2.022923451
     ( 1.152997590)     ( 1.070484990)

 Bond angles

  1-2-3  179.21020059

 NUCLEAR CHARGE:                   14
 NUMBER OF PRIMITIVE AOS:         203
 NUMBER OF SYMMETRY AOS:          173
 NUMBER OF CONTRACTIONS:          171   ( 114A'  +  57A"  )
 NUMBER OF CORE ORBITALS:           2   (   2A'  +   0A"  )
 NUMBER OF VALENCE ORBITALS:        9   (   7A'  +   2A"  )


 NUCLEAR REPULSION ENERGY   23.90823397


 Eigenvalues of metric

         1 0.248E-03 0.525E-03 0.921E-03 0.139E-02 0.318E-02 0.543E-02 0.767E-02 0.101E-01
         2 0.543E-02 0.158E-01 0.224E-01 0.349E-01 0.968E-01 0.113E+00 0.125E+00 0.125E+00


 Contracted 2-electron integrals neglected if value below      1.0D-22

       47998082. INTEGRALS WRITTEN OUT IN   11722 BLOCKS ON RECORD 1290 OF FILE 1


 NUMBER OF SORTED TWO-ELECTRON INTEGRALS:   55360566.     BUFFER LENGTH:  32768
 NUMBER OF SEGMENTS:   4  SEGMENT LENGTH:   15997996      RECORD LENGTH: 524288

 Memory used in sort:      16.56 MW

 SORT1 READ    47998082. AND WROTE    48453320. INTEGRALS IN    141 RECORDS. CPU TIME:     0.81 SEC, REAL TIME:     1.12 SEC
 SORT2 READ    48453320. AND WROTE    55360566. INTEGRALS IN      4 RECORDS. CPU TIME:     0.64 SEC, REAL TIME:     0.91 SEC

 FILE SIZES:   FILE 1:   788.9 MBYTE,  FILE 4:   591.4 MBYTE,   TOTAL:   1380.4 MBYTE

 OPERATOR DM      FOR CENTER  0  COORDINATES:    0.000000    0.000000    0.000000


 **********************************************************************************************************************************
 DATASETS  * FILE   NREC   LENGTH (MB)   RECORD NAMES
              1      19      432.69       500      610      700      900      950      970     1000      129      960     1100   
                                          VAR    BASINP    GEOM    SYMINP    ZMAT    AOBASIS   BASIS     P2S    ABASIS      S 
                                         1400     1410     1200     1210     1080     1600     1650     1300     1700   
                                           T        V       H0       H01     AOSYM     SMH    MOLCAS    ERIS     OPER   

 PROGRAMS   *        TOTAL       INT
 CPU TIMES  *         4.39      4.30
 REAL TIME  *         5.94 SEC
 DISK USED  *         1.38 GB      
 **********************************************************************************************************************************


 PROGRAM * RHF-SCF (CLOSED SHELL)       Authors: W. Meyer, H.-J. Werner


 NUMBER OF ELECTRONS:       7+    7-
 CONVERGENCE THRESHOLDS:    1.00E-10 (Density)    1.00E-13 (Energy)
 MAX. NUMBER OF ITERATIONS:      500
 INTERPOLATION TYPE:            DIIS
 INTERPOLATION STEPS:              2 (START)      1 (STEP)
 LEVEL SHIFTS:                  0.00 (CLOSED)  0.00 (OPEN) 



 Orbital guess generated from atomic densities. Full valence occupancy:    9   2

 Molecular orbital dump at record        2100.2

 Initial occupancy:   6   1

 ITERATION    DDIFF          GRAD             ENERGY        2-EL.EN.            DIPOLE MOMENTS         DIIS   ORB.
    1      0.000D+00      0.000D+00       -92.77151104    111.716135    0.00839    0.00000   -2.03076    0    start
    2      0.000D+00      0.712D-02       -92.78386348    109.991254   -0.00326    0.00000   -0.94685    1    diag
    3      0.257D-01      0.616D-02       -92.80602058    110.924781    0.00162    0.00000   -1.45233    2    diag
    4      0.886D-02      0.439D-03       -92.80626955    110.875510    0.00126    0.00000   -1.44512    3    diag
    5      0.140D-02      0.984D-04       -92.80628418    110.883657    0.00114    0.00000   -1.44384    4    diag
    6      0.394D-03      0.258D-04       -92.80628498    110.879436    0.00113    0.00000   -1.44411    5    diag
    7      0.316D-04      0.915D-05       -92.80628507    110.880426    0.00112    0.00000   -1.44418    6    diag
    8      0.119D-04      0.183D-05       -92.80628507    110.880408    0.00112    0.00000   -1.44417    7    diag
    9      0.617D-05      0.201D-06       -92.80628507    110.880416    0.00112    0.00000   -1.44416    8    diag
   10      0.104D-05      0.229D-07       -92.80628507    110.880417    0.00112    0.00000   -1.44417    9    orth
   11      0.103D-06      0.414D-08       -92.80628507    110.880417    0.00112    0.00000   -1.44417    9    diag
   12      0.137D-07      0.153D-08       -92.80628507    110.880417    0.00112    0.00000   -1.44417    9    diag
   13      0.653D-08      0.691D-09       -92.80628507    110.880417    0.00112    0.00000   -1.44417    9    diag
   14      0.440D-08      0.185D-09       -92.80628507    110.880417    0.00112    0.00000   -1.44417    9    diag
   15      0.115D-08      0.703D-10       -92.80628507    110.880417    0.00112    0.00000   -1.44417    9    diag
   16      0.353D-09      0.167D-10       -92.80628507    110.880417    0.00112    0.00000   -1.44417    9    diag
   17      0.837D-10      0.454D-11       -92.80628507    110.880417    0.00112    0.00000   -1.44417    9    diag
   18      0.139D-10      0.105D-11       -92.80628507    110.880417    0.00112    0.00000   -1.44417    9    diag
   19      0.242D-11      0.232D-12       -92.80628507    110.880417    0.00112    0.00000   -1.44417    9    fixocc
   20      0.141D-11      0.323D-12       -92.80628507    110.880417    0.00112    0.00000   -1.44417    0    orth

 Final occupancy:   6   1

 !RHF STATE 1.1 Energy                -92.806285074376
 Nuclear energy                        23.90823397
 One-electron energy                 -172.15472752
 Two-electron energy                   55.44020847
 Virial quotient                       -1.00247118
 !RHF STATE 1.1 Dipole moment           0.00112335     0.00000000    -1.44416530
 Dipole moment /Debye                   0.00285508     0.00000000    -3.67046163

 Orbital energies:

         1.1          2.1          3.1          4.1          5.1          6.1          7.1          8.1
    -15.590948   -11.399752    -1.253728    -0.834045    -0.577887    -0.490397     0.032635     0.133539

         1.2          2.2          3.2
     -0.490399     0.133605     0.306313

 HOMO      6.1    -0.490397 =     -13.3444eV
 LUMO      7.1     0.032635 =       0.8880eV
 LUMO-HOMO         0.523032 =      14.2324eV


 **********************************************************************************************************************************
 DATASETS  * FILE   NREC   LENGTH (MB)   RECORD NAMES
              1      19      432.69       500      610      700      900      950      970     1000      129      960     1100   
                                          VAR    BASINP    GEOM    SYMINP    ZMAT    AOBASIS   BASIS     P2S    ABASIS      S 
                                         1400     1410     1200     1210     1080     1600     1650     1300     1700   
                                           T        V       H0       H01     AOSYM     SMH    MOLCAS    ERIS     OPER   

              2       4        3.13       700     1000      520     2100   
                                         GEOM     BASIS   MCVARS     RHF  

 PROGRAMS   *        TOTAL        HF       INT
 CPU TIMES  *         9.73      5.34      4.30
 REAL TIME  *        12.55 SEC
 DISK USED  *         1.38 GB      
 **********************************************************************************************************************************


 PROGRAM * CCSD (Closed-shell coupled cluster)     Authors: C. Hampel, H.-J. Werner, 1991, M. Deegan, P.J. Knowles, 1992


 Convergence thresholds:  THRVAR = 1.00D-08  THRDEN = 1.00D-12

 CCSD(T)     terms to be evaluated (factor= 1.000)


 Number of core orbitals:           2 (   2   0 )
 Number of closed-shell orbitals:   5 (   4   1 )
 Number of external orbitals:     164 ( 108  56 )

 Molecular orbitals read from record     2100.2  Type=RHF/CANONICAL (state 1.1)

 Number of N-1 electron functions:               5
 Number of N-2 electron functions:              15
 Number of singly external CSFs:               488
 Number of doubly external CSFs:            174594
 Total number of CSFs:                      175083

 Length of J-op  integral file:               0.00 MB
 Length of K-op  integral file:               1.15 MB
 Length of 3-ext integral record:             0.00 MB

 Memory could be reduced to 17.82 Mwords without degradation in triples

 Integral transformation finished. Total CPU:   0.66 sec, npass=  1  Memory used:   4.44 MW

 Reference energy:                    -92.80628507

 MP2 singlet pair energy:              -0.21676266
 MP2 triplet pair energy:              -0.12409723
 MP2 correlation energy:               -0.34085989
 MP2 total energy:                    -93.14714497

 SCS-MP2 correlation energy:           -0.33733125   (PS=  1.200000  PT=  0.333333)
 SCS-MP2 total energy:                -93.14361632

 ITER.      SQ.NORM     CORR.ENERGY   TOTAL ENERGY   ENERGY CHANGE        DEN1      VAR(S)    VAR(P)  DIIS     TIME  TIME/IT
   1      1.11049549    -0.34409908   -93.15038416    -0.00323919     0.00857580  0.23D-02  0.26D-02  1  1     1.24     0.63
   2      1.11890285    -0.34448753   -93.15077261    -0.00038845    -0.00904123  0.75D-04  0.36D-03  2  2     1.83     0.66
   3      1.12366719    -0.34468224   -93.15096731    -0.00019470    -0.00263937  0.10D-04  0.41D-04  3  3     2.40     0.65
   4      1.12547204    -0.34475164   -93.15103671    -0.00006940    -0.00060441  0.89D-06  0.45D-05  4  4     2.99     0.65
   5      1.12599239    -0.34475039   -93.15103547     0.00000124    -0.00015749  0.14D-06  0.37D-06  5  5     3.57     0.65
   6      1.12608268    -0.34474809   -93.15103317     0.00000230    -0.00002277  0.90D-08  0.30D-07  6  6     4.14     0.65
   7      1.12608991    -0.34474948   -93.15103456    -0.00000139     0.00000021  0.13D-08  0.24D-08  6  1     4.71     0.66
   8      1.12609268    -0.34474980   -93.15103487    -0.00000032    -0.00000104  0.25D-09  0.18D-09  6  2     5.33     0.66
   9      1.12609264    -0.34474987   -93.15103494    -0.00000007     0.00000018  0.21D-10  0.17D-10  6  3     5.93     0.66
  10      1.12609271    -0.34474988   -93.15103496    -0.00000001     0.00000005  0.51D-11  0.22D-11  6  4     6.53     0.66
  11      1.12609274    -0.34474988   -93.15103496    -0.00000000     0.00000000  0.51D-12  0.44D-12  6  5     7.12     0.66
  12      1.12609270    -0.34474989   -93.15103496    -0.00000000     0.00000003  0.40D-13  0.11D-12  6  6     7.75     0.67
  13      1.12609266    -0.34474989   -93.15103496    -0.00000000     0.00000001  0.26D-14  0.14D-13  6  1     8.33     0.67
  14      1.12609264    -0.34474989   -93.15103496    -0.00000000     0.00000001  0.71D-15  0.18D-14  6  2     8.94     0.67
  15      1.12609263    -0.34474989   -93.15103496    -0.00000000     0.00000000  0.13D-15  0.27D-15  6  3     9.53     0.67
  16      1.12609263    -0.34474989   -93.15103496    -0.00000000     0.00000000  0.12D-16  0.13D-16  6  5    10.14     0.67
  17      1.12609263    -0.34474989   -93.15103496    -0.00000000     0.00000000  0.17D-17  0.76D-18  6  4    10.73     0.67
  18      1.12609263    -0.34474989   -93.15103496     0.00000000    -0.00000000  0.48D-18  0.18D-18  6  6    11.36     0.67
  19      1.12609263    -0.34474989   -93.15103496     0.00000000    -0.00000000  0.61D-19  0.22D-19  6  2    11.94     0.67
  20      1.12609263    -0.34474989   -93.15103496    -0.00000000    -0.00000000  0.89D-20  0.36D-20  6  1    12.52     0.67
  21      1.12609263    -0.34474989   -93.15103496    -0.00000000     0.00000000  0.93D-21  0.66D-21  6  5    13.17     0.67

 Norm of t1 vector:      0.06179348      S-energy:    -0.00000000      T1 diagnostic:  0.01381744
                                                                       D1 diagnostic:  0.02679912

 Doubles amplitudes (print threshold =  0.500E-01):

         I         J         SYM. A    SYM. B    A         B      T(IJ, AB)

         4         4         1         1         2         2     -0.05830848
         5         5         2         2         1         1     -0.05841418


 Total CPU time for triples:      5.53 sec


 RESULTS
 =======

  Reference energy                    -92.806285074376
  CCSD singlet pair energy             -0.238980878871
  CCSD triplet pair energy             -0.105769008202
  CCSD correlation energy              -0.344749887074

  Triples (T) contribution             -0.017028161627
  Total correlation energy             -0.361778048701

  CCSD total energy                   -93.151034961450
  CCSD[T] energy                      -93.168759754756
  CCSD-T energy                       -93.167718727184
 !CCSD(T) total energy                -93.168063123077

 Timing summary (sec):

 STEP                 CPU(USER)    SYS     CPU(TOT)    WALL
 Transformation          0.66      0.15      0.81      0.83
 CCSD iterations        12.51      1.64     14.15     14.13
 Triples                 5.53      0.17      5.70      5.71

 Program statistics:

 Available memory in ccsd:               994999800
 Min. memory needed in ccsd:                705325
 Max. memory used in ccsd:                  840968
 Max. memory used in cckext:               1345378 (21 integral passes)



 **********************************************************************************************************************************
 DATASETS  * FILE   NREC   LENGTH (MB)   RECORD NAMES
              1      20      481.32       500      610      700      900      950      970     1000      129      960     1100   
                                          VAR    BASINP    GEOM    SYMINP    ZMAT    AOBASIS   BASIS     P2S    ABASIS      S 
                                         1400     1410     1200     1210     1080     1600     1650     1300     1700     1380   
                                           T        V       H0       H01     AOSYM     SMH    MOLCAS    ERIS     OPER     JKOP   

              2       4        3.13       700     1000      520     2100   
                                         GEOM     BASIS   MCVARS     RHF  

 PROGRAMS   *        TOTAL   CCSD(T)        HF       INT
 CPU TIMES  *        28.45     18.72      5.34      4.30
 REAL TIME  *        33.27 SEC
 DISK USED  *         1.38 GB      
 **********************************************************************************************************************************

 CCSD(T)/USERDEF energy=    -93.168063123077

        CCSD(T)         HF-SCF  
    -93.16806312    -92.80628507
 **********************************************************************************************************************************
 Molpro calculation terminated
 Variable memory released
