
 Primary working directories    : /tmp/r2666/232676.maple
 Secondary working directories  : /tmp/r2666/232676.maple
 Wavefunction directory         : /ddn/home4/r2666/wfu/
 Main file repository           : /tmp/r2666/232676.maple/

 SHA1      : d5ffa45e93fdbca01ffc919aa182cfdae0147319
 NAME      : 2015.1.35
 ARCHNAME  : linux/x86_64
 FC        : /opt/intel/composer_xe_2015.1.133/bin/intel64/ifort
 BLASLIB   : -Wl,-_start-group /opt/intel/mkl/lib/intel64/libmkl_intel_ilp64.a /opt/intel/mkl/lib/intel64/libmkl_intel_thread.a /opt/intel/mkl/lib/intel64/libmkl_core.a -Wl,-_end-group
 id        : olemiss

 Nodes     nprocs
 cn080        1

 Using customized tuning parameters: mindgm=1; mindgv=20; mindgc=4; mindgr=1; noblas=0; minvec=7
 default implementation of scratch files=df  

 ***,hcn CCSD(T)/TZ-F12 QFF
 memory, 995, m;
 gthresh,energy=1.d-12,zero=1.d-22,oneint=1.d-22,twoint=1.d-22;
 gthresh,optgrad=1.d-8,optstep=1.d-8;
 nocompress;
 geomtyp=xyz
 bohr
 geometry={
 3
         10        10
 N        0.0000000000        0.0000000000        1.1184023044
 C        0.0000000000        0.0000000000       -1.0415501027
 H        0.0000000000        0.0000000000       -3.0739221836
 }
 
 basis={
 default=aug-cc-pvtz
 s,C,8236.0,1235.0,280.8, 79.27,25.59, 8.997,3.319
 s,C,0.9059,0.3643,0.1285000
 p,C,56.0,18.71,4.133,0.2827,0.3827,0.1209
 d,C,30.0,10.0,3.3,1.097,0.318
 f,C,7.0,2.3,0.7610
 s,N,11420.0,1712.0,389.3,110.0,35.57,12.54,4.644
 s,N,1.293,0.5118,0.1787
 p,N,79.89,26.63,5.948,1.742,0.555,0.1725
 d,N,45.0,15.0,5.0,1.654,0.469
 f,N,9.9,3.3,1.093
 s,O,15330.0,2299.0,522.4,147.3,47.55,16.76,6.207
 s,O,1.752,0.6882,0.2384
 p,O,103.5,34.46,7.749,2.28,0.7156,0.214
 d,O,63.0,21.0,7.0,2.314,0.645
 f,O,12.9,4.3,1.428
 s,mg,164900.0,24710.0,5628.0,1596.0,521.0;
 s,mg,188.0,73.01,29.90,12.54,4.306,1.826;
 s,mg,0.7417,0.0761,0.145,0.033,0.0129;
 p,mg,950.70,316.90,74.86,23.72,8.669,3.363;
 p,mg,1.310,0.4911,0.2364,0.08733,0.03237,0.00745;
 d,mg,1.601,0.686,0.126,0.294,0.0468;
 f,mg,1.372,0.588,0.094,0.252;
 }
   {hf,maxit=500;accu,20;}
 {ccsd(t),nocheck,maxit=250;orbital,IGNORE_ERROR;}

 Variables initialized (889), CPU time= 0.01 sec
 Commands  initialized (702), CPU time= 0.01 sec, 572 directives.
 Default parameters read. Elapsed time= 0.04 sec

 Checking input...
 Passed
1


                                         ***  PROGRAM SYSTEM MOLPRO  ***
                                       Copyright, TTI GmbH Stuttgart, 2015
                                    Version 2015.1 linked Jul  9 2018 13:16:40


 **********************************************************************************************************************************
 LABEL *   hcn CCSD(T)/TZ-F12 QFF                                                        
  64 bit serial version                                                                  DATE: 06-Feb-20          TIME: 09:54:46  
 **********************************************************************************************************************************

 SHA1:             d5ffa45e93fdbca01ffc919aa182cfdae0147319
 **********************************************************************************************************************************

 THRESHOLDS:

 ZERO    =  1.00D-22  ONEINT  =  1.00D-22  TWOINT  =  1.00D-22  PREFAC  =  1.00D-14  LOCALI  =  1.00D-09  EORDER  =  1.00D-04
 ENERGY  =  1.00D-12  ETEST   =  0.00D+00  EDENS   =  0.00D+00  THRDEDEF=  1.00D-06  GRADIENT=  1.00D-02  STEP    =  1.00D-03
 ORBITAL =  1.00D-05  CIVEC   =  1.00D-05  COEFF   =  1.00D-04  PRINTCI =  5.00D-02  PUNCHCI =  9.90D+01  OPTGRAD =  3.00D-04
 OPTENERG=  1.00D-06  OPTSTEP =  3.00D-04  THRGRAD =  1.00D-10  COMPRESS=  1.00D-11  VARMIN  =  1.00D-07  VARMAX  =  1.00D-03
 THRDOUB =  0.00D+00  THRDIV  =  1.00D-05  THRRED  =  1.00D-07  THRPSP  =  1.00D+00  THRDC   =  1.00D-10  THRCS   =  1.00D-10
 THRNRM  =  1.00D-08  THREQ   =  0.00D+00  THRDE   =  1.00D+00  THRREF  =  1.00D-05  SPARFAC =  1.00D+00  THRDLP  =  1.00D-07
 THRDIA  =  1.00D-10  THRDLS  =  1.00D-07  THRGPS  =  0.00D+00  THRKEX  =  0.00D+00  THRDIS  =  2.00D-01  THRVAR  =  1.00D-10
 THRLOC  =  1.00D-06  THRGAP  =  1.00D-06  THRLOCT = -1.00D+00  THRGAPT = -1.00D+00  THRORB  =  1.00D-06  THRMLTP =  0.00D+00
 THRCPQCI=  1.00D-10  KEXTA   =  0.00D+00  THRCOARS=  0.00D+00  SYMTOL  =  1.00D-06  GRADTOL =  1.00D-06  THROVL  =  1.00D-08
 THRORTH =  1.00D-08  GRID    =  1.00D-06  GRIDMAX =  1.00D-03  DTMAX   =  0.00D+00  THROCCDE=  1.00D-01  THROCCDE=  1.00D-01



 THRESHOLDS:

 ZERO    =  1.00D-22  ONEINT  =  1.00D-22  TWOINT  =  1.00D-22  PREFAC  =  1.00D-14  LOCALI  =  1.00D-09  EORDER  =  1.00D-04
 ENERGY  =  1.00D-12  ETEST   =  0.00D+00  EDENS   =  0.00D+00  THRDEDEF=  1.00D-06  GRADIENT=  1.00D-02  STEP    =  1.00D-03
 ORBITAL =  1.00D-05  CIVEC   =  1.00D-05  COEFF   =  1.00D-04  PRINTCI =  5.00D-02  PUNCHCI =  9.90D+01  OPTGRAD =  1.00D-08
 OPTENERG=  1.00D-06  OPTSTEP =  1.00D-08  THRGRAD =  1.00D-10  COMPRESS=  1.00D-11  VARMIN  =  1.00D-07  VARMAX  =  1.00D-03
 THRDOUB =  0.00D+00  THRDIV  =  1.00D-05  THRRED  =  1.00D-07  THRPSP  =  1.00D+00  THRDC   =  1.00D-10  THRCS   =  1.00D-10
 THRNRM  =  1.00D-08  THREQ   =  0.00D+00  THRDE   =  1.00D+00  THRREF  =  1.00D-05  SPARFAC =  1.00D+00  THRDLP  =  1.00D-07
 THRDIA  =  1.00D-10  THRDLS  =  1.00D-07  THRGPS  =  0.00D+00  THRKEX  =  0.00D+00  THRDIS  =  2.00D-01  THRVAR  =  1.00D-10
 THRLOC  =  1.00D-06  THRGAP  =  1.00D-06  THRLOCT = -1.00D+00  THRGAPT = -1.00D+00  THRORB  =  1.00D-06  THRMLTP =  0.00D+00
 THRCPQCI=  1.00D-10  KEXTA   =  0.00D+00  THRCOARS=  0.00D+00  SYMTOL  =  1.00D-06  GRADTOL =  1.00D-06  THROVL  =  1.00D-08
 THRORTH =  1.00D-08  GRID    =  1.00D-06  GRIDMAX =  1.00D-03  DTMAX   =  0.00D+00  THROCCDE=  1.00D-01  THROCCDE=  1.00D-01



 Input parameters for SORTINT:

 COMPRESS =    0.000000
 C_FINAL  =    1.000000
 DEBUG    =   -1.000000
 C_SORT1  =    0.000000
 C_SEWARD =    0.000000
 THRESH   =    0.000000
 IO       =  molpro                                                          
 SPRI     =    0.000000
 SETTING GEOMTYP        =    XYZ
 ZUNIT=BOHR
 

 Variable memory set to  995000000 words,  buffer space   230000 words

 SETTING BASIS          =    USERDEF


 Recomputing integrals since basis changed


 Using spherical harmonics

 Library entry H      S aug-cc-pVTZ          selected for orbital group  3
 Library entry H      P aug-cc-pVTZ          selected for orbital group  3
 Library entry H      D aug-cc-pVTZ          selected for orbital group  3


 PROGRAM * SEWARD (Integral evaluation for generally contracted gaussian basis sets)     Author: Roland Lindh, 1990

 Geometry written to block  1 of record 700


 Point group  C2v 



 ATOMIC COORDINATES

 NR  ATOM    CHARGE       X              Y              Z

   1  N       7.00    0.000000000    0.000000000    1.118402304
   2  C       6.00    0.000000000    0.000000000   -1.041550103
   3  H       1.00    0.000000000    0.000000000   -3.073922184

 Bond lengths in Bohr (Angstrom)

 1-2  2.159952407  2-3  2.032372081
     ( 1.142997591)     ( 1.075484989)

 Bond angles

  1-2-3  180.00000000

 NUCLEAR CHARGE:                   14
 NUMBER OF PRIMITIVE AOS:         203
 NUMBER OF SYMMETRY AOS:          173
 NUMBER OF CONTRACTIONS:          171   (  75A1  +  39B1  +  39B2  +  18A2  )
 NUMBER OF CORE ORBITALS:           2   (   2A1  +   0B1  +   0B2  +   0A2  )
 NUMBER OF VALENCE ORBITALS:        9   (   5A1  +   2B1  +   2B2  +   0A2  )


 NUCLEAR REPULSION ENERGY   24.06680629

 EXTRA SYMMETRY OF AOS IN SYMMETRY 1:   1 1 1 1 1 1 1 1 1 1   1 1 1 1 1 1 1 2 1 2   1 2 1 2 1 2 1 2 1 2   1 2 1 1 1 1 1 1 1 1
                                        1 1 1 1 1 1 1 1 1 2   1 2 1 2 1 2 1 2 1 2   1 2 1 2 1 1 1 1 1 1   1 1 2 1 2
 EXTRA SYMMETRY OF AOS IN SYMMETRY 2:   1 1 1 1 1 1 1 1 1 1   1 1 2 1 2 1 2 1 1 1   1 1 1 1 1 1 1 1 1 2   1 2 1 2 1 1 1 1 1
 EXTRA SYMMETRY OF AOS IN SYMMETRY 3:   1 1 1 1 1 1 1 1 1 1   1 1 2 1 2 1 2 1 1 1   1 1 1 1 1 1 1 1 1 2   1 2 1 2 1 1 1 1 1

 Eigenvalues of metric

         1 0.250E-03 0.502E-03 0.917E-03 0.140E-02 0.317E-02 0.772E-02 0.102E-01 0.132E-01
         2 0.538E-02 0.156E-01 0.222E-01 0.347E-01 0.971E-01 0.113E+00 0.125E+00 0.188E+00
         3 0.538E-02 0.156E-01 0.222E-01 0.347E-01 0.971E-01 0.113E+00 0.125E+00 0.188E+00
         4 0.124E+00 0.140E+00 0.193E+00 0.258E+00 0.314E+00 0.379E+00 0.484E+00 0.596E+00


 Contracted 2-electron integrals neglected if value below      1.0D-22

       21808262. INTEGRALS WRITTEN OUT IN    5326 BLOCKS ON RECORD 1290 OF FILE 1


 NUMBER OF SORTED TWO-ELECTRON INTEGRALS:   28272141.     BUFFER LENGTH:  32768
 NUMBER OF SEGMENTS:   2  SEGMENT LENGTH:   15998211      RECORD LENGTH: 524288

 Memory used in sort:      16.56 MW

 SORT1 READ    21808262. AND WROTE    22207702. INTEGRALS IN     65 RECORDS. CPU TIME:     0.51 SEC, REAL TIME:     0.65 SEC
 SORT2 READ    22207702. AND WROTE    28272141. INTEGRALS IN      2 RECORDS. CPU TIME:     0.36 SEC, REAL TIME:     0.49 SEC

 FILE SIZES:   FILE 1:   369.7 MBYTE,  FILE 4:   272.7 MBYTE,   TOTAL:    642.3 MBYTE

 OPERATOR DM      FOR CENTER  0  COORDINATES:    0.000000    0.000000    0.000000


 **********************************************************************************************************************************
 DATASETS  * FILE   NREC   LENGTH (MB)   RECORD NAMES
              1      19      213.83       500      610      700      900      950      970     1000      129      960     1100   
                                          VAR    BASINP    GEOM    SYMINP    ZMAT    AOBASIS   BASIS     P2S    ABASIS      S 
                                         1400     1410     1200     1210     1080     1600     1650     1300     1700   
                                           T        V       H0       H01     AOSYM     SMH    MOLCAS    ERIS     OPER   

 PROGRAMS   *        TOTAL       INT
 CPU TIMES  *         3.23      3.14
 REAL TIME  *         4.15 SEC
 DISK USED  *       642.67 MB      
 **********************************************************************************************************************************


 PROGRAM * RHF-SCF (CLOSED SHELL)       Authors: W. Meyer, H.-J. Werner


 NUMBER OF ELECTRONS:       7+    7-
 CONVERGENCE THRESHOLDS:    1.00E-10 (Density)    1.00E-13 (Energy)
 MAX. NUMBER OF ITERATIONS:      500
 INTERPOLATION TYPE:            DIIS
 INTERPOLATION STEPS:              2 (START)      1 (STEP)
 LEVEL SHIFTS:                  0.00 (CLOSED)  0.00 (OPEN) 



 Orbital guess generated from atomic densities. Full valence occupancy:    7   2   2   0

 Molecular orbital dump at record        2100.2

 Initial occupancy:   5   1   1   0

 ITERATION    DDIFF          GRAD             ENERGY        2-EL.EN.            DIPOLE MOMENTS         DIIS   ORB.
    1      0.000D+00      0.000D+00       -92.77193106    112.091144    0.00000    0.00000   -2.02871    0    start
    2      0.000D+00      0.923D-02       -92.78498590    110.298254    0.00000    0.00000   -0.96082    1    diag
    3      0.339D-01      0.787D-02       -92.80675804    111.241464    0.00000    0.00000   -1.45386    2    diag
    4      0.117D-01      0.557D-03       -92.80700117    111.196810    0.00000    0.00000   -1.44650    3    diag
    5      0.184D-02      0.123D-03       -92.80701549    111.203065    0.00000    0.00000   -1.44532    4    diag
    6      0.510D-03      0.317D-04       -92.80701619    111.199379    0.00000    0.00000   -1.44564    5    diag
    7      0.374D-04      0.111D-04       -92.80701627    111.200416    0.00000    0.00000   -1.44570    6    diag
    8      0.150D-04      0.224D-05       -92.80701627    111.200391    0.00000    0.00000   -1.44568    7    diag
    9      0.763D-05      0.247D-06       -92.80701627    111.200399    0.00000    0.00000   -1.44568    8    diag
   10      0.129D-05      0.278D-07       -92.80701627    111.200400    0.00000    0.00000   -1.44568    9    orth
   11      0.128D-06      0.360D-08       -92.80701627    111.200400    0.00000    0.00000   -1.44568    9    diag
   12      0.118D-07      0.382D-09       -92.80701627    111.200400    0.00000    0.00000   -1.44568    9    diag
   13      0.115D-08      0.489D-10       -92.80701627    111.200400    0.00000    0.00000   -1.44568    9    diag
   14      0.172D-09      0.761D-11       -92.80701627    111.200400    0.00000    0.00000   -1.44568    9    diag
   15      0.271D-10      0.158D-11       -92.80701627    111.200400    0.00000    0.00000   -1.44568    9    diag
   16      0.935D-11      0.498D-12       -92.80701627    111.200400    0.00000    0.00000   -1.44568    9    diag
   17      0.353D-11      0.348D-12       -92.80701627    111.200400    0.00000    0.00000   -1.44568    9    diag
   18      0.465D-12      0.301D-12       -92.80701627    111.200400    0.00000    0.00000   -1.44568    0    orth

 Final occupancy:   5   1   1   0

 !RHF STATE 1.1 Energy                -92.807016271170
 Nuclear energy                        24.06680629
 One-electron energy                 -172.47402245
 Two-electron energy                   55.60019989
 Virial quotient                       -1.00194670
 !RHF STATE 1.1 Dipole moment           0.00000000     0.00000000    -1.44567828
 Dipole moment /Debye                   0.00000000     0.00000000    -3.67430700

 Orbital energies:

         1.1          2.1          3.1          4.1          5.1          6.1          7.1
    -15.587318   -11.396464    -1.258543    -0.830801    -0.577193     0.032669     0.150812

         1.2          2.2          3.2
     -0.493246     0.135531     0.308620

         1.3          2.3          3.3
     -0.493246     0.135531     0.308620

         1.4          2.4
      0.682962     0.962241

 HOMO      1.2    -0.493246 =     -13.4219eV
 LUMO      6.1     0.032669 =       0.8890eV
 LUMO-HOMO         0.525915 =      14.3109eV


 **********************************************************************************************************************************
 DATASETS  * FILE   NREC   LENGTH (MB)   RECORD NAMES
              1      19      213.83       500      610      700      900      950      970     1000      129      960     1100   
                                          VAR    BASINP    GEOM    SYMINP    ZMAT    AOBASIS   BASIS     P2S    ABASIS      S 
                                         1400     1410     1200     1210     1080     1600     1650     1300     1700   
                                           T        V       H0       H01     AOSYM     SMH    MOLCAS    ERIS     OPER   

              2       4        2.98       700     1000      520     2100   
                                         GEOM     BASIS   MCVARS     RHF  

 PROGRAMS   *        TOTAL        HF       INT
 CPU TIMES  *         5.08      1.85      3.14
 REAL TIME  *         6.41 SEC
 DISK USED  *       642.67 MB      
 **********************************************************************************************************************************


 PROGRAM * CCSD (Closed-shell coupled cluster)     Authors: C. Hampel, H.-J. Werner, 1991, M. Deegan, P.J. Knowles, 1992


 Convergence thresholds:  THRVAR = 1.00D-08  THRDEN = 1.00D-12

 CCSD(T)     terms to be evaluated (factor= 1.000)


 Number of core orbitals:           2 (   2   0   0   0 )
 Number of closed-shell orbitals:   5 (   3   1   1   0 )
 Number of external orbitals:     164 (  70  38  38  18 )

 Molecular orbitals read from record     2100.2  Type=RHF/CANONICAL (state 1.1)

 Number of N-1 electron functions:               5
 Number of N-2 electron functions:              15
 Number of singly external CSFs:               286
 Number of doubly external CSFs:             90562
 Total number of CSFs:                       90849

 Length of J-op  integral file:               0.00 MB
 Length of K-op  integral file:               0.65 MB
 Length of 3-ext integral record:             0.00 MB

 Memory could be reduced to 9.35 Mwords without degradation in triples

 Integral transformation finished. Total CPU:   0.22 sec, npass=  1  Memory used:   1.25 MW

 Reference energy:                    -92.80701627

 MP2 singlet pair energy:              -0.21586361
 MP2 triplet pair energy:              -0.12336167
 MP2 correlation energy:               -0.33922528
 MP2 total energy:                    -93.14624155

 SCS-MP2 correlation energy:           -0.33579471   (PS=  1.200000  PT=  0.333333)
 SCS-MP2 total energy:                -93.14281098

 ITER.      SQ.NORM     CORR.ENERGY   TOTAL ENERGY   ENERGY CHANGE        DEN1      VAR(S)    VAR(P)  DIIS     TIME  TIME/IT
   1      1.10941068    -0.34289772   -93.14991399    -0.00367243     0.00782597  0.22D-02  0.25D-02  1  1     0.48     0.26
   2      1.11762254    -0.34334600   -93.15036227    -0.00044829    -0.00885894  0.71D-04  0.35D-03  2  2     0.72     0.26
   3      1.12224178    -0.34353469   -93.15055096    -0.00018869    -0.00258500  0.10D-04  0.38D-04  3  3     0.94     0.26
   4      1.12396395    -0.34359963   -93.15061591    -0.00006495    -0.00058347  0.87D-06  0.42D-05  4  4     1.16     0.27
   5      1.12445315    -0.34359845   -93.15061472     0.00000119    -0.00014900  0.14D-06  0.33D-06  5  5     1.41     0.27
   6      1.12453793    -0.34359621   -93.15061248     0.00000224    -0.00002159  0.92D-08  0.27D-07  6  6     1.66     0.27
   7      1.12454476    -0.34359744   -93.15061371    -0.00000124     0.00000020  0.14D-08  0.22D-08  6  1     1.90     0.27
   8      1.12454745    -0.34359772   -93.15061399    -0.00000028    -0.00000097  0.29D-09  0.17D-09  6  2     2.13     0.27
   9      1.12454748    -0.34359778   -93.15061405    -0.00000006     0.00000016  0.28D-10  0.18D-10  6  3     2.37     0.27
  10      1.12454757    -0.34359779   -93.15061406    -0.00000001     0.00000005  0.64D-11  0.27D-11  6  4     2.61     0.27
  11      1.12454762    -0.34359779   -93.15061407    -0.00000000     0.00000000  0.47D-12  0.53D-12  6  5     2.83     0.27
  12      1.12454758    -0.34359780   -93.15061407    -0.00000000     0.00000003  0.28D-13  0.12D-12  6  6     3.07     0.27
  13      1.12454753    -0.34359780   -93.15061407    -0.00000000     0.00000001  0.24D-14  0.15D-13  6  1     3.31     0.27
  14      1.12454751    -0.34359780   -93.15061407    -0.00000000     0.00000001  0.77D-15  0.20D-14  6  2     3.55     0.27
  15      1.12454750    -0.34359780   -93.15061407    -0.00000000     0.00000000  0.13D-15  0.29D-15  6  3     3.78     0.27
  16      1.12454750    -0.34359780   -93.15061407    -0.00000000     0.00000000  0.82D-17  0.15D-16  6  5     4.03     0.27
  17      1.12454750    -0.34359780   -93.15061407    -0.00000000     0.00000000  0.45D-18  0.84D-18  6  2     4.26     0.27
  18      1.12454750    -0.34359780   -93.15061407     0.00000000    -0.00000000  0.25D-19  0.56D-19  6  4     4.51     0.27
  19      1.12454750    -0.34359780   -93.15061407     0.00000000    -0.00000000  0.44D-20  0.42D-20  6  6     4.75     0.27
  20      1.12454750    -0.34359780   -93.15061407     0.00000000     0.00000000  0.47D-21  0.69D-21  6  1     5.00     0.27
  21      1.12454750    -0.34359780   -93.15061407    -0.00000000     0.00000000  0.27D-22  0.23D-22  6  2     5.24     0.27

 Norm of t1 vector:      0.06062617      S-energy:     0.00000000      T1 diagnostic:  0.01355642
                                                                       D1 diagnostic:  0.02619806

 Doubles amplitudes (print threshold =  0.500E-01):

         I         J         SYM. A    SYM. B    A         B      T(IJ, AB)

         4         4         2         2         1         1     -0.05624857
         5         5         3         3         1         1     -0.05624857


 Total CPU time for triples:      1.44 sec


 RESULTS
 =======

  Reference energy                    -92.807016271170
  CCSD singlet pair energy             -0.238041303501
  CCSD triplet pair energy             -0.105556493095
  CCSD correlation energy              -0.343597796597

  Triples (T) contribution             -0.016763631682
  Total correlation energy             -0.360361428279

  CCSD total energy                   -93.150614067767
  CCSD[T] energy                      -93.168044582003
  CCSD-T energy                       -93.167047069357
 !CCSD(T) total energy                -93.167377699449

 Timing summary (sec):

 STEP                 CPU(USER)    SYS     CPU(TOT)    WALL
 Transformation          0.23      0.06      0.29      0.29
 CCSD iterations         5.02      0.64      5.66      5.68
 Triples                 1.44      0.07      1.51      1.51

 Program statistics:

 Available memory in ccsd:               994999800
 Min. memory needed in ccsd:                377822
 Max. memory used in ccsd:                  449387
 Max. memory used in cckext:                547289 (21 integral passes)



 **********************************************************************************************************************************
 DATASETS  * FILE   NREC   LENGTH (MB)   RECORD NAMES
              1      20      239.01       500      610      700      900      950      970     1000      129      960     1100   
                                          VAR    BASINP    GEOM    SYMINP    ZMAT    AOBASIS   BASIS     P2S    ABASIS      S 
                                         1400     1410     1200     1210     1080     1600     1650     1300     1700     1380   
                                           T        V       H0       H01     AOSYM     SMH    MOLCAS    ERIS     OPER     JKOP   

              2       4        2.98       700     1000      520     2100   
                                         GEOM     BASIS   MCVARS     RHF  

 PROGRAMS   *        TOTAL   CCSD(T)        HF       INT
 CPU TIMES  *        11.81      6.73      1.85      3.14
 REAL TIME  *        14.63 SEC
 DISK USED  *       642.67 MB      
 **********************************************************************************************************************************

 CCSD(T)/USERDEF energy=    -93.167377699449

        CCSD(T)         HF-SCF  
    -93.16737770    -92.80701627
 **********************************************************************************************************************************
 Molpro calculation terminated
 Variable memory released
