
 Primary working directories    : /tmp/r2666/232695.maple
 Secondary working directories  : /tmp/r2666/232695.maple
 Wavefunction directory         : /ddn/home4/r2666/wfu/
 Main file repository           : /tmp/r2666/232695.maple/

 SHA1      : d5ffa45e93fdbca01ffc919aa182cfdae0147319
 NAME      : 2015.1.35
 ARCHNAME  : linux/x86_64
 FC        : /opt/intel/composer_xe_2015.1.133/bin/intel64/ifort
 BLASLIB   : -Wl,-_start-group /opt/intel/mkl/lib/intel64/libmkl_intel_ilp64.a /opt/intel/mkl/lib/intel64/libmkl_intel_thread.a /opt/intel/mkl/lib/intel64/libmkl_core.a -Wl,-_end-group
 id        : olemiss

 Nodes     nprocs
 cn081        1

 Using customized tuning parameters: mindgm=1; mindgv=20; mindgc=4; mindgr=1; noblas=0; minvec=7
 default implementation of scratch files=df  

 ***,hcn CCSD(T)/TZ-F12 QFF
 memory, 995, m;
 gthresh,energy=1.d-12,zero=1.d-22,oneint=1.d-22,twoint=1.d-22;
 gthresh,optgrad=1.d-8,optstep=1.d-8;
 nocompress;
 geomtyp=xyz
 bohr
 geometry={
 3
         29        29
 N       -0.0092326816        0.0000000399        1.1245068543
 C        0.0192234811       -0.0000000010       -1.0541569835
 H       -0.0099907995       -0.0000000388       -3.0674198528
 }
 
 basis={
 default=aug-cc-pvtz
 s,C,8236.0,1235.0,280.8, 79.27,25.59, 8.997,3.319
 s,C,0.9059,0.3643,0.1285000
 p,C,56.0,18.71,4.133,0.2827,0.3827,0.1209
 d,C,30.0,10.0,3.3,1.097,0.318
 f,C,7.0,2.3,0.7610
 s,N,11420.0,1712.0,389.3,110.0,35.57,12.54,4.644
 s,N,1.293,0.5118,0.1787
 p,N,79.89,26.63,5.948,1.742,0.555,0.1725
 d,N,45.0,15.0,5.0,1.654,0.469
 f,N,9.9,3.3,1.093
 s,O,15330.0,2299.0,522.4,147.3,47.55,16.76,6.207
 s,O,1.752,0.6882,0.2384
 p,O,103.5,34.46,7.749,2.28,0.7156,0.214
 d,O,63.0,21.0,7.0,2.314,0.645
 f,O,12.9,4.3,1.428
 s,mg,164900.0,24710.0,5628.0,1596.0,521.0;
 s,mg,188.0,73.01,29.90,12.54,4.306,1.826;
 s,mg,0.7417,0.0761,0.145,0.033,0.0129;
 p,mg,950.70,316.90,74.86,23.72,8.669,3.363;
 p,mg,1.310,0.4911,0.2364,0.08733,0.03237,0.00745;
 d,mg,1.601,0.686,0.126,0.294,0.0468;
 f,mg,1.372,0.588,0.094,0.252;
 }
   {hf,maxit=500;accu,20;}
 {ccsd(t),nocheck,maxit=250;orbital,IGNORE_ERROR;}

 Variables initialized (889), CPU time= 0.01 sec
 Commands  initialized (702), CPU time= 0.00 sec, 572 directives.
 Default parameters read. Elapsed time= 0.05 sec

 Checking input...
 Passed
1


                                         ***  PROGRAM SYSTEM MOLPRO  ***
                                       Copyright, TTI GmbH Stuttgart, 2015
                                    Version 2015.1 linked Jul  9 2018 13:16:40


 **********************************************************************************************************************************
 LABEL *   hcn CCSD(T)/TZ-F12 QFF                                                        
  64 bit serial version                                                                  DATE: 06-Feb-20          TIME: 09:54:47  
 **********************************************************************************************************************************

 SHA1:             d5ffa45e93fdbca01ffc919aa182cfdae0147319
 **********************************************************************************************************************************

 THRESHOLDS:

 ZERO    =  1.00D-22  ONEINT  =  1.00D-22  TWOINT  =  1.00D-22  PREFAC  =  1.00D-14  LOCALI  =  1.00D-09  EORDER  =  1.00D-04
 ENERGY  =  1.00D-12  ETEST   =  0.00D+00  EDENS   =  0.00D+00  THRDEDEF=  1.00D-06  GRADIENT=  1.00D-02  STEP    =  1.00D-03
 ORBITAL =  1.00D-05  CIVEC   =  1.00D-05  COEFF   =  1.00D-04  PRINTCI =  5.00D-02  PUNCHCI =  9.90D+01  OPTGRAD =  3.00D-04
 OPTENERG=  1.00D-06  OPTSTEP =  3.00D-04  THRGRAD =  1.00D-10  COMPRESS=  1.00D-11  VARMIN  =  1.00D-07  VARMAX  =  1.00D-03
 THRDOUB =  0.00D+00  THRDIV  =  1.00D-05  THRRED  =  1.00D-07  THRPSP  =  1.00D+00  THRDC   =  1.00D-10  THRCS   =  1.00D-10
 THRNRM  =  1.00D-08  THREQ   =  0.00D+00  THRDE   =  1.00D+00  THRREF  =  1.00D-05  SPARFAC =  1.00D+00  THRDLP  =  1.00D-07
 THRDIA  =  1.00D-10  THRDLS  =  1.00D-07  THRGPS  =  0.00D+00  THRKEX  =  0.00D+00  THRDIS  =  2.00D-01  THRVAR  =  1.00D-10
 THRLOC  =  1.00D-06  THRGAP  =  1.00D-06  THRLOCT = -1.00D+00  THRGAPT = -1.00D+00  THRORB  =  1.00D-06  THRMLTP =  0.00D+00
 THRCPQCI=  1.00D-10  KEXTA   =  0.00D+00  THRCOARS=  0.00D+00  SYMTOL  =  1.00D-06  GRADTOL =  1.00D-06  THROVL  =  1.00D-08
 THRORTH =  1.00D-08  GRID    =  1.00D-06  GRIDMAX =  1.00D-03  DTMAX   =  0.00D+00  THROCCDE=  1.00D-01  THROCCDE=  1.00D-01



 THRESHOLDS:

 ZERO    =  1.00D-22  ONEINT  =  1.00D-22  TWOINT  =  1.00D-22  PREFAC  =  1.00D-14  LOCALI  =  1.00D-09  EORDER  =  1.00D-04
 ENERGY  =  1.00D-12  ETEST   =  0.00D+00  EDENS   =  0.00D+00  THRDEDEF=  1.00D-06  GRADIENT=  1.00D-02  STEP    =  1.00D-03
 ORBITAL =  1.00D-05  CIVEC   =  1.00D-05  COEFF   =  1.00D-04  PRINTCI =  5.00D-02  PUNCHCI =  9.90D+01  OPTGRAD =  1.00D-08
 OPTENERG=  1.00D-06  OPTSTEP =  1.00D-08  THRGRAD =  1.00D-10  COMPRESS=  1.00D-11  VARMIN  =  1.00D-07  VARMAX  =  1.00D-03
 THRDOUB =  0.00D+00  THRDIV  =  1.00D-05  THRRED  =  1.00D-07  THRPSP  =  1.00D+00  THRDC   =  1.00D-10  THRCS   =  1.00D-10
 THRNRM  =  1.00D-08  THREQ   =  0.00D+00  THRDE   =  1.00D+00  THRREF  =  1.00D-05  SPARFAC =  1.00D+00  THRDLP  =  1.00D-07
 THRDIA  =  1.00D-10  THRDLS  =  1.00D-07  THRGPS  =  0.00D+00  THRKEX  =  0.00D+00  THRDIS  =  2.00D-01  THRVAR  =  1.00D-10
 THRLOC  =  1.00D-06  THRGAP  =  1.00D-06  THRLOCT = -1.00D+00  THRGAPT = -1.00D+00  THRORB  =  1.00D-06  THRMLTP =  0.00D+00
 THRCPQCI=  1.00D-10  KEXTA   =  0.00D+00  THRCOARS=  0.00D+00  SYMTOL  =  1.00D-06  GRADTOL =  1.00D-06  THROVL  =  1.00D-08
 THRORTH =  1.00D-08  GRID    =  1.00D-06  GRIDMAX =  1.00D-03  DTMAX   =  0.00D+00  THROCCDE=  1.00D-01  THROCCDE=  1.00D-01



 Input parameters for SORTINT:

 COMPRESS =    0.000000
 C_FINAL  =    1.000000
 DEBUG    =   -1.000000
 C_SORT1  =    0.000000
 C_SEWARD =    0.000000
 THRESH   =    0.000000
 IO       =  molpro                                                          
 SPRI     =    0.000000
 SETTING GEOMTYP        =    XYZ
 ZUNIT=BOHR
 

 Variable memory set to  995000000 words,  buffer space   230000 words

 SETTING BASIS          =    USERDEF


 Recomputing integrals since basis changed


 Using spherical harmonics

 Library entry H      S aug-cc-pVTZ          selected for orbital group  3
 Library entry H      P aug-cc-pVTZ          selected for orbital group  3
 Library entry H      D aug-cc-pVTZ          selected for orbital group  3


 PROGRAM * SEWARD (Integral evaluation for generally contracted gaussian basis sets)     Author: Roland Lindh, 1990

 Geometry written to block  1 of record 700


 Point group  Cs  



 ATOMIC COORDINATES

 NR  ATOM    CHARGE       X              Y              Z

   1  N       7.00   -0.009232682    0.000000000    1.124506854
   2  C       6.00    0.019223481    0.000000000   -1.054156983
   3  H       1.00   -0.009990799    0.000000000   -3.067419853

 Bond lengths in Bohr (Angstrom)

 1-2  2.178849667  2-3  2.013474821
     ( 1.152997590)     ( 1.065484990)

 Bond angles

  1-2-3  178.42033002

 NUCLEAR CHARGE:                   14
 NUMBER OF PRIMITIVE AOS:         203
 NUMBER OF SYMMETRY AOS:          173
 NUMBER OF CONTRACTIONS:          171   ( 114A'  +  57A"  )
 NUMBER OF CORE ORBITALS:           2   (   2A'  +   0A"  )
 NUMBER OF VALENCE ORBITALS:        9   (   7A'  +   2A"  )


 NUCLEAR REPULSION ENERGY   23.92602617


 Eigenvalues of metric

         1 0.243E-03 0.523E-03 0.909E-03 0.138E-02 0.317E-02 0.541E-02 0.756E-02 0.100E-01
         2 0.542E-02 0.157E-01 0.220E-01 0.346E-01 0.965E-01 0.112E+00 0.124E+00 0.125E+00


 Contracted 2-electron integrals neglected if value below      1.0D-22

       48056748. INTEGRALS WRITTEN OUT IN   11736 BLOCKS ON RECORD 1290 OF FILE 1


 NUMBER OF SORTED TWO-ELECTRON INTEGRALS:   55360566.     BUFFER LENGTH:  32768
 NUMBER OF SEGMENTS:   4  SEGMENT LENGTH:   15997996      RECORD LENGTH: 524288

 Memory used in sort:      16.56 MW

 SORT1 READ    48056748. AND WROTE    48512527. INTEGRALS IN    141 RECORDS. CPU TIME:     0.73 SEC, REAL TIME:     1.02 SEC
 SORT2 READ    48512527. AND WROTE    55360566. INTEGRALS IN      4 RECORDS. CPU TIME:     0.65 SEC, REAL TIME:     0.84 SEC

 FILE SIZES:   FILE 1:   789.9 MBYTE,  FILE 4:   591.4 MBYTE,   TOTAL:   1381.3 MBYTE

 OPERATOR DM      FOR CENTER  0  COORDINATES:    0.000000    0.000000    0.000000


 **********************************************************************************************************************************
 DATASETS  * FILE   NREC   LENGTH (MB)   RECORD NAMES
              1      19      433.08       500      610      700      900      950      970     1000      129      960     1100   
                                          VAR    BASINP    GEOM    SYMINP    ZMAT    AOBASIS   BASIS     P2S    ABASIS      S 
                                         1400     1410     1200     1210     1080     1600     1650     1300     1700   
                                           T        V       H0       H01     AOSYM     SMH    MOLCAS    ERIS     OPER   

 PROGRAMS   *        TOTAL       INT
 CPU TIMES  *         4.05      3.97
 REAL TIME  *         5.42 SEC
 DISK USED  *         1.38 GB      
 **********************************************************************************************************************************


 PROGRAM * RHF-SCF (CLOSED SHELL)       Authors: W. Meyer, H.-J. Werner


 NUMBER OF ELECTRONS:       7+    7-
 CONVERGENCE THRESHOLDS:    1.00E-10 (Density)    1.00E-13 (Energy)
 MAX. NUMBER OF ITERATIONS:      500
 INTERPOLATION TYPE:            DIIS
 INTERPOLATION STEPS:              2 (START)      1 (STEP)
 LEVEL SHIFTS:                  0.00 (CLOSED)  0.00 (OPEN) 



 Orbital guess generated from atomic densities. Full valence occupancy:    9   2

 Molecular orbital dump at record        2100.2

 Initial occupancy:   6   1

 ITERATION    DDIFF          GRAD             ENERGY        2-EL.EN.            DIPOLE MOMENTS         DIIS   ORB.
    1      0.000D+00      0.000D+00       -92.77153075    111.737374    0.01674    0.00000   -2.02447    0    start
    2      0.000D+00      0.710D-02       -92.78386102    110.021123   -0.00647    0.00000   -0.94558    1    diag
    3      0.256D-01      0.613D-02       -92.80585151    110.951088    0.00324    0.00000   -1.44931    2    diag
    4      0.881D-02      0.440D-03       -92.80610125    110.901477    0.00251    0.00000   -1.44213    3    diag
    5      0.140D-02      0.983D-04       -92.80611583    110.909612    0.00228    0.00000   -1.44084    4    diag
    6      0.391D-03      0.257D-04       -92.80611662    110.905404    0.00226    0.00000   -1.44111    5    diag
    7      0.315D-04      0.911D-05       -92.80611671    110.906386    0.00224    0.00000   -1.44118    6    diag
    8      0.118D-04      0.182D-05       -92.80611671    110.906369    0.00224    0.00000   -1.44116    7    diag
    9      0.612D-05      0.203D-06       -92.80611671    110.906376    0.00224    0.00000   -1.44116    8    diag
   10      0.104D-05      0.281D-07       -92.80611671    110.906377    0.00224    0.00000   -1.44116    9    orth
   11      0.118D-06      0.997D-08       -92.80611671    110.906377    0.00224    0.00000   -1.44116    9    diag
   12      0.457D-07      0.435D-08       -92.80611671    110.906377    0.00224    0.00000   -1.44116    9    diag
   13      0.294D-07      0.125D-08       -92.80611671    110.906377    0.00224    0.00000   -1.44116    9    diag
   14      0.729D-08      0.359D-09       -92.80611671    110.906377    0.00224    0.00000   -1.44116    9    diag
   15      0.179D-08      0.115D-09       -92.80611671    110.906377    0.00224    0.00000   -1.44116    9    diag
   16      0.498D-09      0.168D-10       -92.80611671    110.906377    0.00224    0.00000   -1.44116    9    diag
   17      0.524D-10      0.580D-11       -92.80611671    110.906377    0.00224    0.00000   -1.44116    9    diag
   18      0.163D-10      0.134D-11       -92.80611671    110.906377    0.00224    0.00000   -1.44116    9    diag
   19      0.263D-11      0.278D-12       -92.80611671    110.906377    0.00224    0.00000   -1.44116    9    fixocc
   20      0.960D-12      0.291D-12       -92.80611671    110.906377    0.00224    0.00000   -1.44116    0    orth

 Final occupancy:   6   1

 !RHF STATE 1.1 Energy                -92.806116713400
 Nuclear energy                        23.92602617
 One-electron energy                 -172.18533156
 Two-electron energy                   55.45318867
 Virial quotient                       -1.00238764
 !RHF STATE 1.1 Dipole moment           0.00224137     0.00000000    -1.44115983
 Dipole moment /Debye                   0.00569662     0.00000000    -3.66282299

 Orbital energies:

         1.1          2.1          3.1          4.1          5.1          6.1          7.1          8.1
    -15.591075   -11.399525    -1.253841    -0.835954    -0.578062    -0.490506     0.032666     0.133359

         1.2          2.2          3.2
     -0.490513     0.133610     0.306328

 HOMO      6.1    -0.490506 =     -13.3473eV
 LUMO      7.1     0.032666 =       0.8889eV
 LUMO-HOMO         0.523172 =      14.2362eV


 **********************************************************************************************************************************
 DATASETS  * FILE   NREC   LENGTH (MB)   RECORD NAMES
              1      19      433.08       500      610      700      900      950      970     1000      129      960     1100   
                                          VAR    BASINP    GEOM    SYMINP    ZMAT    AOBASIS   BASIS     P2S    ABASIS      S 
                                         1400     1410     1200     1210     1080     1600     1650     1300     1700   
                                           T        V       H0       H01     AOSYM     SMH    MOLCAS    ERIS     OPER   

              2       4        3.13       700     1000      520     2100   
                                         GEOM     BASIS   MCVARS     RHF  

 PROGRAMS   *        TOTAL        HF       INT
 CPU TIMES  *         8.96      4.91      3.97
 REAL TIME  *        11.41 SEC
 DISK USED  *         1.38 GB      
 **********************************************************************************************************************************


 PROGRAM * CCSD (Closed-shell coupled cluster)     Authors: C. Hampel, H.-J. Werner, 1991, M. Deegan, P.J. Knowles, 1992


 Convergence thresholds:  THRVAR = 1.00D-08  THRDEN = 1.00D-12

 CCSD(T)     terms to be evaluated (factor= 1.000)


 Number of core orbitals:           2 (   2   0 )
 Number of closed-shell orbitals:   5 (   4   1 )
 Number of external orbitals:     164 ( 108  56 )

 Molecular orbitals read from record     2100.2  Type=RHF/CANONICAL (state 1.1)

 Number of N-1 electron functions:               5
 Number of N-2 electron functions:              15
 Number of singly external CSFs:               488
 Number of doubly external CSFs:            174594
 Total number of CSFs:                      175083

 Length of J-op  integral file:               0.00 MB
 Length of K-op  integral file:               1.15 MB
 Length of 3-ext integral record:             0.00 MB

 Memory could be reduced to 17.82 Mwords without degradation in triples

 Integral transformation finished. Total CPU:   0.57 sec, npass=  1  Memory used:   4.44 MW

 Reference energy:                    -92.80611671

 MP2 singlet pair energy:              -0.21672942
 MP2 triplet pair energy:              -0.12408262
 MP2 correlation energy:               -0.34081204
 MP2 total energy:                    -93.14692876

 SCS-MP2 correlation energy:           -0.33728227   (PS=  1.200000  PT=  0.333333)
 SCS-MP2 total energy:                -93.14339898

 ITER.      SQ.NORM     CORR.ENERGY   TOTAL ENERGY   ENERGY CHANGE        DEN1      VAR(S)    VAR(P)  DIIS     TIME  TIME/IT
   1      1.11040992    -0.34404769   -93.15016441    -0.00323565     0.00856818  0.23D-02  0.26D-02  1  1     1.07     0.54
   2      1.11880142    -0.34443226   -93.15054897    -0.00038457    -0.00903274  0.75D-04  0.36D-03  2  2     1.55     0.55
   3      1.12355021    -0.34462557   -93.15074228    -0.00019331    -0.00263270  0.10D-04  0.41D-04  3  3     2.04     0.56
   4      1.12535104    -0.34469480   -93.15081152    -0.00006923    -0.00060326  0.89D-06  0.45D-05  4  4     2.52     0.56
   5      1.12587051    -0.34469346   -93.15081017     0.00000134    -0.00015749  0.13D-06  0.36D-06  5  5     3.06     0.56
   6      1.12595970    -0.34469120   -93.15080792     0.00000226    -0.00002244  0.87D-08  0.29D-07  6  6     3.55     0.56
   7      1.12596686    -0.34469260   -93.15080931    -0.00000140     0.00000019  0.12D-08  0.24D-08  6  1     4.04     0.56
   8      1.12596955    -0.34469293   -93.15080964    -0.00000032    -0.00000101  0.23D-09  0.18D-09  6  2     4.52     0.56
   9      1.12596949    -0.34469300   -93.15080971    -0.00000007     0.00000019  0.20D-10  0.16D-10  6  3     5.01     0.56
  10      1.12596956    -0.34469301   -93.15080972    -0.00000001     0.00000005  0.48D-11  0.21D-11  6  4     5.49     0.56
  11      1.12596959    -0.34469301   -93.15080973    -0.00000000     0.00000000  0.52D-12  0.41D-12  6  5     5.99     0.56
  12      1.12596954    -0.34469301   -93.15080973    -0.00000000     0.00000003  0.48D-13  0.11D-12  6  6     6.49     0.56
  13      1.12596951    -0.34469301   -93.15080973    -0.00000000     0.00000001  0.38D-14  0.13D-13  6  1     6.99     0.57
  14      1.12596949    -0.34469301   -93.15080973    -0.00000000     0.00000001  0.99D-15  0.17D-14  6  2     7.50     0.57
  15      1.12596948    -0.34469301   -93.15080973    -0.00000000     0.00000000  0.19D-15  0.26D-15  6  3     7.97     0.57
  16      1.12596948    -0.34469301   -93.15080973    -0.00000000     0.00000000  0.21D-16  0.13D-16  6  5     8.48     0.57
  17      1.12596948    -0.34469301   -93.15080973     0.00000000     0.00000000  0.35D-17  0.13D-17  6  4     8.96     0.57
  18      1.12596948    -0.34469301   -93.15080973     0.00000000    -0.00000000  0.76D-18  0.27D-18  6  5     9.48     0.57
  19      1.12596948    -0.34469301   -93.15080973     0.00000000    -0.00000000  0.70D-19  0.50D-19  6  6     9.98     0.57
  20      1.12596948    -0.34469301   -93.15080973    -0.00000000    -0.00000000  0.91D-20  0.39D-20  6  2    10.47     0.57
  21      1.12596948    -0.34469301   -93.15080973    -0.00000000    -0.00000000  0.98D-21  0.53D-21  6  1    10.98     0.57

 Norm of t1 vector:      0.06172252      S-energy:    -0.00000000      T1 diagnostic:  0.01380157
                                                                       D1 diagnostic:  0.02680657

 Doubles amplitudes (print threshold =  0.500E-01):

         I         J         SYM. A    SYM. B    A         B      T(IJ, AB)

         4         4         1         1         2         2     -0.05812956
         5         5         2         2         1         1     -0.05848837


 Total CPU time for triples:      3.75 sec


 RESULTS
 =======

  Reference energy                    -92.806116713400
  CCSD singlet pair energy             -0.238926325205
  CCSD triplet pair energy             -0.105766689769
  CCSD correlation energy              -0.344693014974

  Triples (T) contribution             -0.017017267055
  Total correlation energy             -0.361710282030

  CCSD total energy                   -93.150809728374
  CCSD[T] energy                      -93.168522791039
  CCSD-T energy                       -93.167482831696
 !CCSD(T) total energy                -93.167826995430

 Timing summary (sec):

 STEP                 CPU(USER)    SYS     CPU(TOT)    WALL
 Transformation          0.58      0.15      0.73      0.74
 CCSD iterations        10.40      1.50     11.90     11.89
 Triples                 3.75      0.14      3.89      3.89

 Program statistics:

 Available memory in ccsd:               994999800
 Min. memory needed in ccsd:                705325
 Max. memory used in ccsd:                  840968
 Max. memory used in cckext:               1345378 (21 integral passes)



 **********************************************************************************************************************************
 DATASETS  * FILE   NREC   LENGTH (MB)   RECORD NAMES
              1      20      481.71       500      610      700      900      950      970     1000      129      960     1100   
                                          VAR    BASINP    GEOM    SYMINP    ZMAT    AOBASIS   BASIS     P2S    ABASIS      S 
                                         1400     1410     1200     1210     1080     1600     1650     1300     1700     1380   
                                           T        V       H0       H01     AOSYM     SMH    MOLCAS    ERIS     OPER     JKOP   

              2       4        3.13       700     1000      520     2100   
                                         GEOM     BASIS   MCVARS     RHF  

 PROGRAMS   *        TOTAL   CCSD(T)        HF       INT
 CPU TIMES  *        23.73     14.77      4.91      3.97
 REAL TIME  *        28.01 SEC
 DISK USED  *         1.38 GB      
 **********************************************************************************************************************************

 CCSD(T)/USERDEF energy=    -93.167826995430

        CCSD(T)         HF-SCF  
    -93.16782700    -92.80611671
 **********************************************************************************************************************************
 Molpro calculation terminated
 Variable memory released
