
 Primary working directories    : /tmp/r2666/232687.maple
 Secondary working directories  : /tmp/r2666/232687.maple
 Wavefunction directory         : /ddn/home4/r2666/wfu/
 Main file repository           : /tmp/r2666/232687.maple/

 SHA1      : d5ffa45e93fdbca01ffc919aa182cfdae0147319
 NAME      : 2015.1.35
 ARCHNAME  : linux/x86_64
 FC        : /opt/intel/composer_xe_2015.1.133/bin/intel64/ifort
 BLASLIB   : -Wl,-_start-group /opt/intel/mkl/lib/intel64/libmkl_intel_ilp64.a /opt/intel/mkl/lib/intel64/libmkl_intel_thread.a /opt/intel/mkl/lib/intel64/libmkl_core.a -Wl,-_end-group
 id        : olemiss

 Nodes     nprocs
 cn083        1

 Using customized tuning parameters: mindgm=1; mindgv=20; mindgc=4; mindgr=1; noblas=0; minvec=7
 default implementation of scratch files=df  

 ***,hcn CCSD(T)/TZ-F12 QFF
 memory, 995, m;
 gthresh,energy=1.d-12,zero=1.d-22,oneint=1.d-22,twoint=1.d-22;
 gthresh,optgrad=1.d-8,optstep=1.d-8;
 nocompress;
 geomtyp=xyz
 bohr
 geometry={
 3
         21        21
 N        0.0000000000        0.0000000000        1.1121032177
 C        0.0000000000        0.0000000000       -1.0667464493
 H        0.0000000000        0.0000000000       -3.0424267505
 }
 
 basis={
 default=aug-cc-pvtz
 s,C,8236.0,1235.0,280.8, 79.27,25.59, 8.997,3.319
 s,C,0.9059,0.3643,0.1285000
 p,C,56.0,18.71,4.133,0.2827,0.3827,0.1209
 d,C,30.0,10.0,3.3,1.097,0.318
 f,C,7.0,2.3,0.7610
 s,N,11420.0,1712.0,389.3,110.0,35.57,12.54,4.644
 s,N,1.293,0.5118,0.1787
 p,N,79.89,26.63,5.948,1.742,0.555,0.1725
 d,N,45.0,15.0,5.0,1.654,0.469
 f,N,9.9,3.3,1.093
 s,O,15330.0,2299.0,522.4,147.3,47.55,16.76,6.207
 s,O,1.752,0.6882,0.2384
 p,O,103.5,34.46,7.749,2.28,0.7156,0.214
 d,O,63.0,21.0,7.0,2.314,0.645
 f,O,12.9,4.3,1.428
 s,mg,164900.0,24710.0,5628.0,1596.0,521.0;
 s,mg,188.0,73.01,29.90,12.54,4.306,1.826;
 s,mg,0.7417,0.0761,0.145,0.033,0.0129;
 p,mg,950.70,316.90,74.86,23.72,8.669,3.363;
 p,mg,1.310,0.4911,0.2364,0.08733,0.03237,0.00745;
 d,mg,1.601,0.686,0.126,0.294,0.0468;
 f,mg,1.372,0.588,0.094,0.252;
 }
   {hf,maxit=500;accu,20;}
 {ccsd(t),nocheck,maxit=250;orbital,IGNORE_ERROR;}

 Variables initialized (889), CPU time= 0.01 sec
 Commands  initialized (702), CPU time= 0.01 sec, 572 directives.
 Default parameters read. Elapsed time= 0.19 sec

 Checking input...
 Passed
1


                                         ***  PROGRAM SYSTEM MOLPRO  ***
                                       Copyright, TTI GmbH Stuttgart, 2015
                                    Version 2015.1 linked Jul  9 2018 13:16:40


 **********************************************************************************************************************************
 LABEL *   hcn CCSD(T)/TZ-F12 QFF                                                        
  64 bit serial version                                                                  DATE: 06-Feb-20          TIME: 09:54:47  
 **********************************************************************************************************************************

 SHA1:             d5ffa45e93fdbca01ffc919aa182cfdae0147319
 **********************************************************************************************************************************

 THRESHOLDS:

 ZERO    =  1.00D-22  ONEINT  =  1.00D-22  TWOINT  =  1.00D-22  PREFAC  =  1.00D-14  LOCALI  =  1.00D-09  EORDER  =  1.00D-04
 ENERGY  =  1.00D-12  ETEST   =  0.00D+00  EDENS   =  0.00D+00  THRDEDEF=  1.00D-06  GRADIENT=  1.00D-02  STEP    =  1.00D-03
 ORBITAL =  1.00D-05  CIVEC   =  1.00D-05  COEFF   =  1.00D-04  PRINTCI =  5.00D-02  PUNCHCI =  9.90D+01  OPTGRAD =  3.00D-04
 OPTENERG=  1.00D-06  OPTSTEP =  3.00D-04  THRGRAD =  1.00D-10  COMPRESS=  1.00D-11  VARMIN  =  1.00D-07  VARMAX  =  1.00D-03
 THRDOUB =  0.00D+00  THRDIV  =  1.00D-05  THRRED  =  1.00D-07  THRPSP  =  1.00D+00  THRDC   =  1.00D-10  THRCS   =  1.00D-10
 THRNRM  =  1.00D-08  THREQ   =  0.00D+00  THRDE   =  1.00D+00  THRREF  =  1.00D-05  SPARFAC =  1.00D+00  THRDLP  =  1.00D-07
 THRDIA  =  1.00D-10  THRDLS  =  1.00D-07  THRGPS  =  0.00D+00  THRKEX  =  0.00D+00  THRDIS  =  2.00D-01  THRVAR  =  1.00D-10
 THRLOC  =  1.00D-06  THRGAP  =  1.00D-06  THRLOCT = -1.00D+00  THRGAPT = -1.00D+00  THRORB  =  1.00D-06  THRMLTP =  0.00D+00
 THRCPQCI=  1.00D-10  KEXTA   =  0.00D+00  THRCOARS=  0.00D+00  SYMTOL  =  1.00D-06  GRADTOL =  1.00D-06  THROVL  =  1.00D-08
 THRORTH =  1.00D-08  GRID    =  1.00D-06  GRIDMAX =  1.00D-03  DTMAX   =  0.00D+00  THROCCDE=  1.00D-01  THROCCDE=  1.00D-01



 THRESHOLDS:

 ZERO    =  1.00D-22  ONEINT  =  1.00D-22  TWOINT  =  1.00D-22  PREFAC  =  1.00D-14  LOCALI  =  1.00D-09  EORDER  =  1.00D-04
 ENERGY  =  1.00D-12  ETEST   =  0.00D+00  EDENS   =  0.00D+00  THRDEDEF=  1.00D-06  GRADIENT=  1.00D-02  STEP    =  1.00D-03
 ORBITAL =  1.00D-05  CIVEC   =  1.00D-05  COEFF   =  1.00D-04  PRINTCI =  5.00D-02  PUNCHCI =  9.90D+01  OPTGRAD =  1.00D-08
 OPTENERG=  1.00D-06  OPTSTEP =  1.00D-08  THRGRAD =  1.00D-10  COMPRESS=  1.00D-11  VARMIN  =  1.00D-07  VARMAX  =  1.00D-03
 THRDOUB =  0.00D+00  THRDIV  =  1.00D-05  THRRED  =  1.00D-07  THRPSP  =  1.00D+00  THRDC   =  1.00D-10  THRCS   =  1.00D-10
 THRNRM  =  1.00D-08  THREQ   =  0.00D+00  THRDE   =  1.00D+00  THRREF  =  1.00D-05  SPARFAC =  1.00D+00  THRDLP  =  1.00D-07
 THRDIA  =  1.00D-10  THRDLS  =  1.00D-07  THRGPS  =  0.00D+00  THRKEX  =  0.00D+00  THRDIS  =  2.00D-01  THRVAR  =  1.00D-10
 THRLOC  =  1.00D-06  THRGAP  =  1.00D-06  THRLOCT = -1.00D+00  THRGAPT = -1.00D+00  THRORB  =  1.00D-06  THRMLTP =  0.00D+00
 THRCPQCI=  1.00D-10  KEXTA   =  0.00D+00  THRCOARS=  0.00D+00  SYMTOL  =  1.00D-06  GRADTOL =  1.00D-06  THROVL  =  1.00D-08
 THRORTH =  1.00D-08  GRID    =  1.00D-06  GRIDMAX =  1.00D-03  DTMAX   =  0.00D+00  THROCCDE=  1.00D-01  THROCCDE=  1.00D-01



 Input parameters for SORTINT:

 COMPRESS =    0.000000
 C_FINAL  =    1.000000
 DEBUG    =   -1.000000
 C_SORT1  =    0.000000
 C_SEWARD =    0.000000
 THRESH   =    0.000000
 IO       =  molpro                                                          
 SPRI     =    0.000000
 SETTING GEOMTYP        =    XYZ
 ZUNIT=BOHR
 

 Variable memory set to  995000000 words,  buffer space   230000 words

 SETTING BASIS          =    USERDEF


 Recomputing integrals since basis changed


 Using spherical harmonics

 Library entry H      S aug-cc-pVTZ          selected for orbital group  3
 Library entry H      P aug-cc-pVTZ          selected for orbital group  3
 Library entry H      D aug-cc-pVTZ          selected for orbital group  3


 PROGRAM * SEWARD (Integral evaluation for generally contracted gaussian basis sets)     Author: Roland Lindh, 1990

 Geometry written to block  1 of record 700


 Point group  C2v 



 ATOMIC COORDINATES

 NR  ATOM    CHARGE       X              Y              Z

   1  N       7.00    0.000000000    0.000000000    1.112103218
   2  C       6.00    0.000000000    0.000000000   -1.066746449
   3  H       1.00    0.000000000    0.000000000   -3.042426751

 Bond lengths in Bohr (Angstrom)

 1-2  2.178849667  2-3  1.975680301
     ( 1.152997590)     ( 1.045484991)

 Bond angles

  1-2-3  180.00000000

 NUCLEAR CHARGE:                   14
 NUMBER OF PRIMITIVE AOS:         203
 NUMBER OF SYMMETRY AOS:          173
 NUMBER OF CONTRACTIONS:          171   (  75A1  +  39B1  +  39B2  +  18A2  )
 NUMBER OF CORE ORBITALS:           2   (   2A1  +   0B1  +   0B2  +   0A2  )
 NUMBER OF VALENCE ORBITALS:        9   (   5A1  +   2B1  +   2B2  +   0A2  )


 NUCLEAR REPULSION ENERGY   23.99806305

 EXTRA SYMMETRY OF AOS IN SYMMETRY 1:   1 1 1 1 1 1 1 1 1 1   1 1 1 1 1 1 1 2 1 2   1 2 1 2 1 2 1 2 1 2   1 2 1 1 1 1 1 1 1 1
                                        1 1 1 1 1 1 1 1 1 2   1 2 1 2 1 2 1 2 1 2   1 2 1 2 1 1 1 1 1 1   1 1 2 1 2
 EXTRA SYMMETRY OF AOS IN SYMMETRY 2:   1 1 1 1 1 1 1 1 1 1   1 1 2 1 2 1 2 1 1 1   1 1 1 1 1 1 1 1 1 2   1 2 1 2 1 1 1 1 1
 EXTRA SYMMETRY OF AOS IN SYMMETRY 3:   1 1 1 1 1 1 1 1 1 1   1 1 2 1 2 1 2 1 1 1   1 1 1 1 1 1 1 1 1 2   1 2 1 2 1 1 1 1 1

 Eigenvalues of metric

         1 0.225E-03 0.514E-03 0.864E-03 0.133E-02 0.315E-02 0.712E-02 0.957E-02 0.130E-01
         2 0.537E-02 0.153E-01 0.207E-01 0.333E-01 0.950E-01 0.111E+00 0.124E+00 0.187E+00
         3 0.537E-02 0.153E-01 0.207E-01 0.333E-01 0.950E-01 0.111E+00 0.124E+00 0.187E+00
         4 0.124E+00 0.140E+00 0.193E+00 0.253E+00 0.314E+00 0.379E+00 0.483E+00 0.594E+00


 Contracted 2-electron integrals neglected if value below      1.0D-22

       21748988. INTEGRALS WRITTEN OUT IN    5312 BLOCKS ON RECORD 1290 OF FILE 1


 NUMBER OF SORTED TWO-ELECTRON INTEGRALS:   28272141.     BUFFER LENGTH:  32768
 NUMBER OF SEGMENTS:   2  SEGMENT LENGTH:   15998211      RECORD LENGTH: 524288

 Memory used in sort:      16.56 MW

 SORT1 READ    21748988. AND WROTE    22147447. INTEGRALS IN     65 RECORDS. CPU TIME:     0.46 SEC, REAL TIME:     0.62 SEC
 SORT2 READ    22147447. AND WROTE    28272141. INTEGRALS IN      2 RECORDS. CPU TIME:     0.39 SEC, REAL TIME:     0.49 SEC

 FILE SIZES:   FILE 1:   368.7 MBYTE,  FILE 4:   272.7 MBYTE,   TOTAL:    641.4 MBYTE

 OPERATOR DM      FOR CENTER  0  COORDINATES:    0.000000    0.000000    0.000000


 **********************************************************************************************************************************
 DATASETS  * FILE   NREC   LENGTH (MB)   RECORD NAMES
              1      19      213.52       500      610      700      900      950      970     1000      129      960     1100   
                                          VAR    BASINP    GEOM    SYMINP    ZMAT    AOBASIS   BASIS     P2S    ABASIS      S 
                                         1400     1410     1200     1210     1080     1600     1650     1300     1700   
                                           T        V       H0       H01     AOSYM     SMH    MOLCAS    ERIS     OPER   

 PROGRAMS   *        TOTAL       INT
 CPU TIMES  *         3.12      3.00
 REAL TIME  *         4.24 SEC
 DISK USED  *       641.75 MB      
 **********************************************************************************************************************************


 PROGRAM * RHF-SCF (CLOSED SHELL)       Authors: W. Meyer, H.-J. Werner


 NUMBER OF ELECTRONS:       7+    7-
 CONVERGENCE THRESHOLDS:    1.00E-10 (Density)    1.00E-13 (Energy)
 MAX. NUMBER OF ITERATIONS:      500
 INTERPOLATION TYPE:            DIIS
 INTERPOLATION STEPS:              2 (START)      1 (STEP)
 LEVEL SHIFTS:                  0.00 (CLOSED)  0.00 (OPEN) 



 Orbital guess generated from atomic densities. Full valence occupancy:    7   2   2   0

 Molecular orbital dump at record        2100.2

 Initial occupancy:   5   1   1   0

 ITERATION    DDIFF          GRAD             ENERGY        2-EL.EN.            DIPOLE MOMENTS         DIIS   ORB.
    1      0.000D+00      0.000D+00       -92.77150727    111.824026    0.00000    0.00000   -2.00027    0    start
    2      0.000D+00      0.901D-02       -92.78374684    110.143060    0.00000    0.00000   -0.94218    1    diag
    3      0.333D-01      0.776D-02       -92.80503565    111.058097    0.00000    0.00000   -1.43869    2    diag
    4      0.115D-01      0.572D-03       -92.80528823    111.007123    0.00000    0.00000   -1.43158    3    diag
    5      0.188D-02      0.126D-03       -92.80530249    111.015138    0.00000    0.00000   -1.43029    4    diag
    6      0.504D-03      0.324D-04       -92.80530324    111.010993    0.00000    0.00000   -1.43055    5    diag
    7      0.408D-04      0.115D-04       -92.80530333    111.011940    0.00000    0.00000   -1.43060    6    diag
    8      0.154D-04      0.230D-05       -92.80530333    111.011924    0.00000    0.00000   -1.43058    7    diag
    9      0.785D-05      0.255D-06       -92.80530333    111.011931    0.00000    0.00000   -1.43058    8    diag
   10      0.131D-05      0.289D-07       -92.80530333    111.011933    0.00000    0.00000   -1.43058    9    orth
   11      0.132D-06      0.376D-08       -92.80530333    111.011933    0.00000    0.00000   -1.43058    9    diag
   12      0.125D-07      0.385D-09       -92.80530333    111.011933    0.00000    0.00000   -1.43058    9    diag
   13      0.119D-08      0.495D-10       -92.80530333    111.011933    0.00000    0.00000   -1.43058    9    diag
   14      0.168D-09      0.659D-11       -92.80530333    111.011933    0.00000    0.00000   -1.43058    9    diag
   15      0.263D-10      0.133D-11       -92.80530333    111.011933    0.00000    0.00000   -1.43058    9    diag
   16      0.625D-11      0.414D-12       -92.80530333    111.011933    0.00000    0.00000   -1.43058    9    diag
   17      0.348D-11      0.330D-12       -92.80530333    111.011933    0.00000    0.00000   -1.43058    0    orth

 Final occupancy:   5   1   1   0

 !RHF STATE 1.1 Energy                -92.805303329302
 Nuclear energy                        23.99806305
 One-electron energy                 -172.30933268
 Two-electron energy                   55.50596630
 Virial quotient                       -1.00204176
 !RHF STATE 1.1 Dipole moment           0.00000000     0.00000000    -1.43058088
 Dipole moment /Debye                   0.00000000     0.00000000    -3.63593575

 Orbital energies:

         1.1          2.1          3.1          4.1          5.1          6.1          7.1
    -15.591510   -11.398539    -1.254242    -0.843859    -0.578726     0.032747     0.154735

         1.2          2.2          3.2
     -0.490912     0.133593     0.306478

         1.3          2.3          3.3
     -0.490912     0.133593     0.306478

         1.4          2.4
      0.682383     0.965945

 HOMO      1.2    -0.490912 =     -13.3584eV
 LUMO      6.1     0.032747 =       0.8911eV
 LUMO-HOMO         0.523659 =      14.2495eV


 **********************************************************************************************************************************
 DATASETS  * FILE   NREC   LENGTH (MB)   RECORD NAMES
              1      19      213.52       500      610      700      900      950      970     1000      129      960     1100   
                                          VAR    BASINP    GEOM    SYMINP    ZMAT    AOBASIS   BASIS     P2S    ABASIS      S 
                                         1400     1410     1200     1210     1080     1600     1650     1300     1700   
                                           T        V       H0       H01     AOSYM     SMH    MOLCAS    ERIS     OPER   

              2       4        2.98       700     1000      520     2100   
                                         GEOM     BASIS   MCVARS     RHF  

 PROGRAMS   *        TOTAL        HF       INT
 CPU TIMES  *         4.82      1.70      3.00
 REAL TIME  *         6.32 SEC
 DISK USED  *       641.75 MB      
 **********************************************************************************************************************************


 PROGRAM * CCSD (Closed-shell coupled cluster)     Authors: C. Hampel, H.-J. Werner, 1991, M. Deegan, P.J. Knowles, 1992


 Convergence thresholds:  THRVAR = 1.00D-08  THRDEN = 1.00D-12

 CCSD(T)     terms to be evaluated (factor= 1.000)


 Number of core orbitals:           2 (   2   0   0   0 )
 Number of closed-shell orbitals:   5 (   3   1   1   0 )
 Number of external orbitals:     164 (  70  38  38  18 )

 Molecular orbitals read from record     2100.2  Type=RHF/CANONICAL (state 1.1)

 Number of N-1 electron functions:               5
 Number of N-2 electron functions:              15
 Number of singly external CSFs:               286
 Number of doubly external CSFs:             90562
 Total number of CSFs:                       90849

 Length of J-op  integral file:               0.00 MB
 Length of K-op  integral file:               0.65 MB
 Length of 3-ext integral record:             0.00 MB

 Memory could be reduced to 9.35 Mwords without degradation in triples

 Integral transformation finished. Total CPU:   0.25 sec, npass=  1  Memory used:   1.25 MW

 Reference energy:                    -92.80530333

 MP2 singlet pair energy:              -0.21658671
 MP2 triplet pair energy:              -0.12401899
 MP2 correlation energy:               -0.34060569
 MP2 total energy:                    -93.14590902

 SCS-MP2 correlation energy:           -0.33707142   (PS=  1.200000  PT=  0.333333)
 SCS-MP2 total energy:                -93.14237474

 ITER.      SQ.NORM     CORR.ENERGY   TOTAL ENERGY   ENERGY CHANGE        DEN1      VAR(S)    VAR(P)  DIIS     TIME  TIME/IT
   1      1.11005007    -0.34383127   -93.14913460    -0.00322558     0.00853073  0.23D-02  0.26D-02  1  1     0.48     0.26
   2      1.11837569    -0.34420086   -93.14950419    -0.00036959    -0.00899718  0.74D-04  0.36D-03  2  2     0.71     0.26
   3      1.12306067    -0.34438865   -93.14969198    -0.00018779    -0.00260553  0.97D-05  0.40D-04  3  3     0.94     0.26
   4      1.12484439    -0.34445713   -93.14976046    -0.00006848    -0.00059851  0.87D-06  0.45D-05  4  4     1.17     0.26
   5      1.12535964    -0.34445539   -93.14975872     0.00000174    -0.00015730  0.12D-06  0.36D-06  5  5     1.40     0.26
   6      1.12544461    -0.34445331   -93.14975664     0.00000208    -0.00002122  0.76D-08  0.28D-07  6  6     1.65     0.26
   7      1.12545148    -0.34445473   -93.14975806    -0.00000142     0.00000013  0.10D-08  0.23D-08  6  1     1.88     0.26
   8      1.12545385    -0.34445508   -93.14975841    -0.00000035    -0.00000090  0.18D-09  0.17D-09  6  2     2.11     0.26
   9      1.12545374    -0.34445516   -93.14975848    -0.00000007     0.00000019  0.12D-10  0.14D-10  6  3     2.33     0.26
  10      1.12545378    -0.34445517   -93.14975850    -0.00000001     0.00000005  0.29D-11  0.15D-11  6  4     2.56     0.26
  11      1.12545380    -0.34445517   -93.14975850    -0.00000000     0.00000000  0.35D-12  0.26D-12  6  5     2.78     0.26
  12      1.12545375    -0.34445518   -93.14975850    -0.00000000     0.00000003  0.36D-13  0.69D-13  6  6     3.02     0.26
  13      1.12545372    -0.34445518   -93.14975851    -0.00000000     0.00000001  0.18D-14  0.84D-14  6  1     3.23     0.26
  14      1.12545371    -0.34445518   -93.14975851    -0.00000000     0.00000001  0.27D-15  0.11D-14  6  2     3.46     0.26
  15      1.12545370    -0.34445518   -93.14975851    -0.00000000     0.00000000  0.49D-16  0.17D-15  6  3     3.68     0.26
  16      1.12545370    -0.34445518   -93.14975851     0.00000000     0.00000000  0.50D-17  0.66D-17  6  5     3.90     0.26
  17      1.12545370    -0.34445518   -93.14975851     0.00000000     0.00000000  0.46D-18  0.40D-18  6  4     4.13     0.26

 Norm of t1 vector:      0.06144777      S-energy:     0.00000000      T1 diagnostic:  0.01374014
                                                                       D1 diagnostic:  0.02681905

 Doubles amplitudes (print threshold =  0.500E-01):

         I         J         SYM. A    SYM. B    A         B      T(IJ, AB)

         4         4         2         2         1         1     -0.05875680
         5         5         3         3         1         1     -0.05875680


 Total CPU time for triples:      1.20 sec


 RESULTS
 =======

  Reference energy                    -92.805303329301
  CCSD singlet pair energy             -0.238696349533
  CCSD triplet pair energy             -0.105758826973
  CCSD correlation energy              -0.344455176499

  Triples (T) contribution             -0.016970192228
  Total correlation energy             -0.361425368728

  CCSD total energy                   -93.149758505801
  CCSD[T] energy                      -93.167421110251
  CCSD-T energy                       -93.166385480658
 !CCSD(T) total energy                -93.166728698029

 Timing summary (sec):

 STEP                 CPU(USER)    SYS     CPU(TOT)    WALL
 Transformation          0.26      0.04      0.30      0.30
 CCSD iterations         3.87      0.54      4.41      4.42
 Triples                 1.20      0.05      1.25      1.26

 Program statistics:

 Available memory in ccsd:               994999800
 Min. memory needed in ccsd:                377822
 Max. memory used in ccsd:                  449387
 Max. memory used in cckext:                547289 (17 integral passes)



 **********************************************************************************************************************************
 DATASETS  * FILE   NREC   LENGTH (MB)   RECORD NAMES
              1      20      238.70       500      610      700      900      950      970     1000      129      960     1100   
                                          VAR    BASINP    GEOM    SYMINP    ZMAT    AOBASIS   BASIS     P2S    ABASIS      S 
                                         1400     1410     1200     1210     1080     1600     1650     1300     1700     1380   
                                           T        V       H0       H01     AOSYM     SMH    MOLCAS    ERIS     OPER     JKOP   

              2       4        2.98       700     1000      520     2100   
                                         GEOM     BASIS   MCVARS     RHF  

 PROGRAMS   *        TOTAL   CCSD(T)        HF       INT
 CPU TIMES  *        10.20      5.37      1.70      3.00
 REAL TIME  *        12.38 SEC
 DISK USED  *       641.75 MB      
 **********************************************************************************************************************************

 CCSD(T)/USERDEF energy=    -93.166728698029

        CCSD(T)         HF-SCF  
    -93.16672870    -92.80530333
 **********************************************************************************************************************************
 Molpro calculation terminated
 Variable memory released
