
 Primary working directories    : /tmp/r2666/232706.maple
 Secondary working directories  : /tmp/r2666/232706.maple
 Wavefunction directory         : /ddn/home4/r2666/wfu/
 Main file repository           : /tmp/r2666/232706.maple/

 SHA1      : d5ffa45e93fdbca01ffc919aa182cfdae0147319
 NAME      : 2015.1.35
 ARCHNAME  : linux/x86_64
 FC        : /opt/intel/composer_xe_2015.1.133/bin/intel64/ifort
 BLASLIB   : -Wl,-_start-group /opt/intel/mkl/lib/intel64/libmkl_intel_ilp64.a /opt/intel/mkl/lib/intel64/libmkl_intel_thread.a /opt/intel/mkl/lib/intel64/libmkl_core.a -Wl,-_end-group
 id        : olemiss

 Nodes     nprocs
 cn090        1

 Using customized tuning parameters: mindgm=1; mindgv=20; mindgc=4; mindgr=1; noblas=0; minvec=7
 default implementation of scratch files=df  

 ***,hcn CCSD(T)/TZ-F12 QFF
 memory, 995, m;
 gthresh,energy=1.d-12,zero=1.d-22,oneint=1.d-22,twoint=1.d-22;
 gthresh,optgrad=1.d-8,optstep=1.d-8;
 nocompress;
 geomtyp=xyz
 bohr
 geometry={
 3
         40        40
 N        0.0000000000        0.0000000000        1.1310004776
 C        0.0000000000        0.0000000000       -1.0572978193
 H        0.0000000000        0.0000000000       -3.0707726403
 }
 
 basis={
 default=aug-cc-pvtz
 s,C,8236.0,1235.0,280.8, 79.27,25.59, 8.997,3.319
 s,C,0.9059,0.3643,0.1285000
 p,C,56.0,18.71,4.133,0.2827,0.3827,0.1209
 d,C,30.0,10.0,3.3,1.097,0.318
 f,C,7.0,2.3,0.7610
 s,N,11420.0,1712.0,389.3,110.0,35.57,12.54,4.644
 s,N,1.293,0.5118,0.1787
 p,N,79.89,26.63,5.948,1.742,0.555,0.1725
 d,N,45.0,15.0,5.0,1.654,0.469
 f,N,9.9,3.3,1.093
 s,O,15330.0,2299.0,522.4,147.3,47.55,16.76,6.207
 s,O,1.752,0.6882,0.2384
 p,O,103.5,34.46,7.749,2.28,0.7156,0.214
 d,O,63.0,21.0,7.0,2.314,0.645
 f,O,12.9,4.3,1.428
 s,mg,164900.0,24710.0,5628.0,1596.0,521.0;
 s,mg,188.0,73.01,29.90,12.54,4.306,1.826;
 s,mg,0.7417,0.0761,0.145,0.033,0.0129;
 p,mg,950.70,316.90,74.86,23.72,8.669,3.363;
 p,mg,1.310,0.4911,0.2364,0.08733,0.03237,0.00745;
 d,mg,1.601,0.686,0.126,0.294,0.0468;
 f,mg,1.372,0.588,0.094,0.252;
 }
   {hf,maxit=500;accu,20;}
 {ccsd(t),nocheck,maxit=250;orbital,IGNORE_ERROR;}

 Variables initialized (889), CPU time= 0.00 sec
 Commands  initialized (702), CPU time= 0.01 sec, 572 directives.
 Default parameters read. Elapsed time= 0.04 sec

 Checking input...
 Passed
1


                                         ***  PROGRAM SYSTEM MOLPRO  ***
                                       Copyright, TTI GmbH Stuttgart, 2015
                                    Version 2015.1 linked Jul  9 2018 13:16:40


 **********************************************************************************************************************************
 LABEL *   hcn CCSD(T)/TZ-F12 QFF                                                        
  64 bit serial version                                                                  DATE: 06-Feb-20          TIME: 09:55:02  
 **********************************************************************************************************************************

 SHA1:             d5ffa45e93fdbca01ffc919aa182cfdae0147319
 **********************************************************************************************************************************

 THRESHOLDS:

 ZERO    =  1.00D-22  ONEINT  =  1.00D-22  TWOINT  =  1.00D-22  PREFAC  =  1.00D-14  LOCALI  =  1.00D-09  EORDER  =  1.00D-04
 ENERGY  =  1.00D-12  ETEST   =  0.00D+00  EDENS   =  0.00D+00  THRDEDEF=  1.00D-06  GRADIENT=  1.00D-02  STEP    =  1.00D-03
 ORBITAL =  1.00D-05  CIVEC   =  1.00D-05  COEFF   =  1.00D-04  PRINTCI =  5.00D-02  PUNCHCI =  9.90D+01  OPTGRAD =  3.00D-04
 OPTENERG=  1.00D-06  OPTSTEP =  3.00D-04  THRGRAD =  1.00D-10  COMPRESS=  1.00D-11  VARMIN  =  1.00D-07  VARMAX  =  1.00D-03
 THRDOUB =  0.00D+00  THRDIV  =  1.00D-05  THRRED  =  1.00D-07  THRPSP  =  1.00D+00  THRDC   =  1.00D-10  THRCS   =  1.00D-10
 THRNRM  =  1.00D-08  THREQ   =  0.00D+00  THRDE   =  1.00D+00  THRREF  =  1.00D-05  SPARFAC =  1.00D+00  THRDLP  =  1.00D-07
 THRDIA  =  1.00D-10  THRDLS  =  1.00D-07  THRGPS  =  0.00D+00  THRKEX  =  0.00D+00  THRDIS  =  2.00D-01  THRVAR  =  1.00D-10
 THRLOC  =  1.00D-06  THRGAP  =  1.00D-06  THRLOCT = -1.00D+00  THRGAPT = -1.00D+00  THRORB  =  1.00D-06  THRMLTP =  0.00D+00
 THRCPQCI=  1.00D-10  KEXTA   =  0.00D+00  THRCOARS=  0.00D+00  SYMTOL  =  1.00D-06  GRADTOL =  1.00D-06  THROVL  =  1.00D-08
 THRORTH =  1.00D-08  GRID    =  1.00D-06  GRIDMAX =  1.00D-03  DTMAX   =  0.00D+00  THROCCDE=  1.00D-01  THROCCDE=  1.00D-01



 THRESHOLDS:

 ZERO    =  1.00D-22  ONEINT  =  1.00D-22  TWOINT  =  1.00D-22  PREFAC  =  1.00D-14  LOCALI  =  1.00D-09  EORDER  =  1.00D-04
 ENERGY  =  1.00D-12  ETEST   =  0.00D+00  EDENS   =  0.00D+00  THRDEDEF=  1.00D-06  GRADIENT=  1.00D-02  STEP    =  1.00D-03
 ORBITAL =  1.00D-05  CIVEC   =  1.00D-05  COEFF   =  1.00D-04  PRINTCI =  5.00D-02  PUNCHCI =  9.90D+01  OPTGRAD =  1.00D-08
 OPTENERG=  1.00D-06  OPTSTEP =  1.00D-08  THRGRAD =  1.00D-10  COMPRESS=  1.00D-11  VARMIN  =  1.00D-07  VARMAX  =  1.00D-03
 THRDOUB =  0.00D+00  THRDIV  =  1.00D-05  THRRED  =  1.00D-07  THRPSP  =  1.00D+00  THRDC   =  1.00D-10  THRCS   =  1.00D-10
 THRNRM  =  1.00D-08  THREQ   =  0.00D+00  THRDE   =  1.00D+00  THRREF  =  1.00D-05  SPARFAC =  1.00D+00  THRDLP  =  1.00D-07
 THRDIA  =  1.00D-10  THRDLS  =  1.00D-07  THRGPS  =  0.00D+00  THRKEX  =  0.00D+00  THRDIS  =  2.00D-01  THRVAR  =  1.00D-10
 THRLOC  =  1.00D-06  THRGAP  =  1.00D-06  THRLOCT = -1.00D+00  THRGAPT = -1.00D+00  THRORB  =  1.00D-06  THRMLTP =  0.00D+00
 THRCPQCI=  1.00D-10  KEXTA   =  0.00D+00  THRCOARS=  0.00D+00  SYMTOL  =  1.00D-06  GRADTOL =  1.00D-06  THROVL  =  1.00D-08
 THRORTH =  1.00D-08  GRID    =  1.00D-06  GRIDMAX =  1.00D-03  DTMAX   =  0.00D+00  THROCCDE=  1.00D-01  THROCCDE=  1.00D-01



 Input parameters for SORTINT:

 COMPRESS =    0.000000
 C_FINAL  =    1.000000
 DEBUG    =   -1.000000
 C_SORT1  =    0.000000
 C_SEWARD =    0.000000
 THRESH   =    0.000000
 IO       =  molpro                                                          
 SPRI     =    0.000000
 SETTING GEOMTYP        =    XYZ
 ZUNIT=BOHR
 

 Variable memory set to  995000000 words,  buffer space   230000 words

 SETTING BASIS          =    USERDEF


 Recomputing integrals since basis changed


 Using spherical harmonics

 Library entry H      S aug-cc-pVTZ          selected for orbital group  3
 Library entry H      P aug-cc-pVTZ          selected for orbital group  3
 Library entry H      D aug-cc-pVTZ          selected for orbital group  3


 PROGRAM * SEWARD (Integral evaluation for generally contracted gaussian basis sets)     Author: Roland Lindh, 1990

 Geometry written to block  1 of record 700


 Point group  C2v 



 ATOMIC COORDINATES

 NR  ATOM    CHARGE       X              Y              Z

   1  N       7.00    0.000000000    0.000000000    1.131000478
   2  C       6.00    0.000000000    0.000000000   -1.057297819
   3  H       1.00    0.000000000    0.000000000   -3.070772640

 Bond lengths in Bohr (Angstrom)

 1-2  2.188298297  2-3  2.013474821
     ( 1.157997589)     ( 1.065484990)

 Bond angles

  1-2-3  180.00000000

 NUCLEAR CHARGE:                   14
 NUMBER OF PRIMITIVE AOS:         203
 NUMBER OF SYMMETRY AOS:          173
 NUMBER OF CONTRACTIONS:          171   (  75A1  +  39B1  +  39B2  +  18A2  )
 NUMBER OF CORE ORBITALS:           2   (   2A1  +   0B1  +   0B2  +   0A2  )
 NUMBER OF VALENCE ORBITALS:        9   (   5A1  +   2B1  +   2B2  +   0A2  )


 NUCLEAR REPULSION ENERGY   23.83888217

 EXTRA SYMMETRY OF AOS IN SYMMETRY 1:   1 1 1 1 1 1 1 1 1 1   1 1 1 1 1 1 1 2 1 2   1 2 1 2 1 2 1 2 1 2   1 2 1 1 1 1 1 1 1 1
                                        1 1 1 1 1 1 1 1 1 2   1 2 1 2 1 2 1 2 1 2   1 2 1 2 1 1 1 1 1 1   1 1 2 1 2
 EXTRA SYMMETRY OF AOS IN SYMMETRY 2:   1 1 1 1 1 1 1 1 1 1   1 1 2 1 2 1 2 1 1 1   1 1 1 1 1 1 1 1 1 2   1 2 1 2 1 1 1 1 1
 EXTRA SYMMETRY OF AOS IN SYMMETRY 3:   1 1 1 1 1 1 1 1 1 1   1 1 2 1 2 1 2 1 1 1   1 1 1 1 1 1 1 1 1 2   1 2 1 2 1 1 1 1 1

 Eigenvalues of metric

         1 0.244E-03 0.535E-03 0.917E-03 0.138E-02 0.319E-02 0.759E-02 0.100E-01 0.132E-01
         2 0.544E-02 0.159E-01 0.223E-01 0.348E-01 0.965E-01 0.113E+00 0.125E+00 0.188E+00
         3 0.544E-02 0.159E-01 0.223E-01 0.348E-01 0.965E-01 0.113E+00 0.125E+00 0.188E+00
         4 0.125E+00 0.140E+00 0.196E+00 0.257E+00 0.315E+00 0.379E+00 0.485E+00 0.599E+00


 Contracted 2-electron integrals neglected if value below      1.0D-22

       21713732. INTEGRALS WRITTEN OUT IN    5303 BLOCKS ON RECORD 1290 OF FILE 1


 NUMBER OF SORTED TWO-ELECTRON INTEGRALS:   28272141.     BUFFER LENGTH:  32768
 NUMBER OF SEGMENTS:   2  SEGMENT LENGTH:   15998211      RECORD LENGTH: 524288

 Memory used in sort:      16.56 MW

 SORT1 READ    21713732. AND WROTE    22111519. INTEGRALS IN     65 RECORDS. CPU TIME:     0.52 SEC, REAL TIME:     0.64 SEC
 SORT2 READ    22111519. AND WROTE    28272141. INTEGRALS IN      2 RECORDS. CPU TIME:     0.39 SEC, REAL TIME:     0.50 SEC

 FILE SIZES:   FILE 1:   368.2 MBYTE,  FILE 4:   272.7 MBYTE,   TOTAL:    640.8 MBYTE

 OPERATOR DM      FOR CENTER  0  COORDINATES:    0.000000    0.000000    0.000000


 **********************************************************************************************************************************
 DATASETS  * FILE   NREC   LENGTH (MB)   RECORD NAMES
              1      19      213.33       500      610      700      900      950      970     1000      129      960     1100   
                                          VAR    BASINP    GEOM    SYMINP    ZMAT    AOBASIS   BASIS     P2S    ABASIS      S 
                                         1400     1410     1200     1210     1080     1600     1650     1300     1700   
                                           T        V       H0       H01     AOSYM     SMH    MOLCAS    ERIS     OPER   

 PROGRAMS   *        TOTAL       INT
 CPU TIMES  *         3.28      3.19
 REAL TIME  *         4.21 SEC
 DISK USED  *       641.16 MB      
 **********************************************************************************************************************************


 PROGRAM * RHF-SCF (CLOSED SHELL)       Authors: W. Meyer, H.-J. Werner


 NUMBER OF ELECTRONS:       7+    7-
 CONVERGENCE THRESHOLDS:    1.00E-10 (Density)    1.00E-13 (Energy)
 MAX. NUMBER OF ITERATIONS:      500
 INTERPOLATION TYPE:            DIIS
 INTERPOLATION STEPS:              2 (START)      1 (STEP)
 LEVEL SHIFTS:                  0.00 (CLOSED)  0.00 (OPEN) 



 Orbital guess generated from atomic densities. Full valence occupancy:    7   2   2   0

 Molecular orbital dump at record        2100.2

 Initial occupancy:   5   1   1   0

 ITERATION    DDIFF          GRAD             ENERGY        2-EL.EN.            DIPOLE MOMENTS         DIIS   ORB.
    1      0.000D+00      0.000D+00       -92.77115349    111.541802    0.00000    0.00000   -2.02883    0    start
    2      0.000D+00      0.909D-02       -92.78315085    109.854322    0.00000    0.00000   -0.93939    1    diag
    3      0.345D-01      0.792D-02       -92.80541770    110.781528    0.00000    0.00000   -1.45034    2    diag
    4      0.119D-01      0.569D-03       -92.80567003    110.729703    0.00000    0.00000   -1.44317    3    diag
    5      0.189D-02      0.129D-03       -92.80568479    110.738735    0.00000    0.00000   -1.44186    4    diag
    6      0.534D-03      0.336D-04       -92.80568564    110.734300    0.00000    0.00000   -1.44209    5    diag
    7      0.452D-04      0.120D-04       -92.80568573    110.735261    0.00000    0.00000   -1.44217    6    diag
    8      0.163D-04      0.241D-05       -92.80568574    110.735247    0.00000    0.00000   -1.44215    7    diag
    9      0.852D-05      0.264D-06       -92.80568574    110.735254    0.00000    0.00000   -1.44215    8    diag
   10      0.143D-05      0.289D-07       -92.80568574    110.735256    0.00000    0.00000   -1.44215    9    orth
   11      0.139D-06      0.377D-08       -92.80568574    110.735256    0.00000    0.00000   -1.44215    9    diag
   12      0.122D-07      0.397D-09       -92.80568574    110.735256    0.00000    0.00000   -1.44215    9    diag
   13      0.119D-08      0.513D-10       -92.80568574    110.735256    0.00000    0.00000   -1.44215    9    diag
   14      0.175D-09      0.748D-11       -92.80568574    110.735256    0.00000    0.00000   -1.44215    9    diag
   15      0.283D-10      0.160D-11       -92.80568574    110.735256    0.00000    0.00000   -1.44215    9    diag
   16      0.659D-11      0.449D-12       -92.80568574    110.735256    0.00000    0.00000   -1.44215    0    orth

 Final occupancy:   5   1   1   0

 !RHF STATE 1.1 Energy                -92.805685735590
 Nuclear energy                        23.83888217
 One-electron energy                 -172.01219572
 Two-electron energy                   55.36762781
 Virial quotient                       -1.00268182
 !RHF STATE 1.1 Dipole moment           0.00000000     0.00000000    -1.44215057
 Dipole moment /Debye                   0.00000000     0.00000000    -3.66534104

 Orbital energies:

         1.1          2.1          3.1          4.1          5.1          6.1          7.1
    -15.592798   -11.401259    -1.251374    -0.836653    -0.578305     0.032628     0.151727

         1.2          2.2          3.2
     -0.489041     0.132621     0.305217

         1.3          2.3          3.3
     -0.489041     0.132621     0.305217

         1.4          2.4
      0.682464     0.963238

 HOMO      1.2    -0.489041 =     -13.3075eV
 LUMO      6.1     0.032628 =       0.8878eV
 LUMO-HOMO         0.521669 =      14.1953eV


 **********************************************************************************************************************************
 DATASETS  * FILE   NREC   LENGTH (MB)   RECORD NAMES
              1      19      213.33       500      610      700      900      950      970     1000      129      960     1100   
                                          VAR    BASINP    GEOM    SYMINP    ZMAT    AOBASIS   BASIS     P2S    ABASIS      S 
                                         1400     1410     1200     1210     1080     1600     1650     1300     1700   
                                           T        V       H0       H01     AOSYM     SMH    MOLCAS    ERIS     OPER   

              2       4        2.98       700     1000      520     2100   
                                         GEOM     BASIS   MCVARS     RHF  

 PROGRAMS   *        TOTAL        HF       INT
 CPU TIMES  *         4.96      1.68      3.19
 REAL TIME  *         6.23 SEC
 DISK USED  *       641.16 MB      
 **********************************************************************************************************************************


 PROGRAM * CCSD (Closed-shell coupled cluster)     Authors: C. Hampel, H.-J. Werner, 1991, M. Deegan, P.J. Knowles, 1992


 Convergence thresholds:  THRVAR = 1.00D-08  THRDEN = 1.00D-12

 CCSD(T)     terms to be evaluated (factor= 1.000)


 Number of core orbitals:           2 (   2   0   0   0 )
 Number of closed-shell orbitals:   5 (   3   1   1   0 )
 Number of external orbitals:     164 (  70  38  38  18 )

 Molecular orbitals read from record     2100.2  Type=RHF/CANONICAL (state 1.1)

 Number of N-1 electron functions:               5
 Number of N-2 electron functions:              15
 Number of singly external CSFs:               286
 Number of doubly external CSFs:             90562
 Total number of CSFs:                       90849

 Length of J-op  integral file:               0.00 MB
 Length of K-op  integral file:               0.65 MB
 Length of 3-ext integral record:             0.00 MB

 Memory could be reduced to 9.35 Mwords without degradation in triples

 Integral transformation finished. Total CPU:   0.23 sec, npass=  1  Memory used:   1.25 MW

 Reference energy:                    -92.80568574

 MP2 singlet pair energy:              -0.21719996
 MP2 triplet pair energy:              -0.12446281
 MP2 correlation energy:               -0.34166276
 MP2 total energy:                    -93.14734850

 SCS-MP2 correlation energy:           -0.33808347   (PS=  1.200000  PT=  0.333333)
 SCS-MP2 total energy:                -93.14376921

 ITER.      SQ.NORM     CORR.ENERGY   TOTAL ENERGY   ENERGY CHANGE        DEN1      VAR(S)    VAR(P)  DIIS     TIME  TIME/IT
   1      1.11099470    -0.34467897   -93.15036471    -0.00301621     0.00895581  0.23D-02  0.27D-02  1  1     0.47     0.26
   2      1.11949389    -0.34503398   -93.15071971    -0.00035500    -0.00913039  0.77D-04  0.37D-03  2  2     0.69     0.26
   3      1.12432399    -0.34523095   -93.15091669    -0.00019698    -0.00266341  0.10D-04  0.42D-04  3  3     0.93     0.26
   4      1.12616930    -0.34530260   -93.15098834    -0.00007165    -0.00061450  0.90D-06  0.47D-05  4  4     1.16     0.26
   5      1.12670538    -0.34530128   -93.15098702     0.00000132    -0.00016187  0.14D-06  0.38D-06  5  5     1.38     0.27
   6      1.12679800    -0.34529897   -93.15098471     0.00000231    -0.00002322  0.88D-08  0.31D-07  6  6     1.62     0.27
   7      1.12680543    -0.34530045   -93.15098619    -0.00000148     0.00000020  0.12D-08  0.25D-08  6  1     1.86     0.27
   8      1.12680821    -0.34530079   -93.15098653    -0.00000034    -0.00000106  0.22D-09  0.19D-09  6  2     2.10     0.27
   9      1.12680812    -0.34530086   -93.15098660    -0.00000007     0.00000020  0.17D-10  0.16D-10  6  3     2.35     0.27
  10      1.12680818    -0.34530088   -93.15098661    -0.00000001     0.00000005  0.41D-11  0.19D-11  6  4     2.57     0.27
  11      1.12680820    -0.34530088   -93.15098662    -0.00000000     0.00000000  0.46D-12  0.36D-12  6  5     2.81     0.27
  12      1.12680816    -0.34530088   -93.15098662    -0.00000000     0.00000003  0.42D-13  0.96D-13  6  6     3.04     0.27
  13      1.12680812    -0.34530089   -93.15098662    -0.00000000     0.00000001  0.22D-14  0.12D-13  6  1     3.28     0.27
  14      1.12680810    -0.34530089   -93.15098662    -0.00000000     0.00000001  0.44D-15  0.15D-14  6  2     3.53     0.27
  15      1.12680810    -0.34530089   -93.15098662    -0.00000000     0.00000000  0.75D-16  0.24D-15  6  3     3.78     0.27
  16      1.12680809    -0.34530089   -93.15098662    -0.00000000     0.00000000  0.73D-17  0.10D-16  6  5     4.01     0.27
  17      1.12680809    -0.34530089   -93.15098662    -0.00000000     0.00000000  0.60D-18  0.54D-18  6  4     4.25     0.27
  18      1.12680809    -0.34530089   -93.15098662     0.00000000    -0.00000000  0.99D-19  0.82D-19  6  6     4.50     0.27

 Norm of t1 vector:      0.06234628      S-energy:     0.00000000      T1 diagnostic:  0.01394105
                                                                       D1 diagnostic:  0.02710304

 Doubles amplitudes (print threshold =  0.500E-01):

         I         J         SYM. A    SYM. B    A         B      T(IJ, AB)

         4         4         2         2         1         1     -0.05954659
         5         5         3         3         1         1     -0.05954659


 Total CPU time for triples:      1.38 sec


 RESULTS
 =======

  Reference energy                    -92.805685735590
  CCSD singlet pair energy             -0.239426519053
  CCSD triplet pair energy             -0.105874367020
  CCSD correlation energy              -0.345300886063

  Triples (T) contribution             -0.017155928726
  Total correlation energy             -0.362456814789

  CCSD total energy                   -93.150986621653
  CCSD[T] energy                      -93.168854049840
  CCSD-T energy                       -93.167791237291
 !CCSD(T) total energy                -93.168142550379

 Timing summary (sec):

 STEP                 CPU(USER)    SYS     CPU(TOT)    WALL
 Transformation          0.23      0.06      0.29      0.29
 CCSD iterations         4.27      0.57      4.84      4.84
 Triples                 1.38      0.08      1.46      1.46

 Program statistics:

 Available memory in ccsd:               994999800
 Min. memory needed in ccsd:                377822
 Max. memory used in ccsd:                  449387
 Max. memory used in cckext:                547289 (18 integral passes)



 **********************************************************************************************************************************
 DATASETS  * FILE   NREC   LENGTH (MB)   RECORD NAMES
              1      20      238.50       500      610      700      900      950      970     1000      129      960     1100   
                                          VAR    BASINP    GEOM    SYMINP    ZMAT    AOBASIS   BASIS     P2S    ABASIS      S 
                                         1400     1410     1200     1210     1080     1600     1650     1300     1700     1380   
                                           T        V       H0       H01     AOSYM     SMH    MOLCAS    ERIS     OPER     JKOP   

              2       4        2.98       700     1000      520     2100   
                                         GEOM     BASIS   MCVARS     RHF  

 PROGRAMS   *        TOTAL   CCSD(T)        HF       INT
 CPU TIMES  *        10.88      5.92      1.68      3.19
 REAL TIME  *        14.64 SEC
 DISK USED  *       641.16 MB      
 **********************************************************************************************************************************

 CCSD(T)/USERDEF energy=    -93.168142550379

        CCSD(T)         HF-SCF  
    -93.16814255    -92.80568574
 **********************************************************************************************************************************
 Molpro calculation terminated
 Variable memory released
