
 Primary working directories    : /tmp/r2666/232699.maple
 Secondary working directories  : /tmp/r2666/232699.maple
 Wavefunction directory         : /ddn/home4/r2666/wfu/
 Main file repository           : /tmp/r2666/232699.maple/

 SHA1      : d5ffa45e93fdbca01ffc919aa182cfdae0147319
 NAME      : 2015.1.35
 ARCHNAME  : linux/x86_64
 FC        : /opt/intel/composer_xe_2015.1.133/bin/intel64/ifort
 BLASLIB   : -Wl,-_start-group /opt/intel/mkl/lib/intel64/libmkl_intel_ilp64.a /opt/intel/mkl/lib/intel64/libmkl_intel_thread.a /opt/intel/mkl/lib/intel64/libmkl_core.a -Wl,-_end-group
 id        : olemiss

 Nodes     nprocs
 cn095        1

 Using customized tuning parameters: mindgm=1; mindgv=20; mindgc=4; mindgr=1; noblas=0; minvec=7
 default implementation of scratch files=df  

 ***,hcn CCSD(T)/TZ-F12 QFF
 memory, 995, m;
 gthresh,energy=1.d-12,zero=1.d-22,oneint=1.d-22,twoint=1.d-22;
 gthresh,optgrad=1.d-8,optstep=1.d-8;
 nocompress;
 geomtyp=xyz
 bohr
 geometry={
 3
         33        33
 N       -0.0046390182        0.0000001580        1.1309515334
 C        0.0096588041       -0.0000000041       -1.0478512212
 H       -0.0050197859       -0.0000001539       -3.0801702942
 }
 
 basis={
 default=aug-cc-pvtz
 s,C,8236.0,1235.0,280.8, 79.27,25.59, 8.997,3.319
 s,C,0.9059,0.3643,0.1285000
 p,C,56.0,18.71,4.133,0.2827,0.3827,0.1209
 d,C,30.0,10.0,3.3,1.097,0.318
 f,C,7.0,2.3,0.7610
 s,N,11420.0,1712.0,389.3,110.0,35.57,12.54,4.644
 s,N,1.293,0.5118,0.1787
 p,N,79.89,26.63,5.948,1.742,0.555,0.1725
 d,N,45.0,15.0,5.0,1.654,0.469
 f,N,9.9,3.3,1.093
 s,O,15330.0,2299.0,522.4,147.3,47.55,16.76,6.207
 s,O,1.752,0.6882,0.2384
 p,O,103.5,34.46,7.749,2.28,0.7156,0.214
 d,O,63.0,21.0,7.0,2.314,0.645
 f,O,12.9,4.3,1.428
 s,mg,164900.0,24710.0,5628.0,1596.0,521.0;
 s,mg,188.0,73.01,29.90,12.54,4.306,1.826;
 s,mg,0.7417,0.0761,0.145,0.033,0.0129;
 p,mg,950.70,316.90,74.86,23.72,8.669,3.363;
 p,mg,1.310,0.4911,0.2364,0.08733,0.03237,0.00745;
 d,mg,1.601,0.686,0.126,0.294,0.0468;
 f,mg,1.372,0.588,0.094,0.252;
 }
   {hf,maxit=500;accu,20;}
 {ccsd(t),nocheck,maxit=250;orbital,IGNORE_ERROR;}

 Variables initialized (889), CPU time= 0.01 sec
 Commands  initialized (702), CPU time= 0.01 sec, 572 directives.
 Default parameters read. Elapsed time= 0.05 sec

 Checking input...
 Passed
1


                                         ***  PROGRAM SYSTEM MOLPRO  ***
                                       Copyright, TTI GmbH Stuttgart, 2015
                                    Version 2015.1 linked Jul  9 2018 13:16:40


 **********************************************************************************************************************************
 LABEL *   hcn CCSD(T)/TZ-F12 QFF                                                        
  64 bit serial version                                                                  DATE: 06-Feb-20          TIME: 09:54:53  
 **********************************************************************************************************************************

 SHA1:             d5ffa45e93fdbca01ffc919aa182cfdae0147319
 **********************************************************************************************************************************

 THRESHOLDS:

 ZERO    =  1.00D-22  ONEINT  =  1.00D-22  TWOINT  =  1.00D-22  PREFAC  =  1.00D-14  LOCALI  =  1.00D-09  EORDER  =  1.00D-04
 ENERGY  =  1.00D-12  ETEST   =  0.00D+00  EDENS   =  0.00D+00  THRDEDEF=  1.00D-06  GRADIENT=  1.00D-02  STEP    =  1.00D-03
 ORBITAL =  1.00D-05  CIVEC   =  1.00D-05  COEFF   =  1.00D-04  PRINTCI =  5.00D-02  PUNCHCI =  9.90D+01  OPTGRAD =  3.00D-04
 OPTENERG=  1.00D-06  OPTSTEP =  3.00D-04  THRGRAD =  1.00D-10  COMPRESS=  1.00D-11  VARMIN  =  1.00D-07  VARMAX  =  1.00D-03
 THRDOUB =  0.00D+00  THRDIV  =  1.00D-05  THRRED  =  1.00D-07  THRPSP  =  1.00D+00  THRDC   =  1.00D-10  THRCS   =  1.00D-10
 THRNRM  =  1.00D-08  THREQ   =  0.00D+00  THRDE   =  1.00D+00  THRREF  =  1.00D-05  SPARFAC =  1.00D+00  THRDLP  =  1.00D-07
 THRDIA  =  1.00D-10  THRDLS  =  1.00D-07  THRGPS  =  0.00D+00  THRKEX  =  0.00D+00  THRDIS  =  2.00D-01  THRVAR  =  1.00D-10
 THRLOC  =  1.00D-06  THRGAP  =  1.00D-06  THRLOCT = -1.00D+00  THRGAPT = -1.00D+00  THRORB  =  1.00D-06  THRMLTP =  0.00D+00
 THRCPQCI=  1.00D-10  KEXTA   =  0.00D+00  THRCOARS=  0.00D+00  SYMTOL  =  1.00D-06  GRADTOL =  1.00D-06  THROVL  =  1.00D-08
 THRORTH =  1.00D-08  GRID    =  1.00D-06  GRIDMAX =  1.00D-03  DTMAX   =  0.00D+00  THROCCDE=  1.00D-01  THROCCDE=  1.00D-01



 THRESHOLDS:

 ZERO    =  1.00D-22  ONEINT  =  1.00D-22  TWOINT  =  1.00D-22  PREFAC  =  1.00D-14  LOCALI  =  1.00D-09  EORDER  =  1.00D-04
 ENERGY  =  1.00D-12  ETEST   =  0.00D+00  EDENS   =  0.00D+00  THRDEDEF=  1.00D-06  GRADIENT=  1.00D-02  STEP    =  1.00D-03
 ORBITAL =  1.00D-05  CIVEC   =  1.00D-05  COEFF   =  1.00D-04  PRINTCI =  5.00D-02  PUNCHCI =  9.90D+01  OPTGRAD =  1.00D-08
 OPTENERG=  1.00D-06  OPTSTEP =  1.00D-08  THRGRAD =  1.00D-10  COMPRESS=  1.00D-11  VARMIN  =  1.00D-07  VARMAX  =  1.00D-03
 THRDOUB =  0.00D+00  THRDIV  =  1.00D-05  THRRED  =  1.00D-07  THRPSP  =  1.00D+00  THRDC   =  1.00D-10  THRCS   =  1.00D-10
 THRNRM  =  1.00D-08  THREQ   =  0.00D+00  THRDE   =  1.00D+00  THRREF  =  1.00D-05  SPARFAC =  1.00D+00  THRDLP  =  1.00D-07
 THRDIA  =  1.00D-10  THRDLS  =  1.00D-07  THRGPS  =  0.00D+00  THRKEX  =  0.00D+00  THRDIS  =  2.00D-01  THRVAR  =  1.00D-10
 THRLOC  =  1.00D-06  THRGAP  =  1.00D-06  THRLOCT = -1.00D+00  THRGAPT = -1.00D+00  THRORB  =  1.00D-06  THRMLTP =  0.00D+00
 THRCPQCI=  1.00D-10  KEXTA   =  0.00D+00  THRCOARS=  0.00D+00  SYMTOL  =  1.00D-06  GRADTOL =  1.00D-06  THROVL  =  1.00D-08
 THRORTH =  1.00D-08  GRID    =  1.00D-06  GRIDMAX =  1.00D-03  DTMAX   =  0.00D+00  THROCCDE=  1.00D-01  THROCCDE=  1.00D-01



 Input parameters for SORTINT:

 COMPRESS =    0.000000
 C_FINAL  =    1.000000
 DEBUG    =   -1.000000
 C_SORT1  =    0.000000
 C_SEWARD =    0.000000
 THRESH   =    0.000000
 IO       =  molpro                                                          
 SPRI     =    0.000000
 SETTING GEOMTYP        =    XYZ
 ZUNIT=BOHR
 

 Variable memory set to  995000000 words,  buffer space   230000 words

 SETTING BASIS          =    USERDEF


 Recomputing integrals since basis changed


 Using spherical harmonics

 Library entry H      S aug-cc-pVTZ          selected for orbital group  3
 Library entry H      P aug-cc-pVTZ          selected for orbital group  3
 Library entry H      D aug-cc-pVTZ          selected for orbital group  3


 PROGRAM * SEWARD (Integral evaluation for generally contracted gaussian basis sets)     Author: Roland Lindh, 1990

 Geometry written to block  1 of record 700


 Point group  Cs  



 ATOMIC COORDINATES

 NR  ATOM    CHARGE       X              Y              Z

   1  N       7.00   -0.004639018    0.000000000    1.130951533
   2  C       6.00    0.009658804    0.000000000   -1.047851221
   3  H       1.00   -0.005019786    0.000000000   -3.080170294

 Bond lengths in Bohr (Angstrom)

 1-2  2.178849667  2-3  2.032372081
     ( 1.152997590)     ( 1.075484989)

 Bond angles

  1-2-3  179.21020062

 NUCLEAR CHARGE:                   14
 NUMBER OF PRIMITIVE AOS:         203
 NUMBER OF SYMMETRY AOS:          173
 NUMBER OF CONTRACTIONS:          171   ( 114A'  +  57A"  )
 NUMBER OF CORE ORBITALS:           2   (   2A'  +   0A"  )
 NUMBER OF VALENCE ORBITALS:        9   (   7A'  +   2A"  )


 NUCLEAR REPULSION ENERGY   23.89070686


 Eigenvalues of metric

         1 0.253E-03 0.527E-03 0.933E-03 0.140E-02 0.319E-02 0.544E-02 0.779E-02 0.102E-01
         2 0.544E-02 0.159E-01 0.228E-01 0.352E-01 0.972E-01 0.113E+00 0.125E+00 0.125E+00


 Contracted 2-electron integrals neglected if value below      1.0D-22

       47996696. INTEGRALS WRITTEN OUT IN   11721 BLOCKS ON RECORD 1290 OF FILE 1


 NUMBER OF SORTED TWO-ELECTRON INTEGRALS:   55360566.     BUFFER LENGTH:  32768
 NUMBER OF SEGMENTS:   4  SEGMENT LENGTH:   15997996      RECORD LENGTH: 524288

 Memory used in sort:      16.56 MW

 SORT1 READ    47996696. AND WROTE    48451911. INTEGRALS IN    141 RECORDS. CPU TIME:     0.76 SEC, REAL TIME:     1.08 SEC
 SORT2 READ    48451911. AND WROTE    55360566. INTEGRALS IN      4 RECORDS. CPU TIME:     0.63 SEC, REAL TIME:     0.88 SEC

 FILE SIZES:   FILE 1:   788.9 MBYTE,  FILE 4:   591.4 MBYTE,   TOTAL:   1380.3 MBYTE

 OPERATOR DM      FOR CENTER  0  COORDINATES:    0.000000    0.000000    0.000000


 **********************************************************************************************************************************
 DATASETS  * FILE   NREC   LENGTH (MB)   RECORD NAMES
              1      19      432.68       500      610      700      900      950      970     1000      129      960     1100   
                                          VAR    BASINP    GEOM    SYMINP    ZMAT    AOBASIS   BASIS     P2S    ABASIS      S 
                                         1400     1410     1200     1210     1080     1600     1650     1300     1700   
                                           T        V       H0       H01     AOSYM     SMH    MOLCAS    ERIS     OPER   

 PROGRAMS   *        TOTAL       INT
 CPU TIMES  *         4.21      4.13
 REAL TIME  *         5.62 SEC
 DISK USED  *         1.38 GB      
 **********************************************************************************************************************************


 PROGRAM * RHF-SCF (CLOSED SHELL)       Authors: W. Meyer, H.-J. Werner


 NUMBER OF ELECTRONS:       7+    7-
 CONVERGENCE THRESHOLDS:    1.00E-10 (Density)    1.00E-13 (Energy)
 MAX. NUMBER OF ITERATIONS:      500
 INTERPOLATION TYPE:            DIIS
 INTERPOLATION STEPS:              2 (START)      1 (STEP)
 LEVEL SHIFTS:                  0.00 (CLOSED)  0.00 (OPEN) 



 Orbital guess generated from atomic densities. Full valence occupancy:    9   2

 Molecular orbital dump at record        2100.2

 Initial occupancy:   6   1

 ITERATION    DDIFF          GRAD             ENERGY        2-EL.EN.            DIPOLE MOMENTS         DIIS   ORB.
    1      0.000D+00      0.000D+00       -92.77141345    111.695239    0.00841    0.00000   -2.03684    0    start
    2      0.000D+00      0.714D-02       -92.78378705    109.961674   -0.00328    0.00000   -0.94798    1    diag
    3      0.258D-01      0.618D-02       -92.80611183    110.898763    0.00162    0.00000   -1.45518    2    diag
    4      0.891D-02      0.438D-03       -92.80636014    110.849831    0.00126    0.00000   -1.44794    3    diag
    5      0.139D-02      0.984D-04       -92.80637484    110.857992    0.00114    0.00000   -1.44666    4    diag
    6      0.396D-03      0.259D-04       -92.80637565    110.853758    0.00113    0.00000   -1.44693    5    diag
    7      0.318D-04      0.919D-05       -92.80637574    110.854756    0.00113    0.00000   -1.44701    6    diag
    8      0.119D-04      0.184D-05       -92.80637575    110.854738    0.00113    0.00000   -1.44699    7    diag
    9      0.621D-05      0.202D-06       -92.80637575    110.854746    0.00112    0.00000   -1.44699    8    diag
   10      0.105D-05      0.229D-07       -92.80637575    110.854747    0.00112    0.00000   -1.44699    9    orth
   11      0.103D-06      0.413D-08       -92.80637575    110.854747    0.00112    0.00000   -1.44699    9    diag
   12      0.136D-07      0.153D-08       -92.80637575    110.854747    0.00112    0.00000   -1.44699    9    diag
   13      0.652D-08      0.690D-09       -92.80637575    110.854747    0.00112    0.00000   -1.44699    9    diag
   14      0.437D-08      0.186D-09       -92.80637575    110.854747    0.00112    0.00000   -1.44699    9    diag
   15      0.116D-08      0.708D-10       -92.80637575    110.854747    0.00112    0.00000   -1.44699    9    diag
   16      0.354D-09      0.173D-10       -92.80637575    110.854747    0.00112    0.00000   -1.44699    9    diag
   17      0.855D-10      0.500D-11       -92.80637575    110.854747    0.00112    0.00000   -1.44699    9    diag
   18      0.149D-10      0.110D-11       -92.80637575    110.854747    0.00112    0.00000   -1.44699    9    diag
   19      0.322D-11      0.237D-12       -92.80637575    110.854747    0.00112    0.00000   -1.44699    9    fixocc
   20      0.150D-11      0.315D-12       -92.80637575    110.854747    0.00112    0.00000   -1.44699    0    orth

 Final occupancy:   6   1

 !RHF STATE 1.1 Energy                -92.806375745320
 Nuclear energy                        23.89070686
 One-electron energy                 -172.12445609
 Two-electron energy                   55.42737348
 Virial quotient                       -1.00255234
 !RHF STATE 1.1 Dipole moment           0.00112467     0.00000000    -1.44698945
 Dipole moment /Debye                   0.00285844     0.00000000    -3.67763945

 Orbital energies:

         1.1          2.1          3.1          4.1          5.1          6.1          7.1          8.1
    -15.590832   -11.399982    -1.253624    -0.832119    -0.577716    -0.490290     0.032608     0.133539

         1.2          2.2          3.2
     -0.490292     0.133610     0.306266

 HOMO      6.1    -0.490290 =     -13.3415eV
 LUMO      7.1     0.032608 =       0.8873eV
 LUMO-HOMO         0.522898 =      14.2288eV


 **********************************************************************************************************************************
 DATASETS  * FILE   NREC   LENGTH (MB)   RECORD NAMES
              1      19      432.68       500      610      700      900      950      970     1000      129      960     1100   
                                          VAR    BASINP    GEOM    SYMINP    ZMAT    AOBASIS   BASIS     P2S    ABASIS      S 
                                         1400     1410     1200     1210     1080     1600     1650     1300     1700   
                                           T        V       H0       H01     AOSYM     SMH    MOLCAS    ERIS     OPER   

              2       4        3.13       700     1000      520     2100   
                                         GEOM     BASIS   MCVARS     RHF  

 PROGRAMS   *        TOTAL        HF       INT
 CPU TIMES  *         9.39      5.18      4.13
 REAL TIME  *        11.80 SEC
 DISK USED  *         1.38 GB      
 **********************************************************************************************************************************


 PROGRAM * CCSD (Closed-shell coupled cluster)     Authors: C. Hampel, H.-J. Werner, 1991, M. Deegan, P.J. Knowles, 1992


 Convergence thresholds:  THRVAR = 1.00D-08  THRDEN = 1.00D-12

 CCSD(T)     terms to be evaluated (factor= 1.000)


 Number of core orbitals:           2 (   2   0 )
 Number of closed-shell orbitals:   5 (   4   1 )
 Number of external orbitals:     164 ( 108  56 )

 Molecular orbitals read from record     2100.2  Type=RHF/CANONICAL (state 1.1)

 Number of N-1 electron functions:               5
 Number of N-2 electron functions:              15
 Number of singly external CSFs:               488
 Number of doubly external CSFs:            174594
 Total number of CSFs:                      175083

 Length of J-op  integral file:               0.00 MB
 Length of K-op  integral file:               1.15 MB
 Length of 3-ext integral record:             0.00 MB

 Memory could be reduced to 17.82 Mwords without degradation in triples

 Integral transformation finished. Total CPU:   0.67 sec, npass=  1  Memory used:   4.44 MW

 Reference energy:                    -92.80637575

 MP2 singlet pair energy:              -0.21680045
 MP2 triplet pair energy:              -0.12411398
 MP2 correlation energy:               -0.34091443
 MP2 total energy:                    -93.14729017

 SCS-MP2 correlation energy:           -0.33738701   (PS=  1.200000  PT=  0.333333)
 SCS-MP2 total energy:                -93.14376276

 ITER.      SQ.NORM     CORR.ENERGY   TOTAL ENERGY   ENERGY CHANGE        DEN1      VAR(S)    VAR(P)  DIIS     TIME  TIME/IT
   1      1.11058689    -0.34415664   -93.15053238    -0.00324221     0.00858498  0.23D-02  0.26D-02  1  1     1.21     0.57
   2      1.11901135    -0.34454906   -93.15092481    -0.00039242    -0.00905039  0.75D-04  0.36D-03  2  2     1.74     0.58
   3      1.12379245    -0.34474526   -93.15112100    -0.00019620    -0.00264642  0.10D-04  0.41D-04  3  3     2.28     0.59
   4      1.12560194    -0.34481485   -93.15119060    -0.00006959    -0.00060571  0.90D-06  0.46D-05  4  4     2.81     0.59
   5      1.12612340    -0.34481372   -93.15118946     0.00000113    -0.00015753  0.14D-06  0.37D-06  5  5     3.32     0.59
   6      1.12621483    -0.34481137   -93.15118711     0.00000235    -0.00002310  0.93D-08  0.30D-07  6  6     3.86     0.59
   7      1.12622216    -0.34481275   -93.15118850    -0.00000138     0.00000022  0.13D-08  0.24D-08  6  1     4.40     0.59
   8      1.12622502    -0.34481306   -93.15118881    -0.00000031    -0.00000107  0.27D-09  0.18D-09  6  2     4.93     0.59
   9      1.12622500    -0.34481313   -93.15118888    -0.00000007     0.00000018  0.24D-10  0.18D-10  6  3     5.46     0.59
  10      1.12622507    -0.34481314   -93.15118889    -0.00000001     0.00000006  0.57D-11  0.24D-11  6  4     5.96     0.59
  11      1.12622511    -0.34481315   -93.15118889    -0.00000000     0.00000000  0.53D-12  0.49D-12  6  5     6.50     0.59
  12      1.12622506    -0.34481315   -93.15118889    -0.00000000     0.00000003  0.40D-13  0.12D-12  6  6     7.04     0.59
  13      1.12622502    -0.34481315   -93.15118889    -0.00000000     0.00000001  0.28D-14  0.15D-13  6  1     7.61     0.59
  14      1.12622500    -0.34481315   -93.15118889    -0.00000000     0.00000001  0.79D-15  0.19D-14  6  2     8.14     0.60
  15      1.12622499    -0.34481315   -93.15118889    -0.00000000     0.00000000  0.14D-15  0.29D-15  6  3     8.66     0.60
  16      1.12622499    -0.34481315   -93.15118889    -0.00000000     0.00000000  0.13D-16  0.14D-16  6  5     9.16     0.60
  17      1.12622499    -0.34481315   -93.15118889    -0.00000000     0.00000000  0.18D-17  0.80D-18  6  4     9.68     0.59
  18      1.12622499    -0.34481315   -93.15118889     0.00000000    -0.00000000  0.41D-18  0.14D-18  6  5    10.16     0.59
  19      1.12622499    -0.34481315   -93.15118889     0.00000000     0.00000000  0.65D-19  0.25D-19  6  6    10.66     0.59
  20      1.12622499    -0.34481315   -93.15118889    -0.00000000     0.00000000  0.75D-20  0.40D-20  6  1    11.14     0.59
  21      1.12622499    -0.34481315   -93.15118889    -0.00000000    -0.00000000  0.92D-21  0.67D-21  6  5    11.66     0.59

 Norm of t1 vector:      0.06186723      S-energy:    -0.00000000      T1 diagnostic:  0.01383393
                                                                       D1 diagnostic:  0.02679527

 Doubles amplitudes (print threshold =  0.500E-01):

         I         J         SYM. A    SYM. B    A         B      T(IJ, AB)

         4         4         1         1         2         2     -0.05822159
         5         5         2         2         1         1     -0.05834204


 Total CPU time for triples:      4.59 sec


 RESULTS
 =======

  Reference energy                    -92.806375745320
  CCSD singlet pair energy             -0.239041424412
  CCSD triplet pair energy             -0.105771724119
  CCSD correlation energy              -0.344813148532

  Triples (T) contribution             -0.017040107769
  Total correlation energy             -0.361853256301

  CCSD total energy                   -93.151188893852
  CCSD[T] energy                      -93.168926519542
  CCSD-T energy                       -93.167884360502
 !CCSD(T) total energy                -93.168229001621

 Timing summary (sec):

 STEP                 CPU(USER)    SYS     CPU(TOT)    WALL
 Transformation          0.67      0.12      0.79      0.79
 CCSD iterations        10.99      1.41     12.40     12.42
 Triples                 4.59      0.12      4.71      4.71

 Program statistics:

 Available memory in ccsd:               994999800
 Min. memory needed in ccsd:                705325
 Max. memory used in ccsd:                  840968
 Max. memory used in cckext:               1345378 (21 integral passes)



 **********************************************************************************************************************************
 DATASETS  * FILE   NREC   LENGTH (MB)   RECORD NAMES
              1      20      481.31       500      610      700      900      950      970     1000      129      960     1100   
                                          VAR    BASINP    GEOM    SYMINP    ZMAT    AOBASIS   BASIS     P2S    ABASIS      S 
                                         1400     1410     1200     1210     1080     1600     1650     1300     1700     1380   
                                           T        V       H0       H01     AOSYM     SMH    MOLCAS    ERIS     OPER     JKOP   

              2       4        3.13       700     1000      520     2100   
                                         GEOM     BASIS   MCVARS     RHF  

 PROGRAMS   *        TOTAL   CCSD(T)        HF       INT
 CPU TIMES  *        25.67     16.27      5.18      4.13
 REAL TIME  *        29.77 SEC
 DISK USED  *         1.38 GB      
 **********************************************************************************************************************************

 CCSD(T)/USERDEF energy=    -93.168229001621

        CCSD(T)         HF-SCF  
    -93.16822900    -92.80637575
 **********************************************************************************************************************************
 Molpro calculation terminated
 Variable memory released
