
 Primary working directories    : /tmp/r2666/232689.maple
 Secondary working directories  : /tmp/r2666/232689.maple
 Wavefunction directory         : /ddn/home4/r2666/wfu/
 Main file repository           : /tmp/r2666/232689.maple/

 SHA1      : d5ffa45e93fdbca01ffc919aa182cfdae0147319
 NAME      : 2015.1.35
 ARCHNAME  : linux/x86_64
 FC        : /opt/intel/composer_xe_2015.1.133/bin/intel64/ifort
 BLASLIB   : -Wl,-_start-group /opt/intel/mkl/lib/intel64/libmkl_intel_ilp64.a /opt/intel/mkl/lib/intel64/libmkl_intel_thread.a /opt/intel/mkl/lib/intel64/libmkl_core.a -Wl,-_end-group
 id        : olemiss

 Nodes     nprocs
 cn082        1

 Using customized tuning parameters: mindgm=1; mindgv=20; mindgc=4; mindgr=1; noblas=0; minvec=7
 default implementation of scratch files=df  

 ***,hcn CCSD(T)/TZ-F12 QFF
 memory, 995, m;
 gthresh,energy=1.d-12,zero=1.d-22,oneint=1.d-22,twoint=1.d-22;
 gthresh,optgrad=1.d-8,optstep=1.d-8;
 nocompress;
 geomtyp=xyz
 bohr
 geometry={
 3
         23        23
 N        0.0000000000        0.0000000000        1.1184023044
 C        0.0000000000        0.0000000000       -1.0604473626
 H        0.0000000000        0.0000000000       -3.0550249237
 }
 
 basis={
 default=aug-cc-pvtz
 s,C,8236.0,1235.0,280.8, 79.27,25.59, 8.997,3.319
 s,C,0.9059,0.3643,0.1285000
 p,C,56.0,18.71,4.133,0.2827,0.3827,0.1209
 d,C,30.0,10.0,3.3,1.097,0.318
 f,C,7.0,2.3,0.7610
 s,N,11420.0,1712.0,389.3,110.0,35.57,12.54,4.644
 s,N,1.293,0.5118,0.1787
 p,N,79.89,26.63,5.948,1.742,0.555,0.1725
 d,N,45.0,15.0,5.0,1.654,0.469
 f,N,9.9,3.3,1.093
 s,O,15330.0,2299.0,522.4,147.3,47.55,16.76,6.207
 s,O,1.752,0.6882,0.2384
 p,O,103.5,34.46,7.749,2.28,0.7156,0.214
 d,O,63.0,21.0,7.0,2.314,0.645
 f,O,12.9,4.3,1.428
 s,mg,164900.0,24710.0,5628.0,1596.0,521.0;
 s,mg,188.0,73.01,29.90,12.54,4.306,1.826;
 s,mg,0.7417,0.0761,0.145,0.033,0.0129;
 p,mg,950.70,316.90,74.86,23.72,8.669,3.363;
 p,mg,1.310,0.4911,0.2364,0.08733,0.03237,0.00745;
 d,mg,1.601,0.686,0.126,0.294,0.0468;
 f,mg,1.372,0.588,0.094,0.252;
 }
   {hf,maxit=500;accu,20;}
 {ccsd(t),nocheck,maxit=250;orbital,IGNORE_ERROR;}

 Variables initialized (889), CPU time= 0.00 sec
 Commands  initialized (702), CPU time= 0.01 sec, 572 directives.
 Default parameters read. Elapsed time= 0.05 sec

 Checking input...
 Passed
1


                                         ***  PROGRAM SYSTEM MOLPRO  ***
                                       Copyright, TTI GmbH Stuttgart, 2015
                                    Version 2015.1 linked Jul  9 2018 13:16:40


 **********************************************************************************************************************************
 LABEL *   hcn CCSD(T)/TZ-F12 QFF                                                        
  64 bit serial version                                                                  DATE: 06-Feb-20          TIME: 09:54:47  
 **********************************************************************************************************************************

 SHA1:             d5ffa45e93fdbca01ffc919aa182cfdae0147319
 **********************************************************************************************************************************

 THRESHOLDS:

 ZERO    =  1.00D-22  ONEINT  =  1.00D-22  TWOINT  =  1.00D-22  PREFAC  =  1.00D-14  LOCALI  =  1.00D-09  EORDER  =  1.00D-04
 ENERGY  =  1.00D-12  ETEST   =  0.00D+00  EDENS   =  0.00D+00  THRDEDEF=  1.00D-06  GRADIENT=  1.00D-02  STEP    =  1.00D-03
 ORBITAL =  1.00D-05  CIVEC   =  1.00D-05  COEFF   =  1.00D-04  PRINTCI =  5.00D-02  PUNCHCI =  9.90D+01  OPTGRAD =  3.00D-04
 OPTENERG=  1.00D-06  OPTSTEP =  3.00D-04  THRGRAD =  1.00D-10  COMPRESS=  1.00D-11  VARMIN  =  1.00D-07  VARMAX  =  1.00D-03
 THRDOUB =  0.00D+00  THRDIV  =  1.00D-05  THRRED  =  1.00D-07  THRPSP  =  1.00D+00  THRDC   =  1.00D-10  THRCS   =  1.00D-10
 THRNRM  =  1.00D-08  THREQ   =  0.00D+00  THRDE   =  1.00D+00  THRREF  =  1.00D-05  SPARFAC =  1.00D+00  THRDLP  =  1.00D-07
 THRDIA  =  1.00D-10  THRDLS  =  1.00D-07  THRGPS  =  0.00D+00  THRKEX  =  0.00D+00  THRDIS  =  2.00D-01  THRVAR  =  1.00D-10
 THRLOC  =  1.00D-06  THRGAP  =  1.00D-06  THRLOCT = -1.00D+00  THRGAPT = -1.00D+00  THRORB  =  1.00D-06  THRMLTP =  0.00D+00
 THRCPQCI=  1.00D-10  KEXTA   =  0.00D+00  THRCOARS=  0.00D+00  SYMTOL  =  1.00D-06  GRADTOL =  1.00D-06  THROVL  =  1.00D-08
 THRORTH =  1.00D-08  GRID    =  1.00D-06  GRIDMAX =  1.00D-03  DTMAX   =  0.00D+00  THROCCDE=  1.00D-01  THROCCDE=  1.00D-01



 THRESHOLDS:

 ZERO    =  1.00D-22  ONEINT  =  1.00D-22  TWOINT  =  1.00D-22  PREFAC  =  1.00D-14  LOCALI  =  1.00D-09  EORDER  =  1.00D-04
 ENERGY  =  1.00D-12  ETEST   =  0.00D+00  EDENS   =  0.00D+00  THRDEDEF=  1.00D-06  GRADIENT=  1.00D-02  STEP    =  1.00D-03
 ORBITAL =  1.00D-05  CIVEC   =  1.00D-05  COEFF   =  1.00D-04  PRINTCI =  5.00D-02  PUNCHCI =  9.90D+01  OPTGRAD =  1.00D-08
 OPTENERG=  1.00D-06  OPTSTEP =  1.00D-08  THRGRAD =  1.00D-10  COMPRESS=  1.00D-11  VARMIN  =  1.00D-07  VARMAX  =  1.00D-03
 THRDOUB =  0.00D+00  THRDIV  =  1.00D-05  THRRED  =  1.00D-07  THRPSP  =  1.00D+00  THRDC   =  1.00D-10  THRCS   =  1.00D-10
 THRNRM  =  1.00D-08  THREQ   =  0.00D+00  THRDE   =  1.00D+00  THRREF  =  1.00D-05  SPARFAC =  1.00D+00  THRDLP  =  1.00D-07
 THRDIA  =  1.00D-10  THRDLS  =  1.00D-07  THRGPS  =  0.00D+00  THRKEX  =  0.00D+00  THRDIS  =  2.00D-01  THRVAR  =  1.00D-10
 THRLOC  =  1.00D-06  THRGAP  =  1.00D-06  THRLOCT = -1.00D+00  THRGAPT = -1.00D+00  THRORB  =  1.00D-06  THRMLTP =  0.00D+00
 THRCPQCI=  1.00D-10  KEXTA   =  0.00D+00  THRCOARS=  0.00D+00  SYMTOL  =  1.00D-06  GRADTOL =  1.00D-06  THROVL  =  1.00D-08
 THRORTH =  1.00D-08  GRID    =  1.00D-06  GRIDMAX =  1.00D-03  DTMAX   =  0.00D+00  THROCCDE=  1.00D-01  THROCCDE=  1.00D-01



 Input parameters for SORTINT:

 COMPRESS =    0.000000
 C_FINAL  =    1.000000
 DEBUG    =   -1.000000
 C_SORT1  =    0.000000
 C_SEWARD =    0.000000
 THRESH   =    0.000000
 IO       =  molpro                                                          
 SPRI     =    0.000000
 SETTING GEOMTYP        =    XYZ
 ZUNIT=BOHR
 

 Variable memory set to  995000000 words,  buffer space   230000 words

 SETTING BASIS          =    USERDEF


 Recomputing integrals since basis changed


 Using spherical harmonics

 Library entry H      S aug-cc-pVTZ          selected for orbital group  3
 Library entry H      P aug-cc-pVTZ          selected for orbital group  3
 Library entry H      D aug-cc-pVTZ          selected for orbital group  3


 PROGRAM * SEWARD (Integral evaluation for generally contracted gaussian basis sets)     Author: Roland Lindh, 1990

 Geometry written to block  1 of record 700


 Point group  C2v 



 ATOMIC COORDINATES

 NR  ATOM    CHARGE       X              Y              Z

   1  N       7.00    0.000000000    0.000000000    1.118402304
   2  C       6.00    0.000000000    0.000000000   -1.060447363
   3  H       1.00    0.000000000    0.000000000   -3.055024924

 Bond lengths in Bohr (Angstrom)

 1-2  2.178849667  2-3  1.994577561
     ( 1.152997590)     ( 1.055484991)

 Bond angles

  1-2-3  180.00000000

 NUCLEAR CHARGE:                   14
 NUMBER OF PRIMITIVE AOS:         203
 NUMBER OF SYMMETRY AOS:          173
 NUMBER OF CONTRACTIONS:          171   (  75A1  +  39B1  +  39B2  +  18A2  )
 NUMBER OF CORE ORBITALS:           2   (   2A1  +   0B1  +   0B2  +   0A2  )
 NUMBER OF VALENCE ORBITALS:        9   (   5A1  +   2B1  +   2B2  +   0A2  )


 NUCLEAR REPULSION ENERGY   23.96166097

 EXTRA SYMMETRY OF AOS IN SYMMETRY 1:   1 1 1 1 1 1 1 1 1 1   1 1 1 1 1 1 1 2 1 2   1 2 1 2 1 2 1 2 1 2   1 2 1 1 1 1 1 1 1 1
                                        1 1 1 1 1 1 1 1 1 2   1 2 1 2 1 2 1 2 1 2   1 2 1 2 1 1 1 1 1 1   1 1 2 1 2
 EXTRA SYMMETRY OF AOS IN SYMMETRY 2:   1 1 1 1 1 1 1 1 1 1   1 1 2 1 2 1 2 1 1 1   1 1 1 1 1 1 1 1 1 2   1 2 1 2 1 1 1 1 1
 EXTRA SYMMETRY OF AOS IN SYMMETRY 3:   1 1 1 1 1 1 1 1 1 1   1 1 2 1 2 1 2 1 1 1   1 1 1 1 1 1 1 1 1 2   1 2 1 2 1 1 1 1 1

 Eigenvalues of metric

         1 0.234E-03 0.518E-03 0.887E-03 0.135E-02 0.316E-02 0.734E-02 0.980E-02 0.131E-01
         2 0.539E-02 0.155E-01 0.214E-01 0.339E-01 0.957E-01 0.112E+00 0.125E+00 0.188E+00
         3 0.539E-02 0.155E-01 0.214E-01 0.339E-01 0.957E-01 0.112E+00 0.125E+00 0.188E+00
         4 0.124E+00 0.140E+00 0.194E+00 0.255E+00 0.314E+00 0.379E+00 0.484E+00 0.596E+00


 Contracted 2-electron integrals neglected if value below      1.0D-22

       21748412. INTEGRALS WRITTEN OUT IN    5311 BLOCKS ON RECORD 1290 OF FILE 1


 NUMBER OF SORTED TWO-ELECTRON INTEGRALS:   28272141.     BUFFER LENGTH:  32768
 NUMBER OF SEGMENTS:   2  SEGMENT LENGTH:   15998211      RECORD LENGTH: 524288

 Memory used in sort:      16.56 MW

 SORT1 READ    21748412. AND WROTE    22146909. INTEGRALS IN     65 RECORDS. CPU TIME:     0.48 SEC, REAL TIME:     0.63 SEC
 SORT2 READ    22146909. AND WROTE    28272141. INTEGRALS IN      2 RECORDS. CPU TIME:     0.39 SEC, REAL TIME:     0.52 SEC

 FILE SIZES:   FILE 1:   368.7 MBYTE,  FILE 4:   272.7 MBYTE,   TOTAL:    641.3 MBYTE

 OPERATOR DM      FOR CENTER  0  COORDINATES:    0.000000    0.000000    0.000000


 **********************************************************************************************************************************
 DATASETS  * FILE   NREC   LENGTH (MB)   RECORD NAMES
              1      19      213.51       500      610      700      900      950      970     1000      129      960     1100   
                                          VAR    BASINP    GEOM    SYMINP    ZMAT    AOBASIS   BASIS     P2S    ABASIS      S 
                                         1400     1410     1200     1210     1080     1600     1650     1300     1700   
                                           T        V       H0       H01     AOSYM     SMH    MOLCAS    ERIS     OPER   

 PROGRAMS   *        TOTAL       INT
 CPU TIMES  *         3.21      3.11
 REAL TIME  *         4.19 SEC
 DISK USED  *       641.68 MB      
 **********************************************************************************************************************************


 PROGRAM * RHF-SCF (CLOSED SHELL)       Authors: W. Meyer, H.-J. Werner


 NUMBER OF ELECTRONS:       7+    7-
 CONVERGENCE THRESHOLDS:    1.00E-10 (Density)    1.00E-13 (Energy)
 MAX. NUMBER OF ITERATIONS:      500
 INTERPOLATION TYPE:            DIIS
 INTERPOLATION STEPS:              2 (START)      1 (STEP)
 LEVEL SHIFTS:                  0.00 (CLOSED)  0.00 (OPEN) 



 Orbital guess generated from atomic densities. Full valence occupancy:    7   2   2   0

 Molecular orbital dump at record        2100.2

 Initial occupancy:   5   1   1   0

 ITERATION    DDIFF          GRAD             ENERGY        2-EL.EN.            DIPOLE MOMENTS         DIIS   ORB.
    1      0.000D+00      0.000D+00       -92.77161451    111.780122    0.00000    0.00000   -2.01253    0    start
    2      0.000D+00      0.907D-02       -92.78390073    110.081507    0.00000    0.00000   -0.94388    1    diag
    3      0.339D-01      0.782D-02       -92.80554255    111.004075    0.00000    0.00000   -1.44406    2    diag
    4      0.117D-01      0.569D-03       -92.80579359    110.953784    0.00000    0.00000   -1.43693    3    diag
    5      0.188D-02      0.126D-03       -92.80580800    110.961864    0.00000    0.00000   -1.43564    4    diag
    6      0.515D-03      0.327D-04       -92.80580878    110.957686    0.00000    0.00000   -1.43590    5    diag
    7      0.415D-04      0.116D-04       -92.80580886    110.958650    0.00000    0.00000   -1.43597    6    diag
    8      0.156D-04      0.232D-05       -92.80580886    110.958633    0.00000    0.00000   -1.43595    7    diag
    9      0.803D-05      0.256D-06       -92.80580886    110.958641    0.00000    0.00000   -1.43594    8    diag
   10      0.135D-05      0.287D-07       -92.80580886    110.958642    0.00000    0.00000   -1.43594    9    orth
   11      0.134D-06      0.374D-08       -92.80580886    110.958642    0.00000    0.00000   -1.43595    9    diag
   12      0.123D-07      0.388D-09       -92.80580886    110.958642    0.00000    0.00000   -1.43595    9    diag
   13      0.118D-08      0.499D-10       -92.80580886    110.958642    0.00000    0.00000   -1.43595    9    diag
   14      0.170D-09      0.699D-11       -92.80580886    110.958642    0.00000    0.00000   -1.43595    9    diag
   15      0.265D-10      0.145D-11       -92.80580886    110.958642    0.00000    0.00000   -1.43595    0    orth

 Final occupancy:   5   1   1   0

 !RHF STATE 1.1 Energy                -92.805808864930
 Nuclear energy                        23.96166097
 One-electron energy                 -172.24679085
 Two-electron energy                   55.47932102
 Virial quotient                       -1.00221853
 !RHF STATE 1.1 Dipole moment           0.00000000     0.00000000    -1.43594503
 Dipole moment /Debye                   0.00000000     0.00000000    -3.64956917

 Orbital energies:

         1.1          2.1          3.1          4.1          5.1          6.1          7.1
    -15.591288   -11.399038    -1.254036    -0.839900    -0.578392     0.032706     0.153352

         1.2          2.2          3.2
     -0.490710     0.133594     0.306432

         1.3          2.3          3.3
     -0.490710     0.133594     0.306432

         1.4          2.4
      0.682487     0.964637

 HOMO      1.2    -0.490710 =     -13.3529eV
 LUMO      6.1     0.032706 =       0.8900eV
 LUMO-HOMO         0.523416 =      14.2429eV


 **********************************************************************************************************************************
 DATASETS  * FILE   NREC   LENGTH (MB)   RECORD NAMES
              1      19      213.51       500      610      700      900      950      970     1000      129      960     1100   
                                          VAR    BASINP    GEOM    SYMINP    ZMAT    AOBASIS   BASIS     P2S    ABASIS      S 
                                         1400     1410     1200     1210     1080     1600     1650     1300     1700   
                                           T        V       H0       H01     AOSYM     SMH    MOLCAS    ERIS     OPER   

              2       4        2.98       700     1000      520     2100   
                                         GEOM     BASIS   MCVARS     RHF  

 PROGRAMS   *        TOTAL        HF       INT
 CPU TIMES  *         4.78      1.57      3.11
 REAL TIME  *         6.19 SEC
 DISK USED  *       641.68 MB      
 **********************************************************************************************************************************


 PROGRAM * CCSD (Closed-shell coupled cluster)     Authors: C. Hampel, H.-J. Werner, 1991, M. Deegan, P.J. Knowles, 1992


 Convergence thresholds:  THRVAR = 1.00D-08  THRDEN = 1.00D-12

 CCSD(T)     terms to be evaluated (factor= 1.000)


 Number of core orbitals:           2 (   2   0   0   0 )
 Number of closed-shell orbitals:   5 (   3   1   1   0 )
 Number of external orbitals:     164 (  70  38  38  18 )

 Molecular orbitals read from record     2100.2  Type=RHF/CANONICAL (state 1.1)

 Number of N-1 electron functions:               5
 Number of N-2 electron functions:              15
 Number of singly external CSFs:               286
 Number of doubly external CSFs:             90562
 Total number of CSFs:                       90849

 Length of J-op  integral file:               0.00 MB
 Length of K-op  integral file:               0.65 MB
 Length of 3-ext integral record:             0.00 MB

 Memory could be reduced to 9.35 Mwords without degradation in triples

 Integral transformation finished. Total CPU:   0.20 sec, npass=  1  Memory used:   1.25 MW

 Reference energy:                    -92.80580886

 MP2 singlet pair energy:              -0.21665357
 MP2 triplet pair energy:              -0.12404876
 MP2 correlation energy:               -0.34070233
 MP2 total energy:                    -93.14651120

 SCS-MP2 correlation energy:           -0.33717018   (PS=  1.200000  PT=  0.333333)
 SCS-MP2 total energy:                -93.14297905

 ITER.      SQ.NORM     CORR.ENERGY   TOTAL ENERGY   ENERGY CHANGE        DEN1      VAR(S)    VAR(P)  DIIS     TIME  TIME/IT
   1      1.11022495    -0.34393319   -93.14974205    -0.00323086     0.00854829  0.23D-02  0.26D-02  1  1     0.45     0.26
   2      1.11858232    -0.34431012   -93.15011899    -0.00037693    -0.00901433  0.75D-04  0.36D-03  2  2     0.69     0.27
   3      1.12329803    -0.34450056   -93.15030943    -0.00019044    -0.00261874  0.99D-05  0.40D-04  3  3     0.92     0.27
   4      1.12508970    -0.34456939   -93.15037826    -0.00006883    -0.00060073  0.88D-06  0.45D-05  4  4     1.17     0.27
   5      1.12560688    -0.34456784   -93.15037671     0.00000155    -0.00015736  0.13D-06  0.36D-06  5  5     1.40     0.27
   6      1.12569388    -0.34456568   -93.15037454     0.00000217    -0.00002181  0.81D-08  0.29D-07  6  6     1.64     0.27
   7      1.12570087    -0.34456708   -93.15037595    -0.00000141     0.00000016  0.11D-08  0.23D-08  6  1     1.85     0.27
   8      1.12570339    -0.34456742   -93.15037629    -0.00000034    -0.00000095  0.20D-09  0.17D-09  6  2     2.10     0.27
   9      1.12570330    -0.34456749   -93.15037636    -0.00000007     0.00000019  0.15D-10  0.15D-10  6  3     2.35     0.27
  10      1.12570335    -0.34456751   -93.15037637    -0.00000001     0.00000005  0.37D-11  0.17D-11  6  4     2.60     0.27
  11      1.12570338    -0.34456751   -93.15037637    -0.00000000     0.00000000  0.41D-12  0.32D-12  6  5     2.84     0.27
  12      1.12570334    -0.34456751   -93.15037638    -0.00000000     0.00000003  0.38D-13  0.84D-13  6  6     3.07     0.27
  13      1.12570330    -0.34456751   -93.15037638    -0.00000000     0.00000001  0.19D-14  0.10D-13  6  1     3.31     0.27
  14      1.12570328    -0.34456751   -93.15037638    -0.00000000     0.00000001  0.38D-15  0.13D-14  6  2     3.55     0.27
  15      1.12570328    -0.34456751   -93.15037638    -0.00000000     0.00000000  0.67D-16  0.20D-15  6  3     3.79     0.27
  16      1.12570328    -0.34456751   -93.15037638    -0.00000000     0.00000000  0.60D-17  0.87D-17  6  5     4.02     0.27
  17      1.12570327    -0.34456751   -93.15037638    -0.00000000     0.00000000  0.52D-18  0.46D-18  6  4     4.24     0.27
  18      1.12570327    -0.34456751   -93.15037638     0.00000000    -0.00000000  0.86D-19  0.71D-19  6  6     4.47     0.28

 Norm of t1 vector:      0.06158137      S-energy:     0.00000000      T1 diagnostic:  0.01377001
                                                                       D1 diagnostic:  0.02681020

 Doubles amplitudes (print threshold =  0.500E-01):

         I         J         SYM. A    SYM. B    A         B      T(IJ, AB)

         4         4         2         2         1         1     -0.05862288
         5         5         3         3         1         1     -0.05862288


 Total CPU time for triples:      1.36 sec


 RESULTS
 =======

  Reference energy                    -92.805808864930
  CCSD singlet pair energy             -0.238805381827
  CCSD triplet pair energy             -0.105762130312
  CCSD correlation energy              -0.344567512129

  Triples (T) contribution             -0.016992845772
  Total correlation energy             -0.361560357901

  CCSD total energy                   -93.150376377059
  CCSD[T] energy                      -93.168063273986
  CCSD-T energy                       -93.167025545066
 !CCSD(T) total energy                -93.167369222831

 Timing summary (sec):

 STEP                 CPU(USER)    SYS     CPU(TOT)    WALL
 Transformation          0.21      0.09      0.30      0.30
 CCSD iterations         4.28      0.69      4.97      4.96
 Triples                 1.36      0.06      1.42      1.43

 Program statistics:

 Available memory in ccsd:               994999800
 Min. memory needed in ccsd:                377822
 Max. memory used in ccsd:                  449387
 Max. memory used in cckext:                547289 (18 integral passes)



 **********************************************************************************************************************************
 DATASETS  * FILE   NREC   LENGTH (MB)   RECORD NAMES
              1      20      238.69       500      610      700      900      950      970     1000      129      960     1100   
                                          VAR    BASINP    GEOM    SYMINP    ZMAT    AOBASIS   BASIS     P2S    ABASIS      S 
                                         1400     1410     1200     1210     1080     1600     1650     1300     1700     1380   
                                           T        V       H0       H01     AOSYM     SMH    MOLCAS    ERIS     OPER     JKOP   

              2       4        2.98       700     1000      520     2100   
                                         GEOM     BASIS   MCVARS     RHF  

 PROGRAMS   *        TOTAL   CCSD(T)        HF       INT
 CPU TIMES  *        10.65      5.87      1.57      3.11
 REAL TIME  *        12.93 SEC
 DISK USED  *       641.68 MB      
 **********************************************************************************************************************************

 CCSD(T)/USERDEF energy=    -93.167369222831

        CCSD(T)         HF-SCF  
    -93.16736922    -92.80580886
 **********************************************************************************************************************************
 Molpro calculation terminated
 Variable memory released
