
 Primary working directories    : /tmp/r2666/214588.maple
 Secondary working directories  : /tmp/r2666/214588.maple
 Wavefunction directory         : /ddn/home4/r2666/wfu/
 Main file repository           : /tmp/r2666/214588.maple/

 SHA1      : d5ffa45e93fdbca01ffc919aa182cfdae0147319
 NAME      : 2015.1.35
 ARCHNAME  : linux/x86_64
 FC        : /opt/intel/composer_xe_2015.1.133/bin/intel64/ifort
 BLASLIB   : -Wl,-_start-group /opt/intel/mkl/lib/intel64/libmkl_intel_ilp64.a /opt/intel/mkl/lib/intel64/libmkl_intel_thread.a /opt/intel/mkl/lib/intel64/libmkl_core.a -Wl,-_end-group
 id        : olemiss

 Nodes     nprocs
 cn054        1

 Using customized tuning parameters: mindgm=1; mindgv=20; mindgc=4; mindgr=1; noblas=0; minvec=7
 default implementation of scratch files=df  

 ***,AlONC, CCSD(T)/MT QFF
 memory, 995, m;
 gthresh,energy=1.d-12,zero=1.d-22,oneint=1.d-22,twoint=1.d-22;
 gthresh,optgrad=1.d-8,optstep=1.d-8;
 nocompress;
 geometry={
 N
 O 1 no
 H 1 nh 2 hno
 }
 
  no=1.2 ANG
  nh=0.8 ANG
  hno=105.0 DEG
 
 basis={
 default=aug-cc-pvtz
 s,C,8236.0,1235.0,280.8, 79.27,25.59, 8.997,3.319
 s,C,0.9059,0.3643,0.1285000
 p,C,56.0,18.71,4.133,0.2827,0.3827,0.1209
 d,C,30.0,10.0,3.3,1.097,0.318
 f,C,7.0,2.3,0.7610
 s,N,11420.0,1712.0,389.3,110.0,35.57,12.54,4.644
 s,N,1.293,0.5118,0.1787
 p,N,79.89,26.63,5.948,1.742,0.555,0.1725
 d,N,45.0,15.0,5.0,1.654,0.469
 f,N,9.9,3.3,1.093
 s,O,15330.0,2299.0,522.4,147.3,47.55,16.76,6.207
 s,O,1.752,0.6882,0.2384
 p,O,103.5,34.46,7.749,2.28,0.7156,0.214
 d,O,63.0,21.0,7.0,2.314,0.645
 f,O,12.9,4.3,1.428
 }
   {hf,maxit=500;wf,charge=0,spin=0;accu,20;}
   {ccsd(t),maxit=250;wf,charge=0,spin=0;orbital,IGNORE_ERROR;}
  {optg,grms=1.d-8,srms=1.d-8}
 

 Variables initialized (889), CPU time= 0.00 sec
 Commands  initialized (702), CPU time= 0.01 sec, 572 directives.
 Default parameters read. Elapsed time= 0.05 sec

 Checking input...
 Passed
1


                                         ***  PROGRAM SYSTEM MOLPRO  ***
                                       Copyright, TTI GmbH Stuttgart, 2015
                                    Version 2015.1 linked Jul  9 2018 13:16:40


 **********************************************************************************************************************************
 LABEL *   AlONC, CCSD(T)/MT QFF                                                         
  (4 PROC) 64 bit serial version                                                         DATE: 23-Jan-20          TIME: 20:47:43  
 **********************************************************************************************************************************

 SHA1:             d5ffa45e93fdbca01ffc919aa182cfdae0147319
 **********************************************************************************************************************************

 THRESHOLDS:

 ZERO    =  1.00D-22  ONEINT  =  1.00D-22  TWOINT  =  1.00D-22  PREFAC  =  1.00D-14  LOCALI  =  1.00D-09  EORDER  =  1.00D-04
 ENERGY  =  1.00D-12  ETEST   =  0.00D+00  EDENS   =  0.00D+00  THRDEDEF=  1.00D-06  GRADIENT=  1.00D-02  STEP    =  1.00D-03
 ORBITAL =  1.00D-05  CIVEC   =  1.00D-05  COEFF   =  1.00D-04  PRINTCI =  5.00D-02  PUNCHCI =  9.90D+01  OPTGRAD =  3.00D-04
 OPTENERG=  1.00D-06  OPTSTEP =  3.00D-04  THRGRAD =  1.00D-10  COMPRESS=  1.00D-11  VARMIN  =  1.00D-07  VARMAX  =  1.00D-03
 THRDOUB =  0.00D+00  THRDIV  =  1.00D-05  THRRED  =  1.00D-07  THRPSP  =  1.00D+00  THRDC   =  1.00D-10  THRCS   =  1.00D-10
 THRNRM  =  1.00D-08  THREQ   =  0.00D+00  THRDE   =  1.00D+00  THRREF  =  1.00D-05  SPARFAC =  1.00D+00  THRDLP  =  1.00D-07
 THRDIA  =  1.00D-10  THRDLS  =  1.00D-07  THRGPS  =  0.00D+00  THRKEX  =  0.00D+00  THRDIS  =  2.00D-01  THRVAR  =  1.00D-10
 THRLOC  =  1.00D-06  THRGAP  =  1.00D-06  THRLOCT = -1.00D+00  THRGAPT = -1.00D+00  THRORB  =  1.00D-06  THRMLTP =  0.00D+00
 THRCPQCI=  1.00D-10  KEXTA   =  0.00D+00  THRCOARS=  0.00D+00  SYMTOL  =  1.00D-06  GRADTOL =  1.00D-06  THROVL  =  1.00D-08
 THRORTH =  1.00D-08  GRID    =  1.00D-06  GRIDMAX =  1.00D-03  DTMAX   =  0.00D+00  THROCCDE=  1.00D-01  THROCCDE=  1.00D-01



 THRESHOLDS:

 ZERO    =  1.00D-22  ONEINT  =  1.00D-22  TWOINT  =  1.00D-22  PREFAC  =  1.00D-14  LOCALI  =  1.00D-09  EORDER  =  1.00D-04
 ENERGY  =  1.00D-12  ETEST   =  0.00D+00  EDENS   =  0.00D+00  THRDEDEF=  1.00D-06  GRADIENT=  1.00D-02  STEP    =  1.00D-03
 ORBITAL =  1.00D-05  CIVEC   =  1.00D-05  COEFF   =  1.00D-04  PRINTCI =  5.00D-02  PUNCHCI =  9.90D+01  OPTGRAD =  1.00D-08
 OPTENERG=  1.00D-06  OPTSTEP =  1.00D-08  THRGRAD =  1.00D-10  COMPRESS=  1.00D-11  VARMIN  =  1.00D-07  VARMAX  =  1.00D-03
 THRDOUB =  0.00D+00  THRDIV  =  1.00D-05  THRRED  =  1.00D-07  THRPSP  =  1.00D+00  THRDC   =  1.00D-10  THRCS   =  1.00D-10
 THRNRM  =  1.00D-08  THREQ   =  0.00D+00  THRDE   =  1.00D+00  THRREF  =  1.00D-05  SPARFAC =  1.00D+00  THRDLP  =  1.00D-07
 THRDIA  =  1.00D-10  THRDLS  =  1.00D-07  THRGPS  =  0.00D+00  THRKEX  =  0.00D+00  THRDIS  =  2.00D-01  THRVAR  =  1.00D-10
 THRLOC  =  1.00D-06  THRGAP  =  1.00D-06  THRLOCT = -1.00D+00  THRGAPT = -1.00D+00  THRORB  =  1.00D-06  THRMLTP =  0.00D+00
 THRCPQCI=  1.00D-10  KEXTA   =  0.00D+00  THRCOARS=  0.00D+00  SYMTOL  =  1.00D-06  GRADTOL =  1.00D-06  THROVL  =  1.00D-08
 THRORTH =  1.00D-08  GRID    =  1.00D-06  GRIDMAX =  1.00D-03  DTMAX   =  0.00D+00  THROCCDE=  1.00D-01  THROCCDE=  1.00D-01



 Input parameters for SORTINT:

 COMPRESS =    0.000000
 C_FINAL  =    1.000000
 DEBUG    =   -1.000000
 C_SORT1  =    0.000000
 C_SEWARD =    0.000000
 THRESH   =    0.000000
 IO       =  molpro                                                          
 SPRI     =    0.000000
 SETTING NO             =         1.20000000  ANG                             
 SETTING NH             =         0.80000000  ANG                             
 SETTING HNO            =       105.00000000  DEG                             

 Variable memory set to  995000000 words,  buffer space   230000 words

 SETTING BASIS          =    USERDEF


 Recomputing integrals since basis changed


 Using spherical harmonics

 Library entry H      S aug-cc-pVTZ          selected for orbital group  3
 Library entry H      P aug-cc-pVTZ          selected for orbital group  3
 Library entry H      D aug-cc-pVTZ          selected for orbital group  3


 PROGRAM * SEWARD (Integral evaluation for generally contracted gaussian basis sets)     Author: Roland Lindh, 1990

 Geometry written to block  1 of record 700

 Orientation using atomic masses  
 Molecule type: Asymmetric top
 Symmetry elements: X
 Rotational constants:      41.9878831     43.9791483    927.3457377 GHz  (calculated with average atomic masses)

 Point group  Cs  



 ATOMIC COORDINATES

 NR  ATOM    CHARGE       X              Y              Z

   1  N       7.00    0.000000000   -0.114954642   -1.152374359
   2  O       8.00    0.000000000    0.017480950    1.111426463
   3  H       1.00    0.000000000    1.319969909   -1.628266177

 Bond lengths in Bohr (Angstrom)

 1-2  2.267671349  1-3  1.511780900
     ( 1.200000000)     ( 0.800000000)

 Bond angles

  2-1-3  105.00000000

 NUCLEAR CHARGE:                   16
 NUMBER OF PRIMITIVE AOS:         203
 NUMBER OF SYMMETRY AOS:          173
 NUMBER OF CONTRACTIONS:          171   ( 114A'  +  57A"  )
 NUMBER OF CORE ORBITALS:           2   (   2A'  +   0A"  )
 NUMBER OF VALENCE ORBITALS:        9   (   7A'  +   2A"  )


 NUCLEAR REPULSION ENERGY   31.96241601


 Eigenvalues of metric

         1 0.701E-03 0.217E-02 0.228E-02 0.309E-02 0.589E-02 0.978E-02 0.117E-01 0.142E-01
         2 0.123E-01 0.448E-01 0.559E-01 0.922E-01 0.948E-01 0.128E+00 0.128E+00 0.140E+00


 Contracted 2-electron integrals neglected if value below      1.0D-22

       46209992. INTEGRALS WRITTEN OUT IN   11285 BLOCKS ON RECORD 1290 OF FILE 1


 NUMBER OF SORTED TWO-ELECTRON INTEGRALS:   55360566.     BUFFER LENGTH:  32768
 NUMBER OF SEGMENTS:   4  SEGMENT LENGTH:   15997996      RECORD LENGTH: 524288

 Memory used in sort:      16.56 MW

 SORT1 READ    46209992. AND WROTE    46648071. INTEGRALS IN    136 RECORDS. CPU TIME:     1.60 SEC, REAL TIME:     1.99 SEC
 SORT2 READ    46648071. AND WROTE    55360566. INTEGRALS IN      4 RECORDS. CPU TIME:     0.89 SEC, REAL TIME:     1.21 SEC

 FILE SIZES:   FILE 1:   760.3 MBYTE,  FILE 4:   570.5 MBYTE,   TOTAL:   1330.7 MBYTE

 OPERATOR DM      FOR CENTER  0  COORDINATES:    0.000000    0.000000    0.000000


 **********************************************************************************************************************************
 DATASETS  * FILE   NREC   LENGTH (MB)   RECORD NAMES
              1      19      421.64       500      610      700      900      950      970     1000      129      960     1100   
                                          VAR    BASINP    GEOM    SYMINP    ZMAT    AOBASIS   BASIS     P2S    ABASIS      S 
                                         1400     1410     1200     1210     1080     1600     1650     1300     1700   
                                           T        V       H0       H01     AOSYM     SMH    MOLCAS    ERIS     OPER   

 PROGRAMS   *        TOTAL       INT
 CPU TIMES  *        21.93     21.82
 REAL TIME  *        10.64 SEC
 DISK USED  *         1.33 GB      
 **********************************************************************************************************************************


 PROGRAM * RHF-SCF (CLOSED SHELL)       Authors: W. Meyer, H.-J. Werner


 NUMBER OF ELECTRONS:       8+    8-
 CONVERGENCE THRESHOLDS:    1.00E-10 (Density)    1.00E-13 (Energy)
 MAX. NUMBER OF ITERATIONS:      500
 INTERPOLATION TYPE:            DIIS
 INTERPOLATION STEPS:              2 (START)      1 (STEP)
 LEVEL SHIFTS:                  0.00 (CLOSED)  0.00 (OPEN) 



 Orbital guess generated from atomic densities. Full valence occupancy:    9   2

 Molecular orbital dump at record        2100.2

 Initial occupancy:   7   1

 ITERATION    DDIFF          GRAD             ENERGY        2-EL.EN.            DIPOLE MOMENTS         DIIS   ORB.
    1      0.000D+00      0.000D+00      -129.74303658    156.781380    0.00000    0.62434   -0.82417    0    start
    2      0.000D+00      0.724D-02      -129.76769094    157.830846    0.00000    0.58230   -0.28852    1    diag
    3      0.444D-02      0.429D-02      -129.77656797    157.889034    0.00000    0.57606   -0.55267    2    diag
    4      0.102D-02      0.113D-02      -129.77738479    157.660677    0.00000    0.58410   -0.48520    3    diag
    5      0.378D-03      0.302D-03      -129.77746453    157.731541    0.00000    0.58720   -0.48878    4    diag
    6      0.152D-03      0.695D-04      -129.77747413    157.718471    0.00000    0.58756   -0.48570    5    diag
    7      0.522D-04      0.358D-04      -129.77747700    157.719906    0.00000    0.58819   -0.48364    6    diag
    8      0.330D-04      0.127D-04      -129.77747735    157.719340    0.00000    0.58821   -0.48289    7    diag
    9      0.111D-04      0.231D-05      -129.77747736    157.719345    0.00000    0.58821   -0.48276    8    diag
   10      0.256D-05      0.481D-06      -129.77747736    157.719356    0.00000    0.58820   -0.48275    9    orth
   11      0.764D-06      0.959D-07      -129.77747736    157.719357    0.00000    0.58820   -0.48275    9    diag
   12      0.173D-06      0.202D-07      -129.77747736    157.719358    0.00000    0.58820   -0.48275    9    diag
   13      0.354D-07      0.441D-08      -129.77747736    157.719358    0.00000    0.58820   -0.48275    9    diag
   14      0.571D-08      0.856D-09      -129.77747736    157.719358    0.00000    0.58820   -0.48275    9    diag
   15      0.699D-09      0.248D-09      -129.77747736    157.719358    0.00000    0.58820   -0.48275    9    diag
   16      0.273D-09      0.831D-10      -129.77747736    157.719358    0.00000    0.58820   -0.48275    9    diag
   17      0.452D-10      0.196D-10      -129.77747736    157.719358    0.00000    0.58820   -0.48275    9    diag
   18      0.159D-10      0.624D-11      -129.77747736    157.719358    0.00000    0.58820   -0.48275    0    orth

 Final occupancy:   7   1

 !RHF STATE 1.1 Energy               -129.777477360669
 Nuclear energy                        31.96241601
 One-electron energy                 -240.59957229
 Two-electron energy                   78.85967892
 Virial quotient                       -0.99623912
 !RHF STATE 1.1 Dipole moment           0.00000000     0.58819566    -0.48274856
 Dipole moment /Debye                   0.00000000     1.49494634    -1.22694408

 Orbital energies:

         1.1          2.1          3.1          4.1          5.1          6.1          7.1          8.1          9.1
    -20.650588   -15.675720    -1.550531    -1.078271    -0.771978    -0.669537    -0.444361     0.041690     0.205450

         1.2          2.2          3.2
     -0.599121     0.079540     0.238297

 HOMO      7.1    -0.444361 =     -12.0917eV
 LUMO      8.1     0.041690 =       1.1344eV
 LUMO-HOMO         0.486051 =      13.2261eV


 **********************************************************************************************************************************
 DATASETS  * FILE   NREC   LENGTH (MB)   RECORD NAMES
              1      19      421.64       500      610      700      900      950      970     1000      129      960     1100   
                                          VAR    BASINP    GEOM    SYMINP    ZMAT    AOBASIS   BASIS     P2S    ABASIS      S 
                                         1400     1410     1200     1210     1080     1600     1650     1300     1700   
                                           T        V       H0       H01     AOSYM     SMH    MOLCAS    ERIS     OPER   

              2       4        3.11       700     1000      520     2100   
                                         GEOM     BASIS   MCVARS     RHF  

 PROGRAMS   *        TOTAL        HF       INT
 CPU TIMES  *        56.78     34.85     21.82
 REAL TIME  *        21.81 SEC
 DISK USED  *         1.33 GB      
 **********************************************************************************************************************************


 PROGRAM * CCSD (Closed-shell coupled cluster)     Authors: C. Hampel, H.-J. Werner, 1991, M. Deegan, P.J. Knowles, 1992


 Convergence thresholds:  THRVAR = 1.00D-16  THRDEN = 1.00D-12

 CCSD(T)     terms to be evaluated (factor= 1.000)


 Number of core orbitals:           2 (   2   0 )
 Number of closed-shell orbitals:   6 (   5   1 )
 Number of external orbitals:     163 ( 107  56 )

 Molecular orbitals read from record     2100.2  Type=RHF/CANONICAL (state 1.1)

 Number of N-1 electron functions:               6
 Number of N-2 electron functions:              21
 Number of singly external CSFs:               591
 Number of doubly external CSFs:            250014
 Total number of CSFs:                      250606

 Length of J-op  integral file:               0.00 MB
 Length of K-op  integral file:               1.15 MB
 Length of 3-ext integral record:             0.00 MB

 Memory could be reduced to 19.93 Mwords without degradation in triples

 Integral transformation finished. Total CPU:   5.09 sec, npass=  1  Memory used:   5.10 MW

 Reference energy:                   -129.77747736

 MP2 singlet pair energy:              -0.28200022
 MP2 triplet pair energy:              -0.16440802
 MP2 correlation energy:               -0.44640824
 MP2 total energy:                   -130.22388560

 SCS-MP2 correlation energy:           -0.44069859   (PS=  1.200000  PT=  0.333333)
 SCS-MP2 total energy:               -130.21817595

 ITER.      SQ.NORM     CORR.ENERGY   TOTAL ENERGY   ENERGY CHANGE        DEN1      VAR(S)    VAR(P)  DIIS     TIME  TIME/IT
   1      1.11160681    -0.44933284  -130.22681020    -0.00292460     0.01199168  0.26D-02  0.26D-02  1  1     8.79     0.97
   2      1.12092730    -0.44943047  -130.22690783    -0.00009763    -0.01137017  0.99D-04  0.42D-03  2  2    12.64     1.00
   3      1.12645181    -0.44970190  -130.22717926    -0.00027143    -0.00294075  0.25D-04  0.53D-04  3  3    16.56     1.01
   4      1.12901452    -0.44975464  -130.22723200    -0.00005274    -0.00082251  0.20D-05  0.78D-05  4  4    20.36     1.01
   5      1.12982909    -0.44977059  -130.22724795    -0.00001595    -0.00017502  0.47D-06  0.17D-05  5  5    24.30     1.02
   6      1.13012519    -0.44976064  -130.22723800     0.00000995    -0.00004679  0.41D-07  0.47D-06  6  6    28.06     1.02
   7      1.13017903    -0.44976460  -130.22724196    -0.00000396     0.00000891  0.56D-08  0.92D-07  6  1    31.95     1.02
   8      1.13020872    -0.44976458  -130.22724194     0.00000002    -0.00000365  0.62D-08  0.75D-08  6  2    35.79     1.02
   9      1.13020872    -0.44976478  -130.22724214    -0.00000020     0.00000165  0.14D-08  0.81D-09  6  3    39.71     1.02
  10      1.13020972    -0.44976487  -130.22724224    -0.00000010    -0.00000067  0.27D-09  0.10D-09  6  4    43.60     1.02
  11      1.13020805    -0.44976500  -130.22724236    -0.00000012     0.00000046  0.29D-10  0.12D-10  6  6    47.39     1.02
  12      1.13020787    -0.44976505  -130.22724241    -0.00000005     0.00000012  0.20D-11  0.20D-11  6  5    51.15     1.02
  13      1.13020782    -0.44976505  -130.22724241     0.00000000    -0.00000003  0.64D-12  0.30D-12  6  2    54.99     1.02
  14      1.13020785    -0.44976505  -130.22724241    -0.00000000    -0.00000001  0.95D-13  0.30D-13  6  1    58.84     1.02
  15      1.13020786    -0.44976505  -130.22724241     0.00000000    -0.00000001  0.31D-13  0.86D-14  6  3    62.73     1.02
  16      1.13020786    -0.44976505  -130.22724241    -0.00000000    -0.00000000  0.43D-14  0.18D-14  6  4    66.61     1.02
  17      1.13020786    -0.44976505  -130.22724241    -0.00000000     0.00000000  0.38D-15  0.38D-15  6  6    70.53     1.02
  18      1.13020785    -0.44976505  -130.22724241    -0.00000000     0.00000000  0.52D-16  0.37D-16  6  5    74.40     1.02
  19      1.13020785    -0.44976505  -130.22724241     0.00000000    -0.00000000  0.46D-17  0.35D-17  6  2    78.24     1.02
  20      1.13020785    -0.44976505  -130.22724241     0.00000000    -0.00000000  0.72D-18  0.72D-18  6  1    82.16     1.02
  21      1.13020785    -0.44976505  -130.22724241    -0.00000000     0.00000000  0.20D-18  0.19D-18  6  3    86.05     1.02
  22      1.13020785    -0.44976505  -130.22724241     0.00000000     0.00000000  0.14D-19  0.26D-19  6  4    89.95     1.02
  23      1.13020785    -0.44976505  -130.22724241    -0.00000000     0.00000000  0.86D-21  0.32D-20  6  6    93.81     1.03
  24      1.13020785    -0.44976505  -130.22724241     0.00000000    -0.00000000  0.48D-21  0.63D-21  6  5    97.73     1.03
  25      1.13020785    -0.44976505  -130.22724241     0.00000000    -0.00000000  0.22D-21  0.16D-21  6  2   101.58     1.03

 Norm of t1 vector:      0.06863136      S-energy:    -0.00000000      T1 diagnostic:  0.01400932
                                                                       D1 diagnostic:  0.04107714

 Doubles amplitudes (print threshold =  0.500E-01):

         I         J         SYM. A    SYM. B    A         B      T(IJ, AB)

         6         6         2         2         1         1     -0.13631592


 Total CPU time for triples:     15.70 sec


 RESULTS
 =======

  Reference energy                   -129.777477360669
  CCSD singlet pair energy             -0.307526314972
  CCSD triplet pair energy             -0.142238731804
  CCSD correlation energy              -0.449765046777

  Triples (T) contribution             -0.019773148213
  Total correlation energy             -0.469538194990

  CCSD total energy                  -130.227242407446
  CCSD[T] energy                     -130.247901956481
  CCSD-T energy                      -130.246675430837
 !CCSD(T) total energy               -130.247015555659

 Timing summary (sec):

 STEP                 CPU(USER)    SYS     CPU(TOT)    WALL
 Transformation          5.13      0.57      5.70      4.19
 CCSD iterations        96.48      6.11    102.59     25.65
 Triples                15.70      0.63     16.33      4.08

 Program statistics:

 Available memory in ccsd:               994999756
 Min. memory needed in ccsd:                887758
 Max. memory used in ccsd:                 1088212
 Max. memory used in cckext:               1535578 (25 integral passes)



 **********************************************************************************************************************************
 DATASETS  * FILE   NREC   LENGTH (MB)   RECORD NAMES
              1      20      479.60       500      610      700      900      950      970     1000      129      960     1100   
                                          VAR    BASINP    GEOM    SYMINP    ZMAT    AOBASIS   BASIS     P2S    ABASIS      S 
                                         1400     1410     1200     1210     1080     1600     1650     1300     1700     1380   
                                           T        V       H0       H01     AOSYM     SMH    MOLCAS    ERIS     OPER     JKOP   

              2       4        3.11       700     1000      520     2100   
                                         GEOM     BASIS   MCVARS     RHF  

 PROGRAMS   *        TOTAL   CCSD(T)        HF       INT
 CPU TIMES  *       174.19    117.41     34.85     21.82
 REAL TIME  *        56.78 SEC
 DISK USED  *         1.33 GB      
 **********************************************************************************************************************************


 PROGRAM * OPT (Geometry optimization)     Authors: F. Eckert and H.-J. Werner


 BFGS update of hessian

 *** Long output written to logfile /ddn/home4/r2666/chem/rotation/hno/opt/MT/opt.log ***


 Geometry optimization using default procedure for command CCSD(T)

 Geometry written to block  1 of record 700

 Making model hessian for Z-matrix coordinates

 Entering Rational Function Geometry Optimization

 ITER.   ENERGY(OLD)    ENERGY(NEW)      DE          GRADMAX     GRADNORM    GRADRMS     STEPMAX     STEPLEN     STEPRMS   CPU-time
   1  -130.24701556  -130.31079726    -0.06378171  0.39414555  0.39672616  0.22904996  0.29924998  0.30000000  0.10000000   1172.86
   2  -130.31079726  -130.31565496    -0.00485770  0.07985331  0.08284126  0.04782842  0.07531739  0.08378454  0.02792818   2355.44
   3  -130.31565496  -130.31745671    -0.00180174  0.03947152  0.03971241  0.02292797  0.07314185  0.07476932  0.02492311   3549.48
   4  -130.31745671  -130.31762372    -0.00016702  0.01009974  0.01086788  0.00627457  0.02586823  0.02653119  0.00884373   4763.58
   5  -130.31762372  -130.31763123    -0.00000751  0.00177677  0.00235291  0.00135845  0.00592707  0.00639426  0.00213142   5986.14
   6  -130.31763123  -130.31763133    -0.00000010  0.00033083  0.00033781  0.00019503  0.00039967  0.00057419  0.00019140   7186.65
   7  -130.31763133  -130.31763134    -0.00000001  0.00007995  0.00008658  0.00004999  0.00010311  0.00013029  0.00004343   8402.42
   8  -130.31763134  -130.31763134    -0.00000000  0.00001062  0.00001338  0.00000773  0.00002966  0.00003225  0.00001075   9627.12
   9  -130.31763134  -130.31763134    -0.00000000  0.00000084  0.00000092  0.00000053  0.00000278  0.00000287  0.00000096  10830.14
  10  -130.31763134  -130.31763134     0.00000000  0.00000005  0.00000006  0.00000003  0.00000008  0.00000012  0.00000004  12030.98
  11  -130.31763134  -130.31763134    -0.00000000  0.00000000  0.00000000  0.00000000  0.00000000  0.00000000  0.00000000  13217.61

 END OF GEOMETRY OPTIMIZATION.

 Optimized variables
 NO=                  1.21093368 ANG
 NH=                  1.05388060 ANG
 HNO=               107.98037156 DEG

 **********************************************************************************************************************************

 Current geometry (xyz format, in Angstrom)

    3
 CCSD(T)/USERDEF  ENERGY=-130.31763134
 N          0.0000000000       -0.0853810486       -0.6090265306
 O          0.0000000000        0.0189765114        0.5974020293
 H          0.0000000000        0.8852649337       -1.0195270773

 **********************************************************************************************************************************

 Geometry written to block  1 of record 700


 **********************************************************************************************************************************
 DATASETS  * FILE   NREC   LENGTH (MB)   RECORD NAMES
              1      20      479.14       500      610      700      900      950      970     1000      129      960     1100   
                                          VAR    BASINP    GEOM    SYMINP    ZMAT    AOBASIS   BASIS     P2S    ABASIS      S 
                                         1400     1410     1200     1210     1080     1600     1650     1300     1700     1380   
                                           T        V       H0       H01     AOSYM     SMH    MOLCAS    ERIS     OPER     JKOP   

              2       5        3.45       700     1000      520     2100     5600   
                                         GEOM     BASIS   MCVARS     RHF     GINFO   

 PROGRAMS   *        TOTAL      OPTG   CCSD(T)        HF       INT
 CPU TIMES  *     13391.81  13217.61    117.41     34.85     21.82
 REAL TIME  *      3849.31 SEC
 DISK USED  *         1.34 GB      
 **********************************************************************************************************************************

 CCSD(T)/USERDEF//CCSD(T)/USERDEF energy=   -130.317631343222

   OPTG(CCSD(T))        CCSD(T)         HF-SCF  
   -130.31763134   -130.24701556   -129.77747736
 **********************************************************************************************************************************
 Molpro calculation terminated
 Variable memory released
